Program Version,EnergyPlus, Version 24.2.0-94a887817b, YMD=2025.02.04 15:39
1,5,Environment Title[],Latitude[deg],Longitude[deg],Time Zone[],Elevation[m]
2,8,Day of Simulation[],Month[],Day of Month[],DST Indicator[1=yes 0=no],Hour[],StartMinute[],EndMinute[],DayType
3,5,Cumulative Day of Simulation[],Month[],Day of Month[],DST Indicator[1=yes 0=no],DayType  ! When Daily Meters Requested
4,2,Cumulative Days of Simulation[],Month[]  ! When Monthly Meters Requested
5,1,Cumulative Days of Simulation[] ! When Run Period Meters Requested
6,1,Calendar Year of Simulation[] ! When Annual Meters Requested
11,9,Electricity:Facility [J] !Monthly [Value,Min,Day,Hour,Minute,Max,Day,Hour,Minute]
23,9,Electricity:Building [J] !Monthly [Value,Min,Day,Hour,Minute,Max,Day,Hour,Minute]
59,9,InteriorLights:Electricity [J] !Monthly [Value,Min,Day,Hour,Minute,Max,Day,Hour,Minute]
521,9,Electricity:HVAC [J] !Monthly [Value,Min,Day,Hour,Minute,Max,Day,Hour,Minute]
637,9,NaturalGas:Facility [J] !Monthly [Value,Min,Day,Hour,Minute,Max,Day,Hour,Minute]
649,9,NaturalGas:HVAC [J] !Monthly [Value,Min,Day,Hour,Minute,Max,Day,Hour,Minute]
13,11,Electricity:Facility [J] !RunPeriod [Value,Min,Month,Day,Hour,Minute,Max,Month,Day,Hour,Minute]
25,11,Electricity:Building [J] !RunPeriod [Value,Min,Month,Day,Hour,Minute,Max,Month,Day,Hour,Minute]
61,11,InteriorLights:Electricity [J] !RunPeriod [Value,Min,Month,Day,Hour,Minute,Max,Month,Day,Hour,Minute]
523,11,Electricity:HVAC [J] !RunPeriod [Value,Min,Month,Day,Hour,Minute,Max,Month,Day,Hour,Minute]
639,11,NaturalGas:Facility [J] !RunPeriod [Value,Min,Month,Day,Hour,Minute,Max,Month,Day,Hour,Minute]
651,11,NaturalGas:HVAC [J] !RunPeriod [Value,Min,Month,Day,Hour,Minute,Max,Month,Day,Hour,Minute]
End of Data Dictionary
1,RUN PERIOD 1,  41.98, -87.92,  -6.00, 201.00
4,31, 1
11,9819192085.457417,408891.4285714286, 5, 6,50,2976677.5761773717,16,13,60
23,980141984.226417,30000.0, 1, 1,10,607204.3363959468, 1, 9,10
59,970200000.0,30000.0, 1, 1,10,600000.0, 1, 8,10
521,8839050101.230986,378891.4285714286, 5, 6,50,2369473.239781425,16,13,60
637,179172210297.5384,28333404.39492375,21,16,10,41250000.0, 1, 1,10
649,179172210297.5384,28333404.39492375,21,16,10,41250000.0, 1, 1,10
4,59, 2
11,9353181324.739,99999999999999.0, 5, 6,50,3018139.0164404935,22,15,30
23,856805203.6751412,99999999999999.0, 1, 1,10,-99999999999999.0, 1, 9,10
59,848160000.0,99999999999999.0, 1, 1,10,-99999999999999.0, 1, 8,10
521,8496376121.063895,99999999999999.0, 5, 6,50,2410934.680044547,22,15,30
637,158596833209.48322,26642054.656871367,23,12,10,-99999999999999.0, 1, 1,10
649,158596833209.48322,26642054.656871367,23,12,10,-99999999999999.0, 1, 1,10
4,90, 3
11,10961900346.475248,99999999999999.0, 5, 6,50,3216624.4581424934,27,14,60
23,906557463.8589,99999999999999.0, 1, 1,10,-99999999999999.0, 1, 9,10
59,897480000.0,99999999999999.0, 1, 1,10,-99999999999999.0, 1, 8,10
521,10055342882.616327,0.0,27,15,10,2609420.1217465466,27,14,60
637,162815405093.97427,0.0,27,15,10,-99999999999999.0, 1, 1,10
649,162815405093.97427,0.0,27,15,10,-99999999999999.0, 1, 1,10
4,120, 4
11,9308031328.362368,30000.0,11,19,10,-99999999999999.0,27,14,60
23,939029724.0426582,99999999999999.0, 1, 1,10,-99999999999999.0, 1, 9,10
59,929520000.0,99999999999999.0, 1, 1,10,-99999999999999.0, 1, 8,10
521,8369001604.319712,99999999999999.0,27,15,10,-99999999999999.0,27,14,60
637,119736469223.64804,99999999999999.0,27,15,10,-99999999999999.0, 1, 1,10
649,119736469223.64804,99999999999999.0,27,15,10,-99999999999999.0, 1, 1,10
4,151, 5
11,8465573975.4174795,99999999999999.0,11,19,10,3216752.8628552714, 3,10,20
23,980431159.0656089,99999999999999.0, 1, 1,10,623133.5784963375,28,13,10
59,970200000.0,99999999999999.0, 1, 1,10,-99999999999999.0, 1, 8,10
521,7485142816.351736,99999999999999.0,27,15,10,2609548.5264593246, 3,10,20
637,90786205275.95296,99999999999999.0,27,15,10,-99999999999999.0, 1, 1,10
649,90786205275.95296,99999999999999.0,27,15,10,-99999999999999.0, 1, 1,10
4,181, 6
11,6011542002.0161705,99999999999999.0,11,19,10,-99999999999999.0, 3,10,20
23,865531500.2525983,99999999999999.0, 1, 1,10,-99999999999999.0,28,13,10
59,856800000.0,99999999999999.0, 1, 1,10,-99999999999999.0, 1, 8,10
521,5146010501.763598,99999999999999.0,27,15,10,-99999999999999.0, 3,10,20
637,40798521648.01114,99999999999999.0,27,15,10,-99999999999999.0, 1, 1,10
649,40798521648.01114,99999999999999.0,27,15,10,-99999999999999.0, 1, 1,10
4,212, 7
11,4849870493.652975,99999999999999.0,11,19,10,-99999999999999.0, 3,10,20
23,980414284.8044056,99999999999999.0, 1, 1,10,-99999999999999.0,28,13,10
59,970200000.0,99999999999999.0, 1, 1,10,-99999999999999.0, 1, 8,10
521,3869456208.8485565,99999999999999.0,27,15,10,-99999999999999.0, 3,10,20
637,13008474983.313196,99999999999999.0,27,15,10,-99999999999999.0, 1, 1,10
649,13008474983.313196,99999999999999.0,27,15,10,-99999999999999.0, 1, 1,10
4,243, 8
11,4475948427.378605,99999999999999.0,11,19,10,-99999999999999.0, 3,10,20
23,943628072.3060437,99999999999999.0, 1, 1,10,623232.3031235404,12,14,10
59,933840000.0,99999999999999.0, 1, 1,10,-99999999999999.0, 1, 8,10
521,3532320355.0726705,99999999999999.0,27,15,10,-99999999999999.0, 3,10,20
637,26261486632.341156,99999999999999.0,27,15,10,-99999999999999.0, 1, 1,10
649,26261486632.341156,99999999999999.0,27,15,10,-99999999999999.0, 1, 1,10
4,273, 9
11,6494080819.29651,99999999999999.0,11,19,10,-99999999999999.0, 3,10,20
23,902237463.8588996,99999999999999.0, 1, 1,10,-99999999999999.0,12,14,10
59,893160000.0,99999999999999.0, 1, 1,10,-99999999999999.0, 1, 8,10
521,5591843355.437607,99999999999999.0,27,15,10,-99999999999999.0, 3,10,20
637,60582182148.88101,99999999999999.0,27,15,10,-99999999999999.0, 1, 1,10
649,60582182148.88101,99999999999999.0,27,15,10,-99999999999999.0, 1, 1,10
4,304,10
11,10487908280.103203,99999999999999.0,11,19,10,-99999999999999.0, 3,10,20
23,980141984.226417,99999999999999.0, 1, 1,10,-99999999999999.0,12,14,10
59,970200000.0,99999999999999.0, 1, 1,10,-99999999999999.0, 1, 8,10
521,9507766295.876781,99999999999999.0,27,15,10,-99999999999999.0, 3,10,20
637,128312139484.30351,99999999999999.0,27,15,10,-99999999999999.0, 1, 1,10
649,128312139484.30351,99999999999999.0,27,15,10,-99999999999999.0, 1, 1,10
4,334,11
11,10415131527.747662,99999999999999.0,11,19,10,-99999999999999.0, 3,10,20
23,902237463.8589,99999999999999.0, 1, 1,10,-99999999999999.0,12,14,10
59,893160000.0,99999999999999.0, 1, 1,10,-99999999999999.0, 1, 8,10
521,9512894063.888762,99999999999999.0,27,15,10,-99999999999999.0, 3,10,20
637,147613160522.40533,99999999999999.0,27,15,10,-99999999999999.0, 1, 1,10
649,147613160522.40533,99999999999999.0,27,15,10,-99999999999999.0, 1, 1,10
4,365,12
11,10432300344.42646,99999999999999.0,11,19,10,-99999999999999.0, 3,10,20
23,943349724.0426583,99999999999999.0, 1, 1,10,-99999999999999.0,12,14,10
59,933840000.0,99999999999999.0, 1, 1,10,-99999999999999.0, 1, 8,10
521,9488950620.383821,99999999999999.0,27,15,10,-99999999999999.0, 3,10,20
637,180024918972.63306,99999999999999.0,27,15,10,-99999999999999.0, 1, 1,10
649,180024918972.63306,99999999999999.0,27,15,10,-99999999999999.0, 1, 1,10
5,365
13,101074660955.07489,30000.0, 4,11,19,10,3216752.8628552714, 5, 3,10,20
25,11180506028.217127,30000.0, 1, 1, 1,10,623232.3031235404, 8,12,14,10
61,11066760000.0,30000.0, 1, 1, 1,10,600000.0, 1, 1, 8,10
523,89894154926.85925,0.0, 3,27,15,10,2609548.5264593246, 5, 3,10,20
639,1307708007492.4849,0.0, 3,27,15,10,41250000.0, 1, 1, 1,10
651,1307708007492.4849,0.0, 3,27,15,10,41250000.0, 1, 1, 1,10
1,RUN PERIOD 2,  41.98, -87.92,  -6.00, 201.00
4,1, 7
11,90106208.05169193,99999999999999.0,11,19,10,-99999999999999.0, 3,10,20
23,41112260.183756806,99999999999999.0, 1, 1,10,-99999999999999.0,12,14,10
59,40680000.0,99999999999999.0, 1, 1,10,-99999999999999.0, 1, 8,10
521,48993947.86793509,99999999999999.0,27,15,10,-99999999999999.0, 3,10,20
637,0.0,99999999999999.0,27,15,10,-99999999999999.0, 1, 1,10
649,0.0,99999999999999.0,27,15,10,-99999999999999.0, 1, 1,10
5,1
13,90106208.05169193,99999999999999.0, 4,11,19,10,-99999999999999.0, 5, 3,10,20
25,41112260.183756806,99999999999999.0, 1, 1, 1,10,-99999999999999.0, 8,12,14,10
61,40680000.0,99999999999999.0, 1, 1, 1,10,-99999999999999.0, 1, 1, 8,10
523,48993947.86793509,99999999999999.0, 3,27,15,10,-99999999999999.0, 5, 3,10,20
639,0.0,99999999999999.0, 3,27,15,10,-99999999999999.0, 1, 1, 1,10
651,0.0,99999999999999.0, 3,27,15,10,-99999999999999.0, 1, 1, 1,10
End of Data
 Number of Records Written=          90
