Program Version,EnergyPlus, Version 24.2.0-94a887817b, YMD=2025.01.21 23:16
1,5,Environment Title[],Latitude[deg],Longitude[deg],Time Zone[],Elevation[m]
2,8,Day of Simulation[],Month[],Day of Month[],DST Indicator[1=yes 0=no],Hour[],StartMinute[],EndMinute[],DayType
3,5,Cumulative Day of Simulation[],Month[],Day of Month[],DST Indicator[1=yes 0=no],DayType  ! When Daily Report Variables Requested
4,2,Cumulative Days of Simulation[],Month[]  ! When Monthly Report Variables Requested
5,1,Cumulative Days of Simulation[] ! When Run Period Report Variables Requested
6,1,Calendar Year of Simulation[] ! When Annual Report Variables Requested
250,1,LIVING ZONE,Zone Air Temperature [C] !TimeStep,REPORTSCH
251,1,LIVING ZONE,Zone Air System Sensible Heating Energy [J] !TimeStep,REPORTSCH
336,1,LIVING ZONE,Zone Air System Sensible Cooling Energy [J] !TimeStep,REPORTSCH
385,1,LIVING ZONE,Zone Thermostat Heating Setpoint Temperature [C] !TimeStep,REPORTSCH
386,1,LIVING ZONE,Zone Thermostat Cooling Setpoint Temperature [C] !TimeStep,REPORTSCH
387,1,GARAGE ZONE,Zone Air Temperature [C] !TimeStep,REPORTSCH
388,1,GARAGE ZONE,Zone Air System Sensible Heating Energy [J] !TimeStep,REPORTSCH
425,1,GARAGE ZONE,Zone Air System Sensible Cooling Energy [J] !TimeStep,REPORTSCH
450,1,GARAGE ZONE,Zone Thermostat Heating Setpoint Temperature [C] !TimeStep,REPORTSCH
451,1,GARAGE ZONE,Zone Thermostat Cooling Setpoint Temperature [C] !TimeStep,REPORTSCH
452,1,ATTIC ZONE,Zone Air Temperature [C] !TimeStep,REPORTSCH
453,1,ATTIC ZONE,Zone Air System Sensible Heating Energy [J] !TimeStep,REPORTSCH
490,1,ATTIC ZONE,Zone Air System Sensible Cooling Energy [J] !TimeStep,REPORTSCH
515,1,ATTIC ZONE,Zone Thermostat Heating Setpoint Temperature [C] !TimeStep,REPORTSCH
516,1,ATTIC ZONE,Zone Thermostat Cooling Setpoint Temperature [C] !TimeStep,REPORTSCH
542,1,ACDXCOIL 1,Cooling Coil Total Cooling Energy [J] !TimeStep,REPORTSCH
592,1,HEAT PUMP DX HEATING COIL 1,Heating Coil Heating Energy [J] !TimeStep,REPORTSCH
632,1,SUPP HEATING COIL 1,Heating Coil Heating Energy [J] !TimeStep,REPORTSCH
686,1,TWOSPEED HEAT PUMP 1,Unitary System DX Coil Cycling Ratio [] !TimeStep,REPORTSCH
687,1,TWOSPEED HEAT PUMP 1,Unitary System DX Coil Speed Ratio [] !TimeStep,REPORTSCH
688,1,TWOSPEED HEAT PUMP 1,Unitary System DX Coil Speed Level [] !TimeStep,REPORTSCH
End of Data Dictionary
1,CHICAGO_IL_USA ANNUAL HEATING 99% DESIGN CONDITIONS DB,  41.98, -87.92,  -6.00, 201.00
2,1, 1,21, 0, 1, 0.00,10.00,WinterDesignDay
250,-17.089912504311208
251,33258891.42862353
336,0.0
385,17.586282702939577
386,25.695732344815394
387,-18.49939371056908
388,0.0
425,0.0
450,0.0
451,0.0
452,-19.362270572793932
453,0.0
490,0.0
515,0.0
516,0.0
542,0.0
592,0.0
632,33000000.0
686,1.0
687,1.0
688,2.0
2,1, 1,21, 0, 1,10.00,20.00,WinterDesignDay
250,-17.089912504407085
251,33258891.428622834
336,0.0
385,17.586282702939577
386,25.695732344815394
387,-18.499395198655947
388,0.0
425,0.0
450,0.0
451,0.0
452,-19.362270780241634
453,0.0
490,0.0
515,0.0
516,0.0
542,0.0
592,0.0
632,33000000.0
686,1.0
687,1.0
688,2.0
2,1, 1,21, 0, 1,20.00,30.00,WinterDesignDay
250,-17.089912504501694
251,33258891.428622153
336,0.0
385,17.586282702939577
386,25.695732344815394
387,-18.49939666734165
388,0.0
425,0.0
450,0.0
451,0.0
452,-19.362270984984082
453,0.0
490,0.0
515,0.0
516,0.0
542,0.0
592,0.0
632,33000000.0
686,1.0
687,1.0
688,2.0
2,1, 1,21, 0, 1,30.00,40.00,WinterDesignDay
250,-17.089912504595045
251,33258891.42862148
336,0.0
385,17.586282702939577
386,25.695732344815394
387,-18.499398116879256
388,0.0
425,0.0
450,0.0
451,0.0
452,-19.36227118705656
453,0.0
490,0.0
515,0.0
516,0.0
542,0.0
592,0.0
632,33000000.0
686,1.0
687,1.0
688,2.0
2,1, 1,21, 0, 1,40.00,50.00,WinterDesignDay
250,-17.089912504687153
251,33258891.42862081
336,0.0
385,17.586282702939577
386,25.695732344815394
387,-18.49939954751816
388,0.0
425,0.0
450,0.0
451,0.0
452,-19.36227138649389
453,0.0
490,0.0
515,0.0
516,0.0
542,0.0
592,0.0
632,33000000.0
686,1.0
687,1.0
688,2.0
2,1, 1,21, 0, 1,50.00,60.00,WinterDesignDay
250,-17.08991250477804
251,33258891.428620156
336,0.0
385,17.586282702939577
386,25.695732344815394
387,-18.49940095950475
388,0.0
425,0.0
450,0.0
451,0.0
452,-19.362271583330443
453,0.0
490,0.0
515,0.0
516,0.0
542,0.0
592,0.0
632,33000000.0
686,1.0
687,1.0
688,2.0
2,1, 1,21, 0, 2, 0.00,10.00,WinterDesignDay
250,-17.089912504867726
251,33258891.42861951
336,0.0
385,17.586282702939577
386,25.695732344815394
387,-18.499402353082367
388,0.0
425,0.0
450,0.0
451,0.0
452,-19.36227177760014
453,0.0
490,0.0
515,0.0
516,0.0
542,0.0
592,0.0
632,33000000.0
686,1.0
687,1.0
688,2.0
2,1, 1,21, 0, 2,10.00,20.00,WinterDesignDay
250,-17.089912504956217
251,33258891.428618874
336,0.0
385,17.586282702939577
386,25.695732344815394
387,-18.499403728491068
388,0.0
425,0.0
450,0.0
451,0.0
452,-19.362271969336458
453,0.0
490,0.0
515,0.0
516,0.0
542,0.0
592,0.0
632,33000000.0
686,1.0
687,1.0
688,2.0
2,1, 1,21, 0, 2,20.00,30.00,WinterDesignDay
250,-17.089912505043536
251,33258891.428618245
336,0.0
385,17.586282702939577
386,25.695732344815394
387,-18.49940508596765
388,0.0
425,0.0
450,0.0
451,0.0
452,-19.362272158572445
453,0.0
490,0.0
515,0.0
516,0.0
542,0.0
592,0.0
632,33000000.0
686,1.0
687,1.0
688,2.0
2,1, 1,21, 0, 2,30.00,40.00,WinterDesignDay
250,-17.08991250512969
251,33258891.42861762
336,0.0
385,17.586282702939577
386,25.695732344815394
387,-18.499406425745697
388,0.0
425,0.0
450,0.0
451,0.0
452,-19.3622723453407
453,0.0
490,0.0
515,0.0
516,0.0
542,0.0
592,0.0
632,33000000.0
686,1.0
687,1.0
688,2.0
2,1, 1,21, 0, 2,40.00,50.00,WinterDesignDay
250,-17.089912505214706
251,33258891.428617015
336,0.0
385,17.586282702939577
386,25.695732344815394
387,-18.499407748055837
388,0.0
425,0.0
450,0.0
451,0.0
452,-19.362272529673408
453,0.0
490,0.0
515,0.0
516,0.0
542,0.0
592,0.0
632,33000000.0
686,1.0
687,1.0
688,2.0
2,1, 1,21, 0, 2,50.00,60.00,WinterDesignDay
250,-17.089912505298596
251,33258891.428616405
336,0.0
385,17.586282702939577
386,25.695732344815394
387,-18.499409053126058
388,0.0
425,0.0
450,0.0
451,0.0
452,-19.362272711602344
453,0.0
490,0.0
515,0.0
516,0.0
542,0.0
592,0.0
632,33000000.0
686,1.0
687,1.0
688,2.0
2,1, 1,21, 0, 3, 0.00,10.00,WinterDesignDay
250,-17.08991250538137
251,33258891.42861581
336,0.0
385,17.586282702939577
386,25.695732344815394
387,-18.49941034118119
388,0.0
425,0.0
450,0.0
451,0.0
452,-19.362272891158852
453,0.0
490,0.0
515,0.0
516,0.0
542,0.0
592,0.0
632,33000000.0
686,1.0
687,1.0
688,2.0
2,1, 1,21, 0, 3,10.00,20.00,WinterDesignDay
250,-17.08991250546305
251,33258891.42861522
336,0.0
385,17.586282702939577
386,25.695732344815394
387,-18.49941161244308
388,0.0
425,0.0
450,0.0
451,0.0
452,-19.362273068373877
453,0.0
490,0.0
515,0.0
516,0.0
542,0.0
592,0.0
632,33000000.0
686,1.0
687,1.0
688,2.0
2,1, 1,21, 0, 3,20.00,30.00,WinterDesignDay
250,-17.089912505543644
251,33258891.42861464
336,0.0
385,17.586282702939577
386,25.695732344815394
387,-18.49941286713076
388,0.0
425,0.0
450,0.0
451,0.0
452,-19.36227324327795
453,0.0
490,0.0
515,0.0
516,0.0
542,0.0
592,0.0
632,33000000.0
686,1.0
687,1.0
688,2.0
2,1, 1,21, 0, 3,30.00,40.00,WinterDesignDay
250,-17.08991250562317
251,33258891.42861407
336,0.0
385,17.586282702939577
386,25.695732344815394
387,-18.499414105460193
388,0.0
425,0.0
450,0.0
451,0.0
452,-19.362273415901214
453,0.0
490,0.0
515,0.0
516,0.0
542,0.0
592,0.0
632,33000000.0
686,1.0
687,1.0
688,2.0
2,1, 1,21, 0, 3,40.00,50.00,WinterDesignDay
250,-17.08991250570164
251,33258891.4286135
336,0.0
385,17.586282702939577
386,25.695732344815394
387,-18.499415327644442
388,0.0
425,0.0
450,0.0
451,0.0
452,-19.362273586273417
453,0.0
490,0.0
515,0.0
516,0.0
542,0.0
592,0.0
632,33000000.0
686,1.0
687,1.0
688,2.0
2,1, 1,21, 0, 3,50.00,60.00,WinterDesignDay
250,-17.089912505779076
251,33258891.428612944
336,0.0
385,17.586282702939577
386,25.695732344815394
387,-18.49941653389417
388,0.0
425,0.0
450,0.0
451,0.0
452,-19.362273754423917
453,0.0
490,0.0
515,0.0
516,0.0
542,0.0
592,0.0
632,33000000.0
686,1.0
687,1.0
688,2.0
2,1, 1,21, 0, 4, 0.00,10.00,WinterDesignDay
250,-17.089912505855487
251,33258891.428612396
336,0.0
385,17.586282702939577
386,25.695732344815394
387,-18.499417724417167
388,0.0
425,0.0
450,0.0
451,0.0
452,-19.362273920381693
453,0.0
490,0.0
515,0.0
516,0.0
542,0.0
592,0.0
632,33000000.0
686,1.0
687,1.0
688,2.0
2,1, 1,21, 0, 4,10.00,20.00,WinterDesignDay
250,-17.08991250593088
251,33258891.42861185
336,0.0
385,17.586282702939577
386,25.695732344815394
387,-18.499418899418373
388,0.0
425,0.0
450,0.0
451,0.0
452,-19.362274084175336
453,0.0
490,0.0
515,0.0
516,0.0
542,0.0
592,0.0
632,33000000.0
686,1.0
687,1.0
688,2.0
2,1, 1,21, 0, 4,20.00,30.00,WinterDesignDay
250,-17.08991250600527
251,33258891.428611312
336,0.0
385,17.586282702939577
386,25.695732344815394
387,-18.4994200591
388,0.0
425,0.0
450,0.0
451,0.0
452,-19.362274245833078
453,0.0
490,0.0
515,0.0
516,0.0
542,0.0
592,0.0
632,33000000.0
686,1.0
687,1.0
688,2.0
2,1, 1,21, 0, 4,30.00,40.00,WinterDesignDay
250,-17.08991250607868
251,33258891.42861079
336,0.0
385,17.586282702939577
386,25.695732344815394
387,-18.499421203661758
388,0.0
425,0.0
450,0.0
451,0.0
452,-19.362274405382774
453,0.0
490,0.0
515,0.0
516,0.0
542,0.0
592,0.0
632,33000000.0
686,1.0
687,1.0
688,2.0
2,1, 1,21, 0, 4,40.00,50.00,WinterDesignDay
250,-17.089912506151123
251,33258891.42861027
336,0.0
385,17.586282702939577
386,25.695732344815394
387,-18.499422333300934
388,0.0
425,0.0
450,0.0
451,0.0
452,-19.362274562851905
453,0.0
490,0.0
515,0.0
516,0.0
542,0.0
592,0.0
632,33000000.0
686,1.0
687,1.0
688,2.0
2,1, 1,21, 0, 4,50.00,60.00,WinterDesignDay
250,-17.089912506222596
251,33258891.42860975
336,0.0
385,17.586282702939577
386,25.695732344815394
387,-18.499423448212145
388,0.0
425,0.0
450,0.0
451,0.0
452,-19.36227471826761
453,0.0
490,0.0
515,0.0
516,0.0
542,0.0
592,0.0
632,33000000.0
686,1.0
687,1.0
688,2.0
2,1, 1,21, 0, 5, 0.00,10.00,WinterDesignDay
250,-17.089912506293132
251,33258891.42860925
336,0.0
385,17.586282702939577
386,25.695732344815394
387,-18.49942454858737
388,0.0
425,0.0
450,0.0
451,0.0
452,-19.362274871656677
453,0.0
490,0.0
515,0.0
516,0.0
542,0.0
592,0.0
632,33000000.0
686,1.0
687,1.0
688,2.0
2,1, 1,21, 0, 5,10.00,20.00,WinterDesignDay
250,-17.08991250636273
251,33258891.42860874
336,0.0
385,17.586282702939577
386,25.695732344815394
387,-18.499425634616163
388,0.0
425,0.0
450,0.0
451,0.0
452,-19.36227502304553
453,0.0
490,0.0
515,0.0
516,0.0
542,0.0
592,0.0
632,33000000.0
686,1.0
687,1.0
688,2.0
2,1, 1,21, 0, 5,20.00,30.00,WinterDesignDay
250,-17.089912506431403
251,33258891.428608246
336,0.0
385,17.586282702939577
386,25.695732344815394
387,-18.49942670648554
388,0.0
425,0.0
450,0.0
451,0.0
452,-19.362275172460258
453,0.0
490,0.0
515,0.0
516,0.0
542,0.0
592,0.0
632,33000000.0
686,1.0
687,1.0
688,2.0
2,1, 1,21, 0, 5,30.00,40.00,WinterDesignDay
250,-17.089912506499168
251,33258891.428607758
336,0.0
385,17.586282702939577
386,25.695732344815394
387,-18.499427764380076
388,0.0
425,0.0
450,0.0
451,0.0
452,-19.362275319926596
453,0.0
490,0.0
515,0.0
516,0.0
542,0.0
592,0.0
632,33000000.0
686,1.0
687,1.0
688,2.0
2,1, 1,21, 0, 5,40.00,50.00,WinterDesignDay
250,-17.089912506566048
251,33258891.428607285
336,0.0
385,17.586282702939577
386,25.695732344815394
387,-18.499428808482012
388,0.0
425,0.0
450,0.0
451,0.0
452,-19.362275465469963
453,0.0
490,0.0
515,0.0
516,0.0
542,0.0
592,0.0
632,33000000.0
686,1.0
687,1.0
688,2.0
2,1, 1,21, 0, 5,50.00,60.00,WinterDesignDay
250,-17.089912506632036
251,33258891.428606812
336,0.0
385,17.586282702939577
386,25.695732344815394
387,-18.499429838970986
388,0.0
425,0.0
450,0.0
451,0.0
452,-19.362275609115443
453,0.0
490,0.0
515,0.0
516,0.0
542,0.0
592,0.0
632,33000000.0
686,1.0
687,1.0
688,2.0
2,1, 1,21, 0, 6, 0.00,10.00,WinterDesignDay
250,-17.089912506697146
251,33258891.42860633
336,0.0
385,17.586282702939577
386,25.695732344815394
387,-18.49943085602446
388,0.0
425,0.0
450,0.0
451,0.0
452,-19.362275750887786
453,0.0
490,0.0
515,0.0
516,0.0
542,0.0
592,0.0
632,33000000.0
686,1.0
687,1.0
688,2.0
2,1, 1,21, 0, 6,10.00,20.00,WinterDesignDay
250,-17.0899125067614
251,33258891.42860588
336,0.0
385,17.586282702939577
386,25.695732344815394
387,-18.49943185981772
388,0.0
425,0.0
450,0.0
451,0.0
452,-19.362275890811418
453,0.0
490,0.0
515,0.0
516,0.0
542,0.0
592,0.0
632,33000000.0
686,1.0
687,1.0
688,2.0
2,1, 1,21, 0, 6,20.00,30.00,WinterDesignDay
250,-17.0899125068248
251,33258891.42860542
336,0.0
385,17.586282702939577
386,25.695732344815394
387,-18.4994328505237
388,0.0
425,0.0
450,0.0
451,0.0
452,-19.36227602891044
453,0.0
490,0.0
515,0.0
516,0.0
542,0.0
592,0.0
632,33000000.0
686,1.0
687,1.0
688,2.0
2,1, 1,21, 0, 6,30.00,40.00,WinterDesignDay
250,-17.08991250688737
251,33258891.428604975
336,0.0
385,17.586282702939577
386,25.695732344815394
387,-18.499433828313133
388,0.0
425,0.0
450,0.0
451,0.0
452,-19.362276165208655
453,0.0
490,0.0
515,0.0
516,0.0
542,0.0
592,0.0
632,33000000.0
686,1.0
687,1.0
688,2.0
2,1, 1,21, 0, 6,40.00,50.00,WinterDesignDay
250,-17.089912506949105
251,33258891.42860453
336,0.0
385,17.586282702939577
386,25.695732344815394
387,-18.49943479335442
388,0.0
425,0.0
450,0.0
451,0.0
452,-19.362276299729555
453,0.0
490,0.0
515,0.0
516,0.0
542,0.0
592,0.0
632,33000000.0
686,1.0
687,1.0
688,2.0
2,1, 1,21, 0, 6,50.00,60.00,WinterDesignDay
250,-17.089912507010023
251,33258891.428604092
336,0.0
385,17.586282702939577
386,25.695732344815394
387,-18.499435745813553
388,0.0
425,0.0
450,0.0
451,0.0
452,-19.36227643249631
453,0.0
490,0.0
515,0.0
516,0.0
542,0.0
592,0.0
632,33000000.0
686,1.0
687,1.0
688,2.0
2,1, 1,21, 0, 7, 0.00,10.00,WinterDesignDay
250,-17.089912507070142
251,33258891.428603664
336,0.0
385,17.586282702939577
386,25.695732344815394
387,-18.499436685854395
388,0.0
425,0.0
450,0.0
451,0.0
452,-19.362276563531793
453,0.0
490,0.0
515,0.0
516,0.0
542,0.0
592,0.0
632,33000000.0
686,1.0
687,1.0
688,2.0
2,1, 1,21, 0, 7,10.00,20.00,WinterDesignDay
250,-17.089912507129462
251,33258891.428603232
336,0.0
385,17.586282702939577
386,25.695732344815394
387,-18.499437613638953
388,0.0
425,0.0
450,0.0
451,0.0
452,-19.362276692858593
453,0.0
490,0.0
515,0.0
516,0.0
542,0.0
592,0.0
632,33000000.0
686,1.0
687,1.0
688,2.0
2,1, 1,21, 0, 7,20.00,30.00,WinterDesignDay
250,-17.089912507188
251,33258891.428602815
336,0.0
385,17.586282702939577
386,25.695732344815394
387,-18.49943852932728
388,0.0
425,0.0
450,0.0
451,0.0
452,-19.362276820498984
453,0.0
490,0.0
515,0.0
516,0.0
542,0.0
592,0.0
632,33000000.0
686,1.0
687,1.0
688,2.0
2,1, 1,21, 0, 7,30.00,40.00,WinterDesignDay
250,-17.08991250724576
251,33258891.428602397
336,0.0
385,17.586282702939577
386,25.695732344815394
387,-18.49943943307701
388,0.0
425,0.0
450,0.0
451,0.0
452,-19.362276946474957
453,0.0
490,0.0
515,0.0
516,0.0
542,0.0
592,0.0
632,33000000.0
686,1.0
687,1.0
688,2.0
2,1, 1,21, 0, 7,40.00,50.00,WinterDesignDay
250,-17.089912507302763
251,33258891.42860199
336,0.0
385,17.586282702939577
386,25.695732344815394
387,-18.499440325043825
388,0.0
425,0.0
450,0.0
451,0.0
452,-19.362277070808222
453,0.0
490,0.0
515,0.0
516,0.0
542,0.0
592,0.0
632,33000000.0
686,1.0
687,1.0
688,2.0
2,1, 1,21, 0, 7,50.00,60.00,WinterDesignDay
250,-17.08991250735901
251,33258891.428601585
336,0.0
385,17.586282702939577
386,25.695732344815394
387,-18.499441205381284
388,0.0
425,0.0
450,0.0
451,0.0
452,-19.362277193520203
453,0.0
490,0.0
515,0.0
516,0.0
542,0.0
592,0.0
632,33000000.0
686,1.0
687,1.0
688,2.0
2,1, 1,21, 0, 8, 0.00,10.00,WinterDesignDay
250,-17.089912507414518
251,33258891.42860119
336,0.0
385,17.586282702939577
386,25.695732344815394
387,-18.499442074240886
388,0.0
425,0.0
450,0.0
451,0.0
452,-19.362277314632045
453,0.0
490,0.0
515,0.0
516,0.0
542,0.0
592,0.0
632,33000000.0
686,1.0
687,1.0
688,2.0
2,1, 1,21, 0, 8,10.00,20.00,WinterDesignDay
250,-17.089912507469286
251,33258891.42860079
336,0.0
385,17.586282702939577
386,25.695732344815394
387,-18.499442931772215
388,0.0
425,0.0
450,0.0
451,0.0
452,-19.362277434164614
453,0.0
490,0.0
515,0.0
516,0.0
542,0.0
592,0.0
632,33000000.0
686,1.0
687,1.0
688,2.0
2,1, 1,21, 0, 8,20.00,30.00,WinterDesignDay
250,-17.08991250752333
251,33258891.428600404
336,0.0
385,17.586282702939577
386,25.695732344815394
387,-18.499443778123045
388,0.0
425,0.0
450,0.0
451,0.0
452,-19.362277552138504
453,0.0
490,0.0
515,0.0
516,0.0
542,0.0
592,0.0
632,33000000.0
686,1.0
687,1.0
688,2.0
2,1, 1,21, 0, 8,30.00,40.00,WinterDesignDay
250,-17.089912507576667
251,33258891.428600024
336,0.0
385,17.586282702939577
386,25.695732344815394
387,-18.499444613439326
388,0.0
425,0.0
450,0.0
451,0.0
452,-19.36227766857404
453,0.0
490,0.0
515,0.0
516,0.0
542,0.0
592,0.0
632,33000000.0
686,1.0
687,1.0
688,2.0
2,1, 1,21, 0, 8,40.00,50.00,WinterDesignDay
250,-17.089912507629297
251,33258891.42859965
336,0.0
385,17.586282702939577
386,25.695732344815394
387,-18.49944543786495
388,0.0
425,0.0
450,0.0
451,0.0
452,-19.362277783491287
453,0.0
490,0.0
515,0.0
516,0.0
542,0.0
592,0.0
632,33000000.0
686,1.0
687,1.0
688,2.0
2,1, 1,21, 0, 8,50.00,60.00,WinterDesignDay
250,-17.089912507681234
251,33258891.428599272
336,0.0
385,17.586282702939577
386,25.695732344815394
387,-18.499446251541766
388,0.0
425,0.0
450,0.0
451,0.0
452,-19.362277896910044
453,0.0
490,0.0
515,0.0
516,0.0
542,0.0
592,0.0
632,33000000.0
686,1.0
687,1.0
688,2.0
2,1, 1,21, 0, 9, 0.00,10.00,WinterDesignDay
250,-17.089912507732482
251,33258891.428598907
336,0.0
385,17.586282702939577
386,25.695732344815394
387,-18.49944705460991
388,0.0
425,0.0
450,0.0
451,0.0
452,-19.36227800884985
453,0.0
490,0.0
515,0.0
516,0.0
542,0.0
592,0.0
632,33000000.0
686,1.0
687,1.0
688,2.0
2,1, 1,21, 0, 9,10.00,20.00,WinterDesignDay
250,-17.08991250778306
251,33258891.42859855
336,0.0
385,17.586282702939577
386,25.695732344815394
387,-18.499447847207705
388,0.0
425,0.0
450,0.0
451,0.0
452,-19.362278119329996
453,0.0
490,0.0
515,0.0
516,0.0
542,0.0
592,0.0
632,33000000.0
686,1.0
687,1.0
688,2.0
2,1, 1,21, 0, 9,20.00,30.00,WinterDesignDay
250,-17.089912507832956
251,33258891.42859818
336,0.0
385,17.586282702939577
386,25.695732344815394
387,-18.49944862947157
388,0.0
425,0.0
450,0.0
451,0.0
452,-19.36227822836952
453,0.0
490,0.0
515,0.0
516,0.0
542,0.0
592,0.0
632,33000000.0
686,1.0
687,1.0
688,2.0
2,1, 1,21, 0, 9,30.00,40.00,WinterDesignDay
250,-17.089912507882204
251,33258891.428597827
336,0.0
385,17.586282702939577
386,25.695732344815394
387,-18.499449401536385
388,0.0
425,0.0
450,0.0
451,0.0
452,-19.362278335987202
453,0.0
490,0.0
515,0.0
516,0.0
542,0.0
592,0.0
632,33000000.0
686,1.0
687,1.0
688,2.0
2,1, 1,21, 0, 9,40.00,50.00,WinterDesignDay
250,-17.089912507930805
251,33258891.428597484
336,0.0
385,17.586282702939577
386,25.695732344815394
387,-18.499450163534977
388,0.0
425,0.0
450,0.0
451,0.0
452,-19.36227844220159
453,0.0
490,0.0
515,0.0
516,0.0
542,0.0
592,0.0
632,33000000.0
686,1.0
687,1.0
688,2.0
2,1, 1,21, 0, 9,50.00,60.00,WinterDesignDay
250,-17.08991250797876
251,33258891.42859714
336,0.0
385,17.586282702939577
386,25.695732344815394
387,-18.49945091559848
388,0.0
425,0.0
450,0.0
451,0.0
452,-19.362278547030975
453,0.0
490,0.0
515,0.0
516,0.0
542,0.0
592,0.0
632,33000000.0
686,1.0
687,1.0
688,2.0
2,1, 1,21, 0,10, 0.00,10.00,WinterDesignDay
250,-17.089912508026085
251,33258891.428596802
336,0.0
385,17.586282702939577
386,25.695732344815394
387,-18.49945165785656
388,0.0
425,0.0
450,0.0
451,0.0
452,-19.362278650493426
453,0.0
490,0.0
515,0.0
516,0.0
542,0.0
592,0.0
632,33000000.0
686,1.0
687,1.0
688,2.0
2,1, 1,21, 0,10,10.00,20.00,WinterDesignDay
250,-17.08991250807278
251,33258891.428596467
336,0.0
385,17.586282702939577
386,25.695732344815394
387,-18.499452390437057
388,0.0
425,0.0
450,0.0
451,0.0
452,-19.36227875260677
453,0.0
490,0.0
515,0.0
516,0.0
542,0.0
592,0.0
632,33000000.0
686,1.0
687,1.0
688,2.0
2,1, 1,21, 0,10,20.00,30.00,WinterDesignDay
250,-17.089912508118864
251,33258891.42859614
336,0.0
385,17.586282702939577
386,25.695732344815394
387,-18.49945311346624
388,0.0
425,0.0
450,0.0
451,0.0
452,-19.362278853388595
453,0.0
490,0.0
515,0.0
516,0.0
542,0.0
592,0.0
632,33000000.0
686,1.0
687,1.0
688,2.0
2,1, 1,21, 0,10,30.00,40.00,WinterDesignDay
250,-17.089912508164335
251,33258891.428595807
336,0.0
385,17.586282702939577
386,25.695732344815394
387,-18.499453827068713
388,0.0
425,0.0
450,0.0
451,0.0
452,-19.362278952856265
453,0.0
490,0.0
515,0.0
516,0.0
542,0.0
592,0.0
632,33000000.0
686,1.0
687,1.0
688,2.0
2,1, 1,21, 0,10,40.00,50.00,WinterDesignDay
250,-17.089912508209213
251,33258891.42859549
336,0.0
385,17.586282702939577
386,25.695732344815394
387,-18.49945453136722
388,0.0
425,0.0
450,0.0
451,0.0
452,-19.362279051026917
453,0.0
490,0.0
515,0.0
516,0.0
542,0.0
592,0.0
632,33000000.0
686,1.0
687,1.0
688,2.0
2,1, 1,21, 0,10,50.00,60.00,WinterDesignDay
250,-17.089912508253498
251,33258891.42859517
336,0.0
385,17.586282702939577
386,25.695732344815394
387,-18.499455226483025
388,0.0
425,0.0
450,0.0
451,0.0
452,-19.362279147917466
453,0.0
490,0.0
515,0.0
516,0.0
542,0.0
592,0.0
632,33000000.0
686,1.0
687,1.0
688,2.0
2,1, 1,21, 0,11, 0.00,10.00,WinterDesignDay
250,-17.089912508297196
251,33258891.428594857
336,0.0
385,17.586282702939577
386,25.695732344815394
387,-18.499455912535904
388,0.0
425,0.0
450,0.0
451,0.0
452,-19.362279243544606
453,0.0
490,0.0
515,0.0
516,0.0
542,0.0
592,0.0
632,33000000.0
686,1.0
687,1.0
688,2.0
2,1, 1,21, 0,11,10.00,20.00,WinterDesignDay
250,-17.089912508340326
251,33258891.42859455
336,0.0
385,17.586282702939577
386,25.695732344815394
387,-18.499456589644048
388,0.0
425,0.0
450,0.0
451,0.0
452,-19.362279337924814
453,0.0
490,0.0
515,0.0
516,0.0
542,0.0
592,0.0
632,33000000.0
686,1.0
687,1.0
688,2.0
2,1, 1,21, 0,11,20.00,30.00,WinterDesignDay
250,-17.089912508382874
251,33258891.42859424
336,0.0
385,17.586282702939577
386,25.695732344815394
387,-18.499457257924103
388,0.0
425,0.0
450,0.0
451,0.0
452,-19.36227943107435
453,0.0
490,0.0
515,0.0
516,0.0
542,0.0
592,0.0
632,33000000.0
686,1.0
687,1.0
688,2.0
2,1, 1,21, 0,11,30.00,40.00,WinterDesignDay
250,-17.089912508424874
251,33258891.428593945
336,0.0
385,17.586282702939577
386,25.695732344815394
387,-18.499457917491252
388,0.0
425,0.0
450,0.0
451,0.0
452,-19.36227952300926
453,0.0
490,0.0
515,0.0
516,0.0
542,0.0
592,0.0
632,33000000.0
686,1.0
687,1.0
688,2.0
2,1, 1,21, 0,11,40.00,50.00,WinterDesignDay
250,-17.089912508466316
251,33258891.42859365
336,0.0
385,17.586282702939577
386,25.695732344815394
387,-18.499458568459
388,0.0
425,0.0
450,0.0
451,0.0
452,-19.362279613745383
453,0.0
490,0.0
515,0.0
516,0.0
542,0.0
592,0.0
632,33000000.0
686,1.0
687,1.0
688,2.0
2,1, 1,21, 0,11,50.00,60.00,WinterDesignDay
250,-17.089912508507208
251,33258891.428593356
336,0.0
385,17.586282702939577
386,25.695732344815394
387,-18.499459210939328
388,0.0
425,0.0
450,0.0
451,0.0
452,-19.36227970329836
453,0.0
490,0.0
515,0.0
516,0.0
542,0.0
592,0.0
632,33000000.0
686,1.0
687,1.0
688,2.0
2,1, 1,21, 0,12, 0.00,10.00,WinterDesignDay
250,-17.08991250854756
251,33258891.428593066
336,0.0
385,17.586282702939577
386,25.695732344815394
387,-18.499459845042797
388,0.0
425,0.0
450,0.0
451,0.0
452,-19.362279791683612
453,0.0
490,0.0
515,0.0
516,0.0
542,0.0
592,0.0
632,33000000.0
686,1.0
687,1.0
688,2.0
2,1, 1,21, 0,12,10.00,20.00,WinterDesignDay
250,-17.08991250858739
251,33258891.428592782
336,0.0
385,17.586282702939577
386,25.695732344815394
387,-18.499460470878816
388,0.0
425,0.0
450,0.0
451,0.0
452,-19.36227987891637
453,0.0
490,0.0
515,0.0
516,0.0
542,0.0
592,0.0
632,33000000.0
686,1.0
687,1.0
688,2.0
2,1, 1,21, 0,12,20.00,30.00,WinterDesignDay
250,-17.089912508626686
251,33258891.428592503
336,0.0
385,17.586282702939577
386,25.695732344815394
387,-18.499461088555343
388,0.0
425,0.0
450,0.0
451,0.0
452,-19.362279965011666
453,0.0
490,0.0
515,0.0
516,0.0
542,0.0
592,0.0
632,33000000.0
686,1.0
687,1.0
688,2.0
2,1, 1,21, 0,12,30.00,40.00,WinterDesignDay
250,-17.08991250866547
251,33258891.428592224
336,0.0
385,17.586282702939577
386,25.695732344815394
387,-18.499461698178493
388,0.0
425,0.0
450,0.0
451,0.0
452,-19.362280049984328
453,0.0
490,0.0
515,0.0
516,0.0
542,0.0
592,0.0
632,33000000.0
686,1.0
687,1.0
688,2.0
2,1, 1,21, 0,12,40.00,50.00,WinterDesignDay
250,-17.08991250870374
251,33258891.428591948
336,0.0
385,17.586282702939577
386,25.695732344815394
387,-18.499462299853263
388,0.0
425,0.0
450,0.0
451,0.0
452,-19.362280133848994
453,0.0
490,0.0
515,0.0
516,0.0
542,0.0
592,0.0
632,33000000.0
686,1.0
687,1.0
688,2.0
2,1, 1,21, 0,12,50.00,60.00,WinterDesignDay
250,-17.08991250874151
251,33258891.42859168
336,0.0
385,17.586282702939577
386,25.695732344815394
387,-18.499462893683315
388,0.0
425,0.0
450,0.0
451,0.0
452,-19.362280216620114
453,0.0
490,0.0
515,0.0
516,0.0
542,0.0
592,0.0
632,33000000.0
686,1.0
687,1.0
688,2.0
2,1, 1,21, 0,13, 0.00,10.00,WinterDesignDay
250,-17.089912508778777
251,33258891.42859141
336,0.0
385,17.586282702939577
386,25.695732344815394
387,-18.499463479770935
388,0.0
425,0.0
450,0.0
451,0.0
452,-19.362280298311955
453,0.0
490,0.0
515,0.0
516,0.0
542,0.0
592,0.0
632,33000000.0
686,1.0
687,1.0
688,2.0
2,1, 1,21, 0,13,10.00,20.00,WinterDesignDay
250,-17.089912508815555
251,33258891.428591143
336,0.0
385,17.586282702939577
386,25.695732344815394
387,-18.49946405821726
388,0.0
425,0.0
450,0.0
451,0.0
452,-19.36228037893858
453,0.0
490,0.0
515,0.0
516,0.0
542,0.0
592,0.0
632,33000000.0
686,1.0
687,1.0
688,2.0
2,1, 1,21, 0,13,20.00,30.00,WinterDesignDay
250,-17.089912508851853
251,33258891.42859089
336,0.0
385,17.586282702939577
386,25.695732344815394
387,-18.499464629121714
388,0.0
425,0.0
450,0.0
451,0.0
452,-19.362280458513876
453,0.0
490,0.0
515,0.0
516,0.0
542,0.0
592,0.0
632,33000000.0
686,1.0
687,1.0
688,2.0
2,1, 1,21, 0,13,30.00,40.00,WinterDesignDay
250,-17.089912508887668
251,33258891.42859063
336,0.0
385,17.586282702939577
386,25.695732344815394
387,-18.499465192582498
388,0.0
425,0.0
450,0.0
451,0.0
452,-19.362280537051568
453,0.0
490,0.0
515,0.0
516,0.0
542,0.0
592,0.0
632,33000000.0
686,1.0
687,1.0
688,2.0
2,1, 1,21, 0,13,40.00,50.00,WinterDesignDay
250,-17.089912508923014
251,33258891.42859038
336,0.0
385,17.586282702939577
386,25.695732344815394
387,-18.499465748696974
388,0.0
425,0.0
450,0.0
451,0.0
452,-19.362280614565183
453,0.0
490,0.0
515,0.0
516,0.0
542,0.0
592,0.0
632,33000000.0
686,1.0
687,1.0
688,2.0
2,1, 1,21, 0,13,50.00,60.00,WinterDesignDay
250,-17.089912508957894
251,33258891.42859013
336,0.0
385,17.586282702939577
386,25.695732344815394
387,-18.499466297561078
388,0.0
425,0.0
450,0.0
451,0.0
452,-19.362280691068065
453,0.0
490,0.0
515,0.0
516,0.0
542,0.0
592,0.0
632,33000000.0
686,1.0
687,1.0
688,2.0
2,1, 1,21, 0,14, 0.00,10.00,WinterDesignDay
250,-17.08991250899231
251,33258891.428589877
336,0.0
385,17.586282702939577
386,25.695732344815394
387,-18.499466839269065
388,0.0
425,0.0
450,0.0
451,0.0
452,-19.3622807665734
453,0.0
490,0.0
515,0.0
516,0.0
542,0.0
592,0.0
632,33000000.0
686,1.0
687,1.0
688,2.0
2,1, 1,21, 0,14,10.00,20.00,WinterDesignDay
250,-17.08991250902628
251,33258891.428589646
336,0.0
385,17.586282702939577
386,25.695732344815394
387,-18.49946737391405
388,0.0
425,0.0
450,0.0
451,0.0
452,-19.362280841094197
453,0.0
490,0.0
515,0.0
516,0.0
542,0.0
592,0.0
632,33000000.0
686,1.0
687,1.0
688,2.0
2,1, 1,21, 0,14,20.00,30.00,WinterDesignDay
250,-17.089912509059804
251,33258891.428589404
336,0.0
385,17.586282702939577
386,25.695732344815394
387,-18.499467901588144
388,0.0
425,0.0
450,0.0
451,0.0
452,-19.362280914643296
453,0.0
490,0.0
515,0.0
516,0.0
542,0.0
592,0.0
632,33000000.0
686,1.0
687,1.0
688,2.0
2,1, 1,21, 0,14,30.00,40.00,WinterDesignDay
250,-17.08991250909288
251,33258891.42858916
336,0.0
385,17.586282702939577
386,25.695732344815394
387,-18.49946842238245
388,0.0
425,0.0
450,0.0
451,0.0
452,-19.362280987233373
453,0.0
490,0.0
515,0.0
516,0.0
542,0.0
592,0.0
632,33000000.0
686,1.0
687,1.0
688,2.0
2,1, 1,21, 0,14,40.00,50.00,WinterDesignDay
250,-17.08991250912553
251,33258891.428588934
336,0.0
385,17.586282702939577
386,25.695732344815394
387,-18.499468936386688
388,0.0
425,0.0
450,0.0
451,0.0
452,-19.362281058876924
453,0.0
490,0.0
515,0.0
516,0.0
542,0.0
592,0.0
632,33000000.0
686,1.0
687,1.0
688,2.0
2,1, 1,21, 0,14,50.00,60.00,WinterDesignDay
250,-17.08991250915774
251,33258891.428588696
336,0.0
385,17.586282702939577
386,25.695732344815394
387,-18.49946944368924
388,0.0
425,0.0
450,0.0
451,0.0
452,-19.362281129586293
453,0.0
490,0.0
515,0.0
516,0.0
542,0.0
592,0.0
632,33000000.0
686,1.0
687,1.0
688,2.0
2,1, 1,21, 0,15, 0.00,10.00,WinterDesignDay
250,-17.089912509189535
251,33258891.428588476
336,0.0
385,17.586282702939577
386,25.695732344815394
387,-18.49946994437753
388,0.0
425,0.0
450,0.0
451,0.0
452,-19.362281199373662
453,0.0
490,0.0
515,0.0
516,0.0
542,0.0
592,0.0
632,33000000.0
686,1.0
687,1.0
688,2.0
2,1, 1,21, 0,15,10.00,20.00,WinterDesignDay
250,-17.08991250922091
251,33258891.42858825
336,0.0
385,17.586282702939577
386,25.695732344815394
387,-18.499470438537834
388,0.0
425,0.0
450,0.0
451,0.0
452,-19.36228126825106
453,0.0
490,0.0
515,0.0
516,0.0
542,0.0
592,0.0
632,33000000.0
686,1.0
687,1.0
688,2.0
2,1, 1,21, 0,15,20.00,30.00,WinterDesignDay
250,-17.089912509251867
251,33258891.428588033
336,0.0
385,17.586282702939577
386,25.695732344815394
387,-18.499470926255405
388,0.0
425,0.0
450,0.0
451,0.0
452,-19.362281336230346
453,0.0
490,0.0
515,0.0
516,0.0
542,0.0
592,0.0
632,33000000.0
686,1.0
687,1.0
688,2.0
2,1, 1,21, 0,15,30.00,40.00,WinterDesignDay
250,-17.08991250928242
251,33258891.42858781
336,0.0
385,17.586282702939577
386,25.695732344815394
387,-18.499471407614045
388,0.0
425,0.0
450,0.0
451,0.0
452,-19.362281403323234
453,0.0
490,0.0
515,0.0
516,0.0
542,0.0
592,0.0
632,33000000.0
686,1.0
687,1.0
688,2.0
2,1, 1,21, 0,15,40.00,50.00,WinterDesignDay
250,-17.08991250931257
251,33258891.42858759
336,0.0
385,17.586282702939577
386,25.695732344815394
387,-18.499471882696525
388,0.0
425,0.0
450,0.0
451,0.0
452,-19.362281469541283
453,0.0