Program Version,EnergyPlus, Version 24.2.0-94a887817b, YMD=2025.02.04 15:39
1,5,Environment Title[],Latitude[deg],Longitude[deg],Time Zone[],Elevation[m]
2,8,Day of Simulation[],Month[],Day of Month[],DST Indicator[1=yes 0=no],Hour[],StartMinute[],EndMinute[],DayType
3,5,Cumulative Day of Simulation[],Month[],Day of Month[],DST Indicator[1=yes 0=no],DayType  ! When Daily Report Variables Requested
4,2,Cumulative Days of Simulation[],Month[]  ! When Monthly Report Variables Requested
5,1,Cumulative Days of Simulation[] ! When Run Period Report Variables Requested
6,1,Calendar Year of Simulation[] ! When Annual Report Variables Requested
250,1,LIVING ZONE,Zone Air Temperature [C] !TimeStep,REPORTSCH
251,1,LIVING ZONE,Zone Air System Sensible Heating Energy [J] !TimeStep,REPORTSCH
336,1,LIVING ZONE,Zone Air System Sensible Cooling Energy [J] !TimeStep,REPORTSCH
385,1,LIVING ZONE,Zone Thermostat Heating Setpoint Temperature [C] !TimeStep,REPORTSCH
386,1,LIVING ZONE,Zone Thermostat Cooling Setpoint Temperature [C] !TimeStep,REPORTSCH
387,1,GARAGE ZONE,Zone Air Temperature [C] !TimeStep,REPORTSCH
388,1,GARAGE ZONE,Zone Air System Sensible Heating Energy [J] !TimeStep,REPORTSCH
425,1,GARAGE ZONE,Zone Air System Sensible Cooling Energy [J] !TimeStep,REPORTSCH
450,1,GARAGE ZONE,Zone Thermostat Heating Setpoint Temperature [C] !TimeStep,REPORTSCH
451,1,GARAGE ZONE,Zone Thermostat Cooling Setpoint Temperature [C] !TimeStep,REPORTSCH
452,1,ATTIC ZONE,Zone Air Temperature [C] !TimeStep,REPORTSCH
453,1,ATTIC ZONE,Zone Air System Sensible Heating Energy [J] !TimeStep,REPORTSCH
490,1,ATTIC ZONE,Zone Air System Sensible Cooling Energy [J] !TimeStep,REPORTSCH
515,1,ATTIC ZONE,Zone Thermostat Heating Setpoint Temperature [C] !TimeStep,REPORTSCH
516,1,ATTIC ZONE,Zone Thermostat Cooling Setpoint Temperature [C] !TimeStep,REPORTSCH
542,1,ACDXCOIL 1,Cooling Coil Total Cooling Energy [J] !TimeStep,REPORTSCH
592,1,HEAT PUMP DX HEATING COIL 1,Heating Coil Heating Energy [J] !TimeStep,REPORTSCH
632,1,SUPP HEATING COIL 1,Heating Coil Heating Energy [J] !TimeStep,REPORTSCH
686,1,TWOSPEED HEAT PUMP 1,Unitary System DX Coil Cycling Ratio [] !TimeStep,REPORTSCH
687,1,TWOSPEED HEAT PUMP 1,Unitary System DX Coil Speed Ratio [] !TimeStep,REPORTSCH
688,1,TWOSPEED HEAT PUMP 1,Unitary System DX Coil Speed Level [] !TimeStep,REPORTSCH
End of Data Dictionary
1,RUN PERIOD 1,  41.98, -87.92,  -6.00, 201.00
2,21, 1,21, 0, 1, 0.00,10.00,Monday
250,-0.8543425573075435
251,38098153.435509354
336,0.0
385,17.66353413746422
386,27.949951776595505
387,-0.9480881047095803
388,0.0
425,0.0
450,0.0
451,0.0
452,-1.9755079469891799
453,0.0
490,0.0
515,0.0
516,0.0
542,0.0
592,4839743.985079641
632,33000000.0
686,1.0
687,1.0
688,2.0
2,21, 1,21, 0, 1,10.00,20.00,Monday
250,-0.8544843454226098
251,38082769.43101891
336,0.0
385,17.66353413746422
386,27.949951776595505
387,-0.9564473847802026
388,0.0
425,0.0
450,0.0
451,0.0
452,-1.9573601532108764
453,0.0
490,0.0
515,0.0
516,0.0
542,0.0
592,4823801.676011793
632,33000000.0
686,1.0
687,1.0
688,2.0
2,21, 1,21, 0, 1,20.00,30.00,Monday
250,-0.8546612659775188
251,38066844.834325716
336,0.0
385,17.66353413746422
386,27.949951776595505
387,-0.9660426619730555
388,0.0
425,0.0
450,0.0
451,0.0
452,-1.954282170186496
453,0.0
490,0.0
515,0.0
516,0.0
542,0.0
592,4807858.16290522
632,33000000.0
686,1.0
687,1.0
688,2.0
2,21, 1,21, 0, 1,30.00,40.00,Monday
250,-0.8548344388022773
251,38050898.1035463
336,0.0
385,17.66353413746422
386,27.949951776595505
387,-0.9770786498643359
388,0.0
425,0.0
450,0.0
451,0.0
452,-1.9671580423210537
453,0.0
490,0.0
515,0.0
516,0.0
542,0.0
592,4791913.445623511
632,33000000.0
686,1.0
687,1.0
688,2.0
2,21, 1,21, 0, 1,40.00,50.00,Monday
250,-0.8550088915549658
251,38034952.875093095
336,0.0
385,17.66353413746422
386,27.949951776595505
387,-0.989712608987769
388,0.0
425,0.0
450,0.0
451,0.0
452,-1.9943663166652974
453,0.0
490,0.0
515,0.0
516,0.0
542,0.0
592,4775967.524030239
632,33000000.0
686,1.0
687,1.0
688,2.0
2,21, 1,21, 0, 1,50.00,60.00,Monday
250,-0.855183883375379
251,38019006.043368004
336,0.0
385,17.66353413746422
386,27.949951776595505
387,-1.0041333041027172
388,0.0
425,0.0
450,0.0
451,0.0
452,-2.0343783361124137
453,0.0
490,0.0
515,0.0
516,0.0
542,0.0
592,4760020.397988958
632,33000000.0
686,1.0
687,1.0
688,2.0
2,21, 1,21, 0, 2, 0.00,10.00,Monday
250,-0.8552559876018977
251,38018950.64966092
336,0.0
385,17.66353413746422
386,27.949951776595505
387,-1.019657876559059
388,0.0
425,0.0
450,0.0
451,0.0
452,-2.081148049625558
453,0.0
490,0.0
515,0.0
516,0.0
542,0.0
592,4760020.397988958
632,33000000.0
686,1.0
687,1.0
688,2.0
2,21, 1,21, 0, 2,10.00,20.00,Monday
250,-0.8553257742064251
251,38018949.40179924
336,0.0
385,17.66353413746422
386,27.949951776595505
387,-1.0353429297913108
388,0.0
425,0.0
450,0.0
451,0.0
452,-2.123883731246447
453,0.0
490,0.0
515,0.0
516,0.0
542,0.0
592,4760020.397988958
632,33000000.0
686,1.0
687,1.0
688,2.0
2,21, 1,21, 0, 2,20.00,30.00,Monday
250,-0.8553953375332876
251,38018949.28157313
336,0.0
385,17.66353413746422
386,27.949951776595505
387,-1.0506345358205764
388,0.0
425,0.0
450,0.0
451,0.0
452,-2.1553551786856984
453,0.0
490,0.0
515,0.0
516,0.0
542,0.0
592,4760020.397988956
632,33000000.0
686,1.0
687,1.0
688,2.0
2,21, 1,21, 0, 2,30.00,40.00,Monday
250,-0.855463565551816
251,38018948.56260421
336,0.0
385,17.66353413746422
386,27.949951776595505
387,-1.0652112880661413
388,0.0
425,0.0
450,0.0
451,0.0
452,-2.1747385817430285
453,0.0
490,0.0
515,0.0
516,0.0
542,0.0
592,4760020.397988958
632,33000000.0
686,1.0
687,1.0
688,2.0
2,21, 1,21, 0, 2,40.00,50.00,Monday
250,-0.8555307758892101
251,38018948.01465376
336,0.0
385,17.66353413746422
386,27.949951776595505
387,-1.0789327754175946
388,0.0
425,0.0
450,0.0
451,0.0
452,-2.18487908478173
453,0.0
490,0.0
515,0.0
516,0.0
542,0.0
592,4760020.397988956
632,33000000.0
686,1.0
687,1.0
688,2.0
2,21, 1,21, 0, 2,50.00,60.00,Monday
250,-0.8555967944986907
251,38018947.37299113
336,0.0
385,17.66353413746422
386,27.949951776595505
387,-1.0917616554745495
388,0.0
425,0.0
450,0.0
451,0.0
452,-2.18892548354204
453,0.0
490,0.0
515,0.0
516,0.0
542,0.0
592,4760020.397988956
632,33000000.0
686,1.0
687,1.0
688,2.0
2,21, 1,21, 0, 3, 0.00,10.00,Monday
250,-0.7732010985364296
251,37977085.96961789
336,0.0
385,17.66353413746422
386,27.949951776595505
387,-1.0933081110377743
388,0.0
425,0.0
450,0.0
451,0.0
452,-2.1814447644379427
453,0.0
490,0.0
515,0.0
516,0.0
542,0.0
592,4762558.894114006
632,33000000.0
686,1.0
687,1.0
688,2.0
2,21, 1,21, 0, 3,10.00,20.00,Monday
250,-0.6896576654750438
251,37978895.69901018
336,0.0
385,17.66353413746422
386,27.949951776595505
387,-1.0822579539165829
388,0.0
425,0.0
450,0.0
451,0.0
452,-2.156461056003056
453,0.0
490,0.0
515,0.0
516,0.0
542,0.0
592,4764988.4357309695
632,33000000.0
686,1.0
687,1.0
688,2.0
2,21, 1,21, 0, 3,20.00,30.00,Monday
250,-0.6065181326017148
251,37981431.13048576
336,0.0
385,17.66353413746422
386,27.949951776595505
387,-1.0630181106375205
388,0.0
425,0.0
450,0.0
451,0.0
452,-2.1125267965338344
453,0.0
490,0.0
515,0.0
516,0.0
542,0.0
592,4767308.250738335
632,33000000.0
686,1.0
687,1.0
688,2.0
2,21, 1,21, 0, 3,30.00,40.00,Monday
250,-0.5233197956574392
251,37976619.15383983
336,0.0
385,17.66353413746422
386,27.949951776595505
387,-1.0393833557590282
388,0.0
425,0.0
450,0.0
451,0.0
452,-2.052775439592454
453,0.0
490,0.0
515,0.0
516,0.0
542,0.0
592,4769517.689516207
632,32993012.117751744
686,1.0
687,1.0
688,2.0
2,21, 1,21, 0, 3,40.00,50.00,Monday
250,-0.44034196619230603
251,37933529.94469864
336,0.0
385,17.66353413746422
386,27.949951776595505
387,-1.0126577965506374
388,0.0
425,0.0
450,0.0
451,0.0
452,-1.9816919088282483
453,0.0
490,0.0
515,0.0
516,0.0
542,0.0
592,4771616.115684971
632,32947707.61761896
686,1.0
687,1.0
688,2.0
2,21, 1,21, 0, 3,50.00,60.00,Monday
250,-0.3573533673207627
251,37890441.72695468
336,0.0
385,17.66353413746422
386,27.949951776595505
387,-0.9825834499715699
388,0.0
425,0.0
450,0.0
451,0.0
452,-1.902894298255854
453,0.0
490,0.0
515,0.0
516,0.0
542,0.0
592,4773602.736238396
632,32902640.469411097
686,1.0
687,1.0
688,2.0
2,21, 1,21, 0, 4, 0.00,10.00,Monday
250,-0.3567923943301528
251,37891752.90544587
336,0.0
385,17.66353413746422
386,27.949951776595505
387,-0.9598517536741481
388,0.0
425,0.0
450,0.0
451,0.0
452,-1.8266715745763171
453,0.0
490,0.0
515,0.0
516,0.0
542,0.0
592,4773428.98237163
632,32859734.61529632
686,1.0
687,1.0
688,2.0
2,21, 1,21, 0, 4,10.00,20.00,Monday
250,-0.35710194969913106
251,37891973.968322664
336,0.0
385,17.66353413746422
386,27.949951776595505
387,-0.9472689543822612
388,0.0
425,0.0
450,0.0
451,0.0
452,-1.7620643028847036
453,0.0
490,0.0
515,0.0
516,0.0
542,0.0
592,4773255.169447956
632,32859660.654170036
686,1.0
687,1.0
688,2.0
2,21, 1,21, 0, 4,20.00,30.00,Monday
250,-0.3569844780566772
251,37891942.95509366
336,0.0
385,17.66353413746422
386,27.949951776595505
387,-0.9412992581146273
388,0.0
425,0.0
450,0.0
451,0.0
452,-1.7126763695042664
453,0.0
490,0.0
515,0.0
516,0.0
542,0.0
592,4773081.297437258
632,32860033.49542318
686,1.0
687,1.0
688,2.0
2,21, 1,21, 0, 4,30.00,40.00,Monday
250,-0.35695811506598585
251,37891969.13130523
336,0.0
385,17.66353413746422
386,27.949951776595505
387,-0.9380611945267051
388,0.0
425,0.0
450,0.0
451,0.0
452,-1.6768471280160966
453,0.0
490,0.0
515,0.0
516,0.0
542,0.0
592,4772907.3663094025
632,32860184.534673676
686,1.0
687,1.0
688,2.0
2,21, 1,21, 0, 4,40.00,50.00,Monday
250,-0.3569369604055862
251,37891996.49105677
336,0.0
385,17.66353413746422
386,27.949951776595505
387,-0.9357708427508703
388,0.0
425,0.0
450,0.0
451,0.0
452,-1.6509055662475116
453,0.0
490,0.0
515,0.0
516,0.0
542,0.0
592,4772733.376034233
632,32860383.079674754
686,1.0
687,1.0
688,2.0
2,21, 1,21, 0, 4,50.00,60.00,Monday
250,-0.3569154453806142
251,37892023.57645128
336,0.0
385,17.66353413746422
386,27.949951776595505
387,-0.934254977992863
388,0.0
425,0.0
450,0.0
451,0.0
452,-1.631794019824295
453,0.0
490,0.0
515,0.0
516,0.0
542,0.0
592,4772559.326581574
632,32860584.40861458
686,1.0
687,1.0
688,2.0
2,21, 1,21, 0, 5, 0.00,10.00,Monday
250,-0.35689525224506186
251,37892051.404086016
336,0.0
385,17.66353413746422
386,27.949951776595505
387,-0.9335723615347331
388,0.0
425,0.0
450,0.0
451,0.0
452,-1.6168972688618402
453,0.0
490,0.0
515,0.0
516,0.0
542,0.0
592,4759720.858689582
632,32873449.992224313
686,1.0
687,1.0
688,2.0
2,21, 1,21, 0, 5,10.00,20.00,Monday
250,-0.35686733691191674
251,37893351.61527087
336,0.0
385,17.66353413746422
386,27.949951776595505
387,-0.9335876930799488
388,0.0
425,0.0
450,0.0
451,0.0
452,-1.6039043837902323
453,0.0
490,0.0
515,0.0
516,0.0
542,0.0
592,4746877.262331866
632,32887597.95922592
686,1.0
687,1.0
688,2.0
2,21, 1,21, 0, 5,20.00,30.00,Monday
250,-0.3568393916865434
251,37894670.40299308
336,0.0
385,17.66353413746422
386,27.949951776595505
387,-0.9340708690058985
388,0.0
425,0.0
450,0.0
451,0.0
452,-1.5914138746903161
453,0.0
490,0.0
515,0.0
516,0.0
542,0.0
592,4734028.534436011
632,32901765.491473373
686,1.0
687,1.0
688,2.0
2,21, 1,21, 0, 5,30.00,40.00,Monday
250,-0.35681159636244936
251,37895983.17241875
336,0.0
385,17.66353413746422
386,27.949951776595505
387,-0.9348176925735616
388,0.0
425,0.0
450,0.0
451,0.0
452,-1.5789929243118328
453,0.0
490,0.0
515,0.0
516,0.0
542,0.0
592,4721174.671927154
632,32915932.043194596
686,1.0
687,1.0
688,2.0
2,21, 1,21, 0, 5,40.00,50.00,Monday
250,-0.35678375591037614
251,37897297.78457126
336,0.0
385,17.66353413746422
386,27.949951776595505
387,-0.93569201601615
388,0.0
425,0.0
450,0.0
451,0.0
452,-1.5667108664542648
453,0.0
490,0.0
515,0.0
516,0.0
542,0.0
592,4708315.671727969
632,32930105.68037951
686,1.0
687,1.0
688,2.0
2,21, 1,21, 0, 5,50.00,60.00,Monday
250,-0.35675580336216944
251,37898612.94182095
336,0.0
385,17.66353413746422
386,27.949951776595505
387,-0.9366147391207634
388,0.0
425,0.0
450,0.0
451,0.0
452,-1.5547189277346514
453,0.0
490,0.0
515,0.0
516,0.0
542,0.0
592,4695451.530758674
632,32944285.03950695
686,1.0
687,1.0
688,2.0
2,21, 1,21, 0, 6, 0.00,10.00,Monday
250,-0.35672658906202775
251,37899927.93475093
336,0.0
385,17.66353413746422
386,27.949951776595505
387,-0.9376727375465971
388,0.0
425,0.0
450,0.0
451,0.0
452,-1.543714436954649
453,0.0
490,0.0
515,0.0
516,0.0
542,0.0
592,4695264.082255858
632,32945788.16115196
686,1.0
687,1.0
688,2.0
2,21, 1,21, 0, 6,10.00,20.00,Monday
250,-0.35670533733301707
251,37899969.4635805
336,0.0
385,17.66353413746422
386,27.949951776595505
387,-0.9389493876605474
388,0.0
425,0.0
450,0.0
451,0.0
452,-1.5345116740057052
453,0.0
490,0.0
515,0.0
516,0.0
542,0.0
592,4695076.569900009
632,32946012.913056724
686,1.0
687,1.0
688,2.0
2,21, 1,21, 0, 6,20.00,30.00,Monday
250,-0.35668413925491355
251,37899992.94080035
336,0.0
385,17.66353413746422
386,27.949951776595505
387,-0.9404387166420493
388,0.0
425,0.0
450,0.0
451,0.0
452,-1.5274349762551365
453,0.0
490,0.0
515,0.0
516,0.0
542,0.0
592,4694888.993658494
632,32946223.937627763
686,1.0
687,1.0
688,2.0
2,21, 1,21, 0, 6,30.00,40.00,Monday
250,-0.35666258637034937
251,37900022.87677777
336,0.0
385,17.66353413746422
386,27.949951776595505
387,-0.9420984278058084
388,0.0
425,0.0
450,0.0
451,0.0
452,-1.5222756564570752
453,0.0
490,0.0
515,0.0
516,0.0
542,0.0
592,4694701.353498662
632,32946441.70490617
686,1.0
687,1.0
688,2.0
2,21, 1,21, 0, 6,40.00,50.00,Monday
250,-0.35664068954083017
251,37900051.301130354
336,0.0
385,17.66353413746422
386,27.949951776595505
387,-0.943896464269023
388,0.0
425,0.0
450,0.0
451,0.0
452,-1.5185850578305402
453,0.0
490,0.0
515,0.0
516,0.0
542,0.0
592,4694513.649387832
632,32946658.018659823
686,1.0
687,1.0
688,2.0
2,21, 1,21, 0, 6,50.00,60.00,Monday
250,-0.3566186109089998
251,37900079.56471453
336,0.0
385,17.66353413746422
386,27.949951776595505
387,-0.9458156289547157
388,0.0
425,0.0
450,0.0
451,0.0
452,-1.5159439780667094
453,0.0
490,0.0
515,0.0
516,0.0
542,0.0
592,4694325.88129331
632,32946874.148285262
686,1.0
687,1.0
688,2.0
2,21, 1,21, 0, 7, 0.00,10.00,Monday
250,-0.3571758586773176
251,37900419.93100072
336,0.0
385,17.66353413746422
386,27.949951776595505
387,-0.9502769083273835
388,0.0
425,0.0
450,0.0
451,0.0
452,-1.519220534453008
453,0.0
490,0.0
515,0.0
516,0.0
542,0.0
592,4723573.583255435
632,32917654.737647705
686,1.0
687,1.0
688,2.0
2,21, 1,21, 0, 7,10.00,20.00,Monday
250,-0.35715530938501605
251,37897502.90375503
336,0.0
385,17.66353413746422
386,27.949951776595505
387,-0.9594530706695633
388,0.0
425,0.0
450,0.0
451,0.0
452,-1.5378899006514575
453,0.0
490,0.0
515,0.0
516,0.0
542,0.0
592,4752837.186047653
632,32885785.35790161
686,1.0
687,1.0
688,2.0
2,21, 1,21, 0, 7,20.00,30.00,Monday
250,-0.3571214720792804
251,37894535.44323569
336,0.0
385,17.66353413746422
386,27.949951776595505
387,-0.9735853007547911
388,0.0
425,0.0
450,0.0
451,0.0
452,-1.5773204650998036
453,0.0
490,0.0
515,0.0
516,0.0
542,0.0
592,4782116.702651945
632,32853545.536876474
686,1.0
687,1.0
688,2.0
2,21, 1,21, 0, 7,30.00,40.00,Monday
250,-0.35709030589121943
251,37891583.124971494
336,0.0
385,17.66353413746422
386,27.949951776595505
387,-0.9917193282564014
388,0.0
425,0.0
450,0.0
451,0.0
452,-1.635124732114852
453,0.0
490,0.0
515,0.0
516,0.0
542,0.0
592,4811412.146064445
632,32821296.33522824
686,1.0
687,1.0
688,2.0
2,21, 1,21, 0, 7,40.00,50.00,Monday
250,-0.3570580253801841
251,37888625.528713696
336,0.0
385,17.66353413746422
386,27.949951776595505
387,-1.0127768725522355
388,0.0
425,0.0
450,0.0
451,0.0
452,-1.7050478428388687
453,0.0
490,0.0
515,0.0
516,0.0
542,0.0
592,4840723.52929546
632,32789027.954521295
686,1.0
687,1.0
688,2.0
2,21, 1,21, 0, 7,50.00,60.00,Monday
250,-0.3570253211841855
251,37885665.93668417
336,0.0
385,17.66353413746422
386,27.949951776595505
387,-1.036011208022629
388,0.0
425,0.0
450,0.0
451,0.0
452,-1.7813986240090274
453,0.0
490,0.0
515,0.0
516,0.0
542,0.0
592,4870050.865369484
632,32756741.253212698
686,1.0
687,1.0
688,2.0
2,21, 1,21, 0, 8, 0.00,10.00,Monday
250,-0.15679047634466742
251,37774908.83822378
336,0.0
385,17.66353413746422
386,27.949951776595505
387,-1.0321330033561757
388,0.0
425,0.0
450,0.0
451,0.0
452,-1.8403455705417184
453,0.0
490,0.0
515,0.0
516,0.0
542,0.0
592,4889730.300311493
632,32734100.66464594
686,1.0
687,1.0
688,2.0
2,21, 1,21, 0, 8,10.00,20.00,Monday
250,0.0435232405434404
251,37669374.77642842
336,0.0
385,17.66353413746422
386,27.949951776595505
387,-0.9906277563109428
388,0.0
425,0.0
450,0.0
451,0.0
452,-1.8314832304493904
453,0.0
490,0.0
515,0.0
516,0.0
542,0.0
592,4909380.719869504
632,32608965.299520575
686,1.0
687,1.0
688,2.0
2,21, 1,21, 0, 8,20.00,30.00,Monday
250,0.2426697392920863
251,37564542.72136015
336,0.0
385,17.66353413746422
386,27.949951776595505
387,-0.9196380050235794
388,0.0
425,0.0
450,0.0
451,0.0
452,-1.7240421214295711
453,0.0
490,0.0
515,0.0
516,0.0
542,0.0
592,4929009.6156952735
632,32483882.69580925
686,1.0
687,1.0
688,2.0
2,21, 1,21, 0, 8,30.00,40.00,Monday
250,0.44212982776731286
251,37459513.48745409
336,0.0
385,17.66353413746422
386,27.949951776595505
387,-0.8293951088785765
388,0.0
425,0.0
450,0.0
451,0.0
452,-1.528388522151847
453,0.0
490,0.0
515,0.0
516,0.0
542,0.0
592,4952863.646772657
632,32355175.126508325
686,1.0
687,1.0
688,2.0
2,21, 1,21, 0, 8,40.00,50.00,Monday
250,0.6416519715740159
251,37354042.08108584
336,0.0
385,17.66353413746422
386,27.949951776595505
387,-0.7278473858199762
388,0.0
425,0.0
450,0.0
451,0.0
452,-1.2529406322327592
453,0.0
490,0.0
515,0.0
516,0.0
542,0.0
592,4977062.298687914
632,32225544.17951614
686,1.0
687,1.0
688,2.0
2,21, 1,21, 0, 8,50.00,60.00,Monday
250,0.8416282103188955
251,37249262.20270775
336,0.0
385,17.66353413746422
386,27.949951776595505
387,-0.6319977312880887
388,0.0
425,0.0
450,0.0
451,0.0
452,-0.9400482151646345
453,0.0
490,0.0
515,0.0
516,0.0
542,0.0
592,5001395.306277511
632,32043290.019543402
686,1.0
687,1.0
688,2.0
2,21, 1,21, 0, 9, 0.00,10.00,Monday
250,1.10757573168264
251,37109996.5447483
336,0.0
385,17.66353413746422
386,27.949951776595505
387,-0.4936472062043771
388,0.0
425,0.0
450,0.0
451,0.0
452,-0.46068570978686596
453,0.0
490,0.0
515,0.0
516,0.0
542,0.0
592,5029363.153609448
632,31892674.369918138
686,1.0
687,1.0
688,2.0
2,21, 1,21, 0, 9,10.00,20.00,Monday
250,1.3734542773040634
251,36969808.92858957
336,0.0
385,17.66353413746422
386,27.949951776595505
387,-0.3428996693438138
388,0.0
425,0.0
450,0.0
451,0.0
452,0.06353754063842851
453,0.0
490,0.0
515,0.0
516,0.0
542,0.0
592,5057356.862312016
632,31724481.397439927
686,1.0
687,1.0
688,2.0
2,21, 1,21, 0, 9,20.00,30.00,Monday
250,1.6394236720587037
251,36829568.37601094
336,0.0
385,17.66353413746422
386,27.949951776595505
387,-0.1829950681958129
388,0.0
425,0.0
450,0.0
451,0.0
452,0.628241075926526
453,0.0
490,0.0
515,0.0
516,0.0
542,0.0
592,5085392.284952975
632,31556230.584590126
686,1.0
687,1.0
688,2.0
2,21, 1,21, 0, 9,30.00,40.00,Monday
250,1.9053448312056196
251,36689351.636825055
336,0.0
385,17.66353413746422
386,27.949951776595505
387,-0.01322865520303858
388,0.0
425,0.0
450,0.0
451,0.0
452,1.222873899151534
453,0.0
490,0.0
515,0.0
516,0.0
542,0.0
592,5113485.892141593
632,31387908.498294603
686,1.0
687,1.0
688,2.0
2,21, 1,21, 0, 9,40.00,50.00,Monday
250,2.171442251097279
251,36548041.0532881
336,0.0
385,17.663534137464236
386,27.949951776595526
387,0.13196575061372467
388,0.0
425,0.0
450,0.0
451,0.0
452,1.7245443586449902
453,0.0
490,0.0
515,0.0
516,0.0
542,0.0
592,5141654.529350725
632,31195287.305304766
686,1.0000000000000009
687,1.0000000000000009
688,2.0000000000000018
2,21, 1,21, 0, 9,50.00,60.00,Monday
250,2.43765068446551
251,36407136.637119934
336,0.0
385,17.66353413746422
386,27.949951776595505
387,0.2841307062121047
388,0.0
425,0.0
450,0.0
451,0.0
452,2.265016177427386
453,0.0
490,0.0
515,0.0
516,0.0
542,0.0
592,5169915.672059793
632,31050666.843509454
686,1.0
687,1.0
688,2.0
2,21, 1,21, 0,10, 0.00,10.00,Monday
250,2.901685528897755
251,36160918.10831706
336,0.0
385,17.66353413746422
386,27.949951776595505
387,0.47462066537611536
388,0.0
425,0.0
450,0.0
451,0.0
452,2.8242810981997692
453,0.0
490,0.0
515,0.0
516,0.0
542,0.0
592,5241404.10703412
632,30744002.8299908
686,1.0
687,1.0
688,2.0
2,21, 1,21, 0,10,10.00,20.00,Monday
250,3.3664257259415837
251,35914946.19220011
336,0.0
385,17.663534137464218
386,27.949951776595505
387,0.7656649435211879
388,0.0
425,0.0
450,0.0
451,0.0
452,3.5791625758318095
453,0.0
490,0.0
515,0.0
516,0.0
542,0.0
592,5315291.857316207
632,30423200.31740105
686,1.0
687,1.0
688,2.0
2,21, 1,21, 0,10,20.00,30.00,Monday
250,3.831350137858894
251,35667603.912894234
336,0.0
385,17.663534137464215
386,27.94995177659549
387,1.0460341600878305
388,0.0
425,0.0
450,0.0
451,0.0
452,4.268033960396101
453,0.0
490,0.0
515,0.0
516,0.0
542,0.0
592,5391793.298050372
632,30099432.05925349
686,0.9999999999999996
687,0.9999999999999996
688,1.9999999999999991
2,21, 1,21, 0,10,30.00,40.00,Monday
250,4.296388260995341
251,35420066.41235437
336,0.0
385,17.66353413746423
386,27.949951776595512
387,1.3277840516059685
388,0.0
425,0.0
450,0.0
451,0.0
452,4.969981912697266
453,0.0
490,0.0
515,0.0
516,0.0
542,0.0
592,5471132.199313744
632,29772620.709504806
686,1.0000000000000004
687,1.0000000000000004
688,2.000000000000001
2,21, 1,21, 0,10,40.00,50.00,Monday
250,4.761588359472762
251,35172300.77438611
336,0.0
385,17.663534137464236
386,27.949951776595526
387,1.617907515160898
388,0.0
425,0.0
450,0.0
451,0.0
452,5.734088232662648
453,0.0
490,0.0
515,0.0
516,0.0
542,0.0
592,5553542.3757593315
632,29442520.864661053
686,1.0000000000000009
687,1.0000000000000009
688,2.0000000000000018
2,21, 1,21, 0,10,50.00,60.00,Monday
250,5.226797110576914
251,34924382.863346376
336,0.0
385,17.663534137464236
386,27.949951776595526
387,1.9181177455875766
388,0.0
425,0.0
450,0.0
451,0.0
452,6.563121739931198
453,0.0
490,0.0
515,0.0
516,0.0
542,0.0
592,5639267.778995938
632,29108928.214053318
686,1.0000000000000009
687,1.0000000000000009
688,2.0000000000000018
2,21, 1,21, 0,11, 0.00,10.00,Monday
250,5.510253872329281
251,34773547.280266985
336,0.0
385,17.66353413746422
386,27.949951776595505
387,2.204614292467508
388,0.0
425,0.0
450,0.0
451,0.0
452,7.4183310013993875
453,0.0
490,0.0
515,0.0
516,0.0
542,0.0
592,5689519.861596228
632,28875457.14694975
686,1.0
687,1.0
688,2.0
2,21, 1,21, 0,11,10.00,20.00,Monday
250,5.7931816565166585
251,34622940.1025846
336,0.0
385,17.663534137464218
386,27.949951776595505
387,2.4743763952872637
388,0.0
425,0.0
450,0.0
451,0.0
452,8.268839399775107
453,0.0
490,0.0
515,0.0
516,0.0
542,0.0
592,5740969.350869595
632,28673321.542980053
686,1.0
687,1.0
688,2.0
2,21, 1,21, 0,11,20.00,30.00,Monday
250,6.076154459392486
251,34472258.9706144
336,0.0
385,17.663534137464215
386,27.94995177659549
387,2.7465327613710286
388,0.0
425,0.0
450,0.0
451,0.0
452,9.115430650495156
453,0.0
490,0.0
515,0.0
516,0.0
542,0.0
592,5793671.095282218
632,28469963.436628476
686,0.9999999999999996
687,0.9999999999999996
688,1.9999999999999991
2,21, 1,21, 0,11,30.00,40.00,Monday
250,6.358939665297406
251,34321626.13878629
336,0.0
385,17.66353413746423
386,27.949951776595512
387,3.02386509200193
388,0.0
425,0.0
450,0.0
451,0.0
452,9.937233509029388
453,0.0
490,0.0
515,0.0
516,0.0
542,0.0
592,5847681.427966583
632,28265304.015365243
686,1.0000000000000004
687,1.0000000000000004
688,2.000000000000001
2,21, 1,21, 0,11,40.00,50.00,Monday
250,6.641644223856565
251,34170982.798201114
336,0.0
385,17.663534137464236
386,27.949951776595526
387,3.302971911391428
388,0.0
425,0.0
450,0.0
451,0.0
452,10.682785463074236
453,0.0
490,0.0
515,0.0
516,0.0
542,0.0
592,5903058.082199926
632,28059287.48245153
686,1.0000000000000009
687,1.0000000000000009
688,2.0000000000000018
2,21, 1,21, 0,11,50.00,60.00,Monday
250,6.924239632840067
251,34020342.838947006
336,0.0
385,17.663534137464236
386,27.949951776595526
387,3.5800008920759088
388,0.0
425,0.0
450,0.0
451,0.0
452,11.31862010789074
453,0.0
490,0.0
515,0.0
516,0.0
542,0.0
592,5959860.237244541
632,27851844.19672662
686,1.0000000000000009
687,1.0000000000000009
688,2.0000000000000018
2,21, 1,21, 0,12, 0.00,10.00,Monday
250,7.19091567932822
251,33878225.409917615
336,0.0
385,17.66353413746422
386,27.949951776595505
387,3.820008463908204
388,0.0
425,0.0
450,0.0
451,0.0
452,11.817724258516417
453,0.0
490,0.0
515,0.0
516,0.0
542,0.0
592,5991096.197635708
632,27700762.101445355
686,1.0
687,1.0
688,2.0
2,21, 1,21, 0,12,10.00,20.00,Monday
250,7.456463546041222
251,33740194.92342527
336,0.0
385,17.66353413746422
386,27.949951776595505
387,4.112402456029174
388,0.0
425,0.0
450,0.0
451,0.0
452,12.381712385610511
453,0.0
490,0.0
515,0.0
516,0.0
542,0.0
592,7572016.881221028
632,25979996.542883083
686,1.0
687,1.0
688,2.0
2,21, 1,21, 0,12,20.00,30.00,Monday
250,7.7225708307173715
251,33600140.0132173
336,0.0
385,17.66353413746422
386,27.949951776595505
387,4.3815266578552485
388,0.0
425,0.0
450,0.0
451,0.0
452,12.896623162375842
453,0.0
490,0.0
515,0.0
516,0.0
542,0.0
592,7609409.155487607
632,25802693.90005669
686,1.0
687,1.0
688,2.0
2,21, 1,21, 0,12,30.00,40.00,Monday
250,7.988611896202295
251,33460121.937654458
336,0.0
385,17.66353413746422
386,27.949951776595505
387,4.640348539698309
388,0.0
425,0.0
450,0.0
451,0.0
452,13.388493954899822
453,0.0
490,0.0
515,0.0
516,0.0
542,0.0
592,7646583.592010484
632,25625483.432695143
686,1.0
687,1.0
688,2.0
2,21, 1,21, 0,12,40.00,50.00,Monday
250,8.254628645809895
251,33320116.67865408
336,0.0
385,17.66353413746422
386,27.949951776595505
387,4.894780881126755
388,0.0
425,0.0
450,0.0
451,0.0
452,13.830601040089718
453,0.0
490,0.0
515,0.0
516,0.0
542,0.0
592,7683540.190789654
632,25448515.200583663
686,1.0
687,1.0
688,2.0
2,21, 1,21, 0,12,50.00,60.00,Monday
250,8.520638260357813
251,33180114.486098498
336,0.0
385,17.66353413746422
386,27.949951776595505
387,5.143732359864071
388,0.0
425,0.0
450,0.0
451,0.0
452,14.198369005703109
453,0.0
490,0.0
515,0.0
516,0.0
542,0.0
592,7720278.951825122
632,25271772.79773899
686,1.0
687,1.0
688,2.0
2,21, 1,21, 0,13, 0.00,10.00,Monday
250,8.703666578270745
251,33081407.864484947
336,0.0
385,17.66353413746422
386,27.949951776595505
387,5.3761258804608385
388,0.0
425,0.0
450,0.0
451,0.0
452,14.489596001694293
453,0.0
490,0.0
515,0.0
516,0.0
542,0.0
592,7745410.487127082
632,25174236.426135503
686,1.0
687,1.0
688,2.0
2,21, 1,21, 0,13,10.00,20.00,Monday
250,8.886371405769
251,32986878.82718915
336,0.0
385,17.66353413746422
386,27.949951776595505
387,5.594922270514123
388,0.0
425,0.0
450,0.0
451,0.0
452,14.71885601730088
453,0.0
490,0.0
515,0.0
516,0.0
542,0.0
592,7770439.060057994
632,25056165.654278994
686,1.0
687,1.0
688,2.0
2,21, 1,21, 0,13,20.00,30.00,Monday
250,9.069502353365865
251,32892213.77676696
336,0.0
385,17.66353413746422
386,27.949951776595505
387,5.799833880240515
388,0.0
425,0.0
450,0.0
451,0.0
452,14.902043785822809
453,0.0
490,0.0
515,0.0
516,0.0
542,0.0
592,7795364.670617863
632,24936817.567290567
686,1.0
687,1.0
688,2.0
2,21, 1,21, 0,13,30.00,40.00,Monday
250,9.252505587511873
251,32797647.8549928
336,0.0
385,17.66353413746422
386,27.949951776595505
387,5.994880504843426
388,0.0
425,0.0
450,0.0
451,0.0
452,15.050912796095277
453,0.0
490,0.0
515,0.0
516,0.0
542,0.0
592,7820187.318806681
632,24817372.78154221
686,1.0
687,1.0
688,2.0
2,21, 1,21, 0,13,40.00,50.00,Monday
250,9.43551381316928
251,32703112.719479915
336,0.0
385,17.66353413746422
386,27.949951776595505
387,6.183812589643697
388,0.0
425,0.0
450,0.0
451,0.0
452,15.170246426662898
453,0.0
490,0.0
515,0.0
516,0.0
542,0.0
592,7844907.00462445
632,24698133.561557066
686,1.0
687,1.0
688,2.0
2,21, 1,21, 0,13,50.00,60.00,Monday
250,9.618516455975799
251,32608613.772640783
336,0.0
385,17.66353413746422
386,27.949951776595505
387,6.367930022567423
388,0.0
425,0.0
450,0.0
451,0.0
452,15.263674713449625
453,0.0
490,0.0
515,0.0
516,0.0
542,0.0
592,7869523.728071173
632,24579027.96149281
686,1.0
687,1.0
688,2.0
2,21, 1,21, 0,14, 0.00,10.00,Monday
250,9.818450007425199
251,32505003.51530195
336,0.0
385,17.66353413746422
386,27.949951776595505
387,6.550071941122024
388,0.0
425,0.0
450,0.0
451,0.0
452,15.31979390606336
453,0.0
490,0.0
515,0.0
516,0.0
542,0.0
592,7896260.907308882
632,24457838.441190265
686,1.0
687,1.0
688,2.0
2,21, 1,21, 0,14,10.00,20.00,Monday
250,10.018069666855997
251,32401164.64333147
336,0.0
385,17.66353413746422
386,27.949951776595505
387,6.73037015139406
388,0.0
425,0.0
450,0.0
451,0.0
452,15.320283527122076
453,0.0
490,0.0
515,0.0
516,0.0
542,0.0
592,7922875.552815757
632,24327228.627292342
686,1.0
687,1.0
688,2.0
2,21, 1,21, 0,14,20.00,30.00,Monday
250,10.217592321322773
251,32297393.09225298
336,0.0
385,17.66353413746422
386,27.949951776595505
387,6.906666744158086
388,0.0
425,0.0
450,0.0
451,0.0
452,15.264675619671335
453,0.0
490,0.0
515,0.0
516,0.0
542,0.0
592,7949367.664591796
632,24196925.937426515
686,1.0
687,1.0
688,2.0
2,21, 1,21, 0,14,30.00,40.00,Monday
250,10.41704925578692
251,32193681.651321173
336,0.0
385,17.66353413746422
386,27.949951776595505
387,7.073009181870145
388,0.0
425,0.0
450,0.0
451,0.0
452,15.142444619524255
453,0.0
490,0.0
515,0.0
516,0.0
542,0.0
592,7975737.242637003
632,24066822.954091597
686,1.0
687,1.0
688,2.0
2,21, 1,21, 0,14,40.00,50.00,Monday
250,10.616447791179006
251,32090023.8118332
336,0.0
385,17.66353413746422
386,27.949951776595505
387,7.225703738037234
388,0.0
425,0.0
450,0.0
451,0.0
452,14.933869106530524
453,0.0
490,0.0
515,0.0
516,0.0
542,0.0
592,8001984.286951375
632,23936900.218081012
686,1.0
687,1.0
688,2.0
2,21, 1,21, 0,14,50.00,60.00,Monday
250,10.815804738283209
251,31986410.94663259
336,0.0
385,17.66353413746422
386,27.949951776595505
387,7.365040729028056
388,0.0
425,0.0
450,0.0
451,0.0
452,14.641986323186229
453,0.0
490,0.0
515,0.0
516,0.0
542,0.0
592,8028108.797534915
632,23807154.235614065
686,1.0
687,1.0
688,2.0
2,21, 1,21, 0,15, 0.00,10.00,Monday
250,11.081666407402999
251,31847603.313521218
336,0.0
385,17.66353413746422
386,27.949951776595505
387,7.486022264593988
388,0.0
425,0.0
450,0.0
451,0.0
452,14.346681077526796
453,0.0
490,0.0
515,0.0
516,0.0
542,0.0
592,8062750.870287224