Program Version,EnergyPlus, Version 24.2.0-94a887817b, YMD=2025.02.04 15:39
1,5,Environment Title[],Latitude[deg],Longitude[deg],Time Zone[],Elevation[m]
2,8,Day of Simulation[],Month[],Day of Month[],DST Indicator[1=yes 0=no],Hour[],StartMinute[],EndMinute[],DayType
3,5,Cumulative Day of Simulation[],Month[],Day of Month[],DST Indicator[1=yes 0=no],DayType  ! When Daily Meters Requested
4,2,Cumulative Days of Simulation[],Month[]  ! When Monthly Meters Requested
5,1,Cumulative Days of Simulation[] ! When Run Period Meters Requested
6,1,Calendar Year of Simulation[] ! When Annual Meters Requested
11,9,Electricity:Facility [J] !Monthly [Value,Min,Day,Hour,Minute,Max,Day,Hour,Minute]
23,9,Electricity:Building [J] !Monthly [Value,Min,Day,Hour,Minute,Max,Day,Hour,Minute]
59,9,InteriorLights:Electricity [J] !Monthly [Value,Min,Day,Hour,Minute,Max,Day,Hour,Minute]
521,9,Electricity:HVAC [J] !Monthly [Value,Min,Day,Hour,Minute,Max,Day,Hour,Minute]
637,9,NaturalGas:Facility [J] !Monthly [Value,Min,Day,Hour,Minute,Max,Day,Hour,Minute]
649,9,NaturalGas:HVAC [J] !Monthly [Value,Min,Day,Hour,Minute,Max,Day,Hour,Minute]
13,11,Electricity:Facility [J] !RunPeriod [Value,Min,Month,Day,Hour,Minute,Max,Month,Day,Hour,Minute]
25,11,Electricity:Building [J] !RunPeriod [Value,Min,Month,Day,Hour,Minute,Max,Month,Day,Hour,Minute]
61,11,InteriorLights:Electricity [J] !RunPeriod [Value,Min,Month,Day,Hour,Minute,Max,Month,Day,Hour,Minute]
523,11,Electricity:HVAC [J] !RunPeriod [Value,Min,Month,Day,Hour,Minute,Max,Month,Day,Hour,Minute]
639,11,NaturalGas:Facility [J] !RunPeriod [Value,Min,Month,Day,Hour,Minute,Max,Month,Day,Hour,Minute]
651,11,NaturalGas:HVAC [J] !RunPeriod [Value,Min,Month,Day,Hour,Minute,Max,Month,Day,Hour,Minute]
End of Data Dictionary
1,RUN PERIOD 1,  41.98, -87.92,  -6.00, 201.00
4,31, 1
11,9820112173.281202,408891.4285714286, 5, 6,50,2977344.3064844753,16,13,60
23,981062072.0502181,30000.0, 1, 1,10,607871.0667030504, 1, 9,10
59,970200000.0,30000.0, 1, 1,10,600000.0, 1, 8,10
521,8839050101.230986,378891.4285714286, 5, 6,50,2369473.239781425,16,13,60
637,179176694925.49118,28335761.394582257,21,16,10,41250000.0, 1, 1,10
649,179176694925.49118,28335761.394582257,21,16,10,41250000.0, 1, 1,10
4,59, 2
11,9353981401.10753,99999999999999.0, 5, 6,50,3018805.7467475976,22,15,30
23,857605280.043664,99999999999999.0, 1, 1,10,-99999999999999.0, 1, 9,10
59,848160000.0,99999999999999.0, 1, 1,10,-99999999999999.0, 1, 8,10
521,8496376121.063895,99999999999999.0, 5, 6,50,2410934.680044547,22,15,30
637,158602500974.31192,26644332.979488593,23,12,10,-99999999999999.0, 1, 1,10
649,158602500974.31192,26644332.979488593,23,12,10,-99999999999999.0, 1, 1,10
4,90, 3
11,10861312037.590994,30000.0,26,19,10,3042433.152214465,26,15,30
23,907397544.0458488,99999999999999.0, 1, 1,10,-99999999999999.0, 1, 9,10
59,897480000.0,99999999999999.0, 1, 1,10,-99999999999999.0, 1, 8,10
521,9953914493.545067,0.0,26,15,40,2434562.085511415,26,15,30
637,161828894747.1549,0.0,26,15,40,-99999999999999.0, 1, 1,10
649,161828894747.1549,0.0,26,15,40,-99999999999999.0, 1, 1,10
4,120, 4
11,9013512850.93692,99999999999999.0,26,19,10,-99999999999999.0,26,15,30
23,939909808.0480332,99999999999999.0, 1, 1,10,-99999999999999.0, 1, 9,10
59,929520000.0,99999999999999.0, 1, 1,10,-99999999999999.0, 1, 8,10
521,8073603042.888968,99999999999999.0,26,15,40,-99999999999999.0,26,15,30
637,116658845798.38362,99999999999999.0,26,15,40,-99999999999999.0, 1, 1,10
649,116658845798.38362,99999999999999.0,26,15,40,-99999999999999.0, 1, 1,10
4,151, 5
11,7562675418.152661,99999999999999.0,26,19,10,-99999999999999.0,26,15,30
23,981323524.7470838,99999999999999.0, 1, 1,10,623800.7953837718,28,13,10
59,970200000.0,99999999999999.0, 1, 1,10,-99999999999999.0, 1, 8,10
521,6581351893.405696,99999999999999.0,26,15,40,2437579.1251134234,11,14,20
637,81748429780.45831,99999999999999.0,26,15,40,-99999999999999.0, 1, 1,10
649,81748429780.45831,99999999999999.0,26,15,40,-99999999999999.0, 1, 1,10
4,181, 6
11,4654708747.388449,99999999999999.0,26,19,10,-99999999999999.0,26,15,30
23,866331575.3904004,99999999999999.0, 1, 1,10,-99999999999999.0,28,13,10
59,856800000.0,99999999999999.0, 1, 1,10,-99999999999999.0, 1, 8,10
521,3788377171.998092,99999999999999.0,26,15,40,-99999999999999.0,11,14,20
637,26786162763.50725,99999999999999.0,26,15,40,-99999999999999.0, 1, 1,10
649,26786162763.50725,99999999999999.0,26,15,40,-99999999999999.0, 1, 1,10
4,212, 7
11,4220460721.1570983,99999999999999.0,26,19,10,-99999999999999.0,26,15,30
23,981334370.0033267,99999999999999.0, 1, 1,10,-99999999999999.0,28,13,10
59,970200000.0,99999999999999.0, 1, 1,10,-99999999999999.0, 1, 8,10
521,3239126351.153805,99999999999999.0,26,15,40,-99999999999999.0,11,14,20
637,5215616454.556908,99999999999999.0,26,15,40,-99999999999999.0, 1, 1,10
649,5215616454.556908,99999999999999.0,26,15,40,-99999999999999.0, 1, 1,10
4,243, 8
11,2944400619.2106147,99999999999999.0,26,19,10,-99999999999999.0,26,15,30
23,944508114.3978415,99999999999999.0, 1, 1,10,623899.2837569034,12,14,10
59,933840000.0,99999999999999.0, 1, 1,10,-99999999999999.0, 1, 8,10
521,1999892504.8128266,99999999999999.0,26,15,40,-99999999999999.0,11,14,20
637,10163270893.26423,99999999999999.0,26,15,40,-99999999999999.0, 1, 1,10
649,10163270893.26423,99999999999999.0,26,15,40,-99999999999999.0, 1, 1,10
4,273, 9
11,4715424598.894103,99999999999999.0,26,19,10,-99999999999999.0,26,15,30
23,903077544.0458486,99999999999999.0, 1, 1,10,-99999999999999.0,12,14,10
59,893160000.0,99999999999999.0, 1, 1,10,-99999999999999.0, 1, 8,10
521,3812347054.8483114,99999999999999.0,26,15,40,-99999999999999.0,11,14,20
637,42767603482.40546,99999999999999.0,26,15,40,-99999999999999.0, 1, 1,10
649,42767603482.40546,99999999999999.0,26,15,40,-99999999999999.0, 1, 1,10
4,304,10
11,9933041079.14352,99999999999999.0,26,19,10,3043186.025264972,30,12,50
23,981062072.0502181,99999999999999.0, 1, 1,10,-99999999999999.0,12,14,10
59,970200000.0,99999999999999.0, 1, 1,10,-99999999999999.0, 1, 8,10
521,8951979007.093328,99999999999999.0,26,15,40,-99999999999999.0,11,14,20
637,122885914503.43213,99999999999999.0,26,15,40,-99999999999999.0, 1, 1,10
649,122885914503.43213,99999999999999.0,26,15,40,-99999999999999.0, 1, 1,10
4,334,11
11,10112551767.39612,99999999999999.0,26,19,10,-99999999999999.0,30,12,50
23,903077544.0458488,99999999999999.0, 1, 1,10,-99999999999999.0,12,14,10
59,893160000.0,99999999999999.0, 1, 1,10,-99999999999999.0, 1, 8,10
521,9209474223.350273,99999999999999.0,26,15,40,-99999999999999.0,11,14,20
637,144605458712.00232,99999999999999.0,26,15,40,-99999999999999.0, 1, 1,10
649,144605458712.00232,99999999999999.0,26,15,40,-99999999999999.0, 1, 1,10
4,365,12
11,10433180428.431843,99999999999999.0,26,19,10,-99999999999999.0,30,12,50
23,944229808.0480335,99999999999999.0, 1, 1,10,-99999999999999.0,12,14,10
59,933840000.0,99999999999999.0, 1, 1,10,-99999999999999.0, 1, 8,10
521,9488950620.383821,99999999999999.0,26,15,40,-99999999999999.0,11,14,20
637,180029889668.69687,99999999999999.0,26,15,40,-99999999999999.0, 1, 1,10
649,180029889668.69687,99999999999999.0,26,15,40,-99999999999999.0, 1, 1,10
5,365
13,93625361842.6974,30000.0, 3,26,19,10,3043186.025264972,10,30,12,50
25,11190919256.9172,30000.0, 1, 1, 1,10,623899.2837569034, 8,12,14,10
61,11066760000.0,30000.0, 1, 1, 1,10,600000.0, 1, 1, 8,10
523,82434442585.77846,0.0, 3,26,15,40,2437579.1251134234, 5,11,14,20
639,1230469282703.6633,0.0, 3,26,15,40,41250000.0, 1, 1, 1,10
651,1230469282703.6633,0.0, 3,26,15,40,41250000.0, 1, 1, 1,10
1,RUN PERIOD 2,  41.98, -87.92,  -6.00, 201.00
4,1, 7
11,95260342.23612371,99999999999999.0,26,19,10,-99999999999999.0,30,12,50
23,41152264.00218307,99999999999999.0, 1, 1,10,-99999999999999.0,12,14,10
59,40680000.0,99999999999999.0, 1, 1,10,-99999999999999.0, 1, 8,10
521,54108078.233940646,99999999999999.0,26,15,40,-99999999999999.0,11,14,20
637,0.0,99999999999999.0,26,15,40,-99999999999999.0, 1, 1,10
649,0.0,99999999999999.0,26,15,40,-99999999999999.0, 1, 1,10
5,1
13,95260342.23612371,99999999999999.0, 3,26,19,10,-99999999999999.0,10,30,12,50
25,41152264.00218307,99999999999999.0, 1, 1, 1,10,-99999999999999.0, 8,12,14,10
61,40680000.0,99999999999999.0, 1, 1, 1,10,-99999999999999.0, 1, 1, 8,10
523,54108078.233940646,99999999999999.0, 3,26,15,40,-99999999999999.0, 5,11,14,20
639,0.0,99999999999999.0, 3,26,15,40,-99999999999999.0, 1, 1, 1,10
651,0.0,99999999999999.0, 3,26,15,40,-99999999999999.0, 1, 1, 1,10
End of Data
 Number of Records Written=          90
