Program Version,EnergyPlus, Version 24.2.0-94a887817b, YMD=2025.02.04 17:10
1,5,Environment Title[],Latitude[deg],Longitude[deg],Time Zone[],Elevation[m]
2,8,Day of Simulation[],Month[],Day of Month[],DST Indicator[1=yes 0=no],Hour[],StartMinute[],EndMinute[],DayType
3,5,Cumulative Day of Simulation[],Month[],Day of Month[],DST Indicator[1=yes 0=no],DayType  ! When Daily Report Variables Requested
4,2,Cumulative Days of Simulation[],Month[]  ! When Monthly Report Variables Requested
5,1,Cumulative Days of Simulation[] ! When Run Period Report Variables Requested
6,1,Calendar Year of Simulation[] ! When Annual Report Variables Requested
250,1,LIVING ZONE,Zone Air Temperature [C] !TimeStep,REPORTSCH
251,1,LIVING ZONE,Zone Air System Sensible Heating Energy [J] !TimeStep,REPORTSCH
336,1,LIVING ZONE,Zone Air System Sensible Cooling Energy [J] !TimeStep,REPORTSCH
385,1,LIVING ZONE,Zone Thermostat Heating Setpoint Temperature [C] !TimeStep,REPORTSCH
386,1,LIVING ZONE,Zone Thermostat Cooling Setpoint Temperature [C] !TimeStep,REPORTSCH
387,1,GARAGE ZONE,Zone Air Temperature [C] !TimeStep,REPORTSCH
388,1,GARAGE ZONE,Zone Air System Sensible Heating Energy [J] !TimeStep,REPORTSCH
425,1,GARAGE ZONE,Zone Air System Sensible Cooling Energy [J] !TimeStep,REPORTSCH
450,1,GARAGE ZONE,Zone Thermostat Heating Setpoint Temperature [C] !TimeStep,REPORTSCH
451,1,GARAGE ZONE,Zone Thermostat Cooling Setpoint Temperature [C] !TimeStep,REPORTSCH
452,1,ATTIC ZONE,Zone Air Temperature [C] !TimeStep,REPORTSCH
453,1,ATTIC ZONE,Zone Air System Sensible Heating Energy [J] !TimeStep,REPORTSCH
490,1,ATTIC ZONE,Zone Air System Sensible Cooling Energy [J] !TimeStep,REPORTSCH
515,1,ATTIC ZONE,Zone Thermostat Heating Setpoint Temperature [C] !TimeStep,REPORTSCH
516,1,ATTIC ZONE,Zone Thermostat Cooling Setpoint Temperature [C] !TimeStep,REPORTSCH
542,1,ACDXCOIL 1,Cooling Coil Total Cooling Energy [J] !TimeStep,REPORTSCH
592,1,HEAT PUMP DX HEATING COIL 1,Heating Coil Heating Energy [J] !TimeStep,REPORTSCH
632,1,SUPP HEATING COIL 1,Heating Coil Heating Energy [J] !TimeStep,REPORTSCH
686,1,TWOSPEED HEAT PUMP 1,Unitary System DX Coil Cycling Ratio [] !TimeStep,REPORTSCH
687,1,TWOSPEED HEAT PUMP 1,Unitary System DX Coil Speed Ratio [] !TimeStep,REPORTSCH
688,1,TWOSPEED HEAT PUMP 1,Unitary System DX Coil Speed Level [] !TimeStep,REPORTSCH
End of Data Dictionary
1,YEARSIMULATION,  41.98, -87.92,  -6.00, 201.00
2,21, 1,21, 0, 1, 0.00,10.00,Sunday
250,23.266731764560642
251,6935737.818520713
336,0.0
385,23.74
386,25.97
387,0.6056834191499308
388,0.0
425,0.0
450,0.0
451,0.0
452,-1.6287243564953706
453,0.0
490,0.0
515,0.0
516,0.0
542,0.0
592,4878657.6482075825
632,2602184.4192509004
686,1.0
687,1.0
688,2.0
2,21, 1,21, 0, 1,10.00,20.00,Sunday
250,23.69500924392625
251,8036579.590468148
336,0.0
385,23.74
386,25.97
387,0.5777006378982829
388,0.0
425,0.0
450,0.0
451,0.0
452,-1.6167400160333973
453,0.0
490,0.0
515,0.0
516,0.0
542,0.0
592,4860586.144727247
632,3041076.415305746
686,1.0
687,1.0
688,2.0
2,21, 1,21, 0, 1,20.00,30.00,Sunday
250,22.636599757116404
251,5890352.942207643
336,0.0
385,22.40666666666668
386,25.97000000000002
387,0.554820222380335
388,0.0
425,0.0
450,0.0
451,0.0
452,-1.609015020626358
453,0.0
490,0.0
515,0.0
516,0.0
542,0.0
592,2609430.844704942
632,3185420.44786289
686,0.553189862011991
687,0.5000000000000004
688,1.1666666666666674
2,21, 1,21, 0, 1,30.00,40.00,Sunday
250,23.03276950973471
251,5759075.70131236
336,0.0
385,23.073333333333352
386,25.97000000000002
387,0.5307719550891159
388,0.0
425,0.0
450,0.0
451,0.0
452,-1.6028893134544684
453,0.0
490,0.0
515,0.0
516,0.0
542,0.0
592,3410951.5505420645
632,2310455.2145416737
686,0.7215125139218018
687,0.6666666666666672
688,1.6666666666666679
2,21, 1,21, 0, 1,40.00,50.00,Sunday
250,23.269276254006396
251,7018840.742707005
336,0.0
385,23.74
386,25.97
387,0.5019572533547267
388,0.0
425,0.0
450,0.0
451,0.0
452,-1.5977015759056739
453,0.0
490,0.0
515,0.0
516,0.0
542,0.0
592,4815353.5542953005
632,2747171.288681516
686,1.0
687,1.0
688,2.0
2,21, 1,21, 0, 1,50.00,60.00,Sunday
250,23.695321840131484
251,8117180.966037849
336,0.0
385,23.74
386,25.97
387,0.4765102091685308
388,0.0
425,0.0
450,0.0
451,0.0
452,-1.595061490226557
453,0.0
490,0.0
515,0.0
516,0.0
542,0.0
592,4797305.733889362
632,3184307.6301074927
686,1.0
687,1.0
688,2.0
2,21, 1,21, 0, 2, 0.00,10.00,Sunday
250,22.633387455846986
251,5952866.218630128
336,0.0
385,22.406666666666666
386,25.97
387,0.45495913591934234
388,0.0
425,0.0
450,0.0
451,0.0
452,-1.5957090873541988
453,0.0
490,0.0
515,0.0
516,0.0
542,0.0
592,2596254.227748733
632,3262070.661365452
686,0.5567668047189948
687,0.5
688,1.1666666666666667
2,21, 1,21, 0, 2,10.00,20.00,Sunday
250,23.033616053125897
251,5811734.432506679
336,0.0
385,23.07333333333333
386,25.97
387,0.43186246869457223
388,0.0
425,0.0
450,0.0
451,0.0
452,-1.5995314655306259
453,0.0
490,0.0
515,0.0
516,0.0
542,0.0
592,3403157.4509287393
632,2367014.242248706
686,0.725716361327452
687,0.6666666666666667
688,1.6666666666666667
2,21, 1,21, 0, 2,20.00,30.00,Sunday
250,23.27058504123484
251,7052649.089726554
336,0.0
385,23.74
386,25.97
387,0.40366601251467965
388,0.0
425,0.0
450,0.0
451,0.0
452,-1.6076821469272844
453,0.0
490,0.0
515,0.0
516,0.0
542,0.0
592,4799532.807563265
632,2796043.819456207
686,1.0
687,1.0
688,2.0
2,21, 1,21, 0, 2,30.00,40.00,Sunday
250,23.69546388977509
251,8136622.884846776
336,0.0
385,23.74
386,25.97
387,0.37836402505480227
388,0.0
425,0.0
450,0.0
451,0.0
452,-1.618512315512627
453,0.0
490,0.0
515,0.0
516,0.0
542,0.0
592,4797303.308333384
632,3203420.7420048295
686,1.0
687,1.0
688,2.0
2,21, 1,21, 0, 2,40.00,50.00,Sunday
250,22.632566895793495
251,5968661.466059115
336,0.0
385,22.406666666666634
386,25.96999999999996
387,0.3565146600920347
388,0.0
425,0.0
450,0.0
451,0.0
452,-1.6316484544376806
453,0.0
490,0.0
515,0.0
516,0.0
542,0.0
592,2599059.993525727
632,3275325.015715674
686,0.5575772659116326
687,0.49999999999999933
688,1.166666666666665
2,21, 1,21, 0, 2,50.00,60.00,Sunday
250,23.03384129215954
251,5827378.460140183
336,0.0
385,23.073333333333352
386,25.97000000000002
387,0.33283401459367556
388,0.0
425,0.0
450,0.0
451,0.0
452,-1.648052034877323
453,0.0
490,0.0
515,0.0
516,0.0
542,0.0
592,3406895.906755816
632,2377927.3183487803
686,0.7267963833527327
687,0.6666666666666672
688,1.6666666666666679
2,21, 1,21, 0, 3, 0.00,10.00,Sunday
250,23.271205035903606
251,7078318.150773374
336,0.0
385,23.74
386,25.97
387,0.30422376981283356
388,0.0
425,0.0
450,0.0
451,0.0
452,-1.6671681812399666
453,0.0
490,0.0
515,0.0
516,0.0
542,0.0
592,4799533.637681008
632,2821695.7247892665
686,1.0
687,1.0
688,2.0
2,21, 1,21, 0, 3,10.00,20.00,Sunday
250,23.69554889118637
251,8171975.587514457
336,0.0
385,23.74
386,25.97
387,0.27947637715167833
388,0.0
425,0.0
450,0.0
451,0.0
452,-1.679574745905235
453,0.0
490,0.0
515,0.0
516,0.0
542,0.0
592,4797302.16254013
632,3238620.547791508
686,1.0
687,1.0
688,2.0
2,21, 1,21, 0, 3,20.00,30.00,Sunday
250,22.63026703378391
251,6012425.402927279
336,0.0
385,22.40666666666668
386,25.97000000000002
387,0.25925347413953026
388,0.0
425,0.0
450,0.0
451,0.0
452,-1.683930352253821
453,0.0
490,0.0
515,0.0
516,0.0
542,0.0
592,2606718.0199550306
632,3312177.520589392
686,0.559789324761904
687,0.5000000000000004
688,1.1666666666666674
2,21, 1,21, 0, 3,30.00,40.00,Sunday
250,23.034793106198403
251,5886222.867539729
336,0.0
385,23.073333333333352
386,25.97000000000002
387,0.23836715512465145
388,0.0
425,0.0
450,0.0
451,0.0
452,-1.6840716388940238
453,0.0
490,0.0
515,0.0
516,0.0
542,0.0
592,3422587.1583379023
632,2416686.0032454473
686,0.7313297124811942
687,0.6666666666666672
688,1.6666666666666679
2,21, 1,21, 0, 3,40.00,50.00,Sunday
250,23.272620672205367
251,7132269.412417149
336,0.0
385,23.74
386,25.97
387,0.2138372240646244
388,0.0
425,0.0
450,0.0
451,0.0
452,-1.679727139939007
453,0.0
490,0.0
515,0.0
516,0.0
542,0.0
592,4799537.244235578
632,2874783.1918518636
686,1.0
687,1.0
688,2.0
2,21, 1,21, 0, 3,50.00,60.00,Sunday
250,23.69571992308814
251,8224661.304725748
336,0.0
385,23.74
386,25.97
387,0.19301183724106408
388,0.0
425,0.0
450,0.0
451,0.0
452,-1.672217122524437
453,0.0
490,0.0
515,0.0
516,0.0
542,0.0
592,4797299.47824662
632,3290945.4562378777
686,1.0
687,1.0
688,2.0
2,21, 1,21, 0, 4, 0.00,10.00,Sunday
250,22.624068804661103
251,6129920.115735881
336,0.0
385,22.406666666666666
386,25.97
387,0.1715881271214472
388,0.0
425,0.0
450,0.0
451,0.0
452,-1.664513499224895
453,0.0
490,0.0
515,0.0
516,0.0
542,0.0
592,2624802.5376497735
632,3413603.086321884
686,0.5657661969139428
687,0.5
688,1.1666666666666667
2,21, 1,21, 0, 4,10.00,20.00,Sunday
250,23.038136473757568
251,6082599.041983582
336,0.0
385,23.07333333333333
386,25.97
387,0.14532160768431057
388,0.0
425,0.0
450,0.0
451,0.0
452,-1.6577343490031566
453,0.0
490,0.0
515,0.0
516,0.0
542,0.0
592,3470279.264701876
632,2549758.3727212716
686,0.747212023933937
687,0.6666666666666667
688,1.6666666666666667
2,21, 1,21, 0, 4,20.00,30.00,Sunday
250,23.27707197871699
251,7379068.27004855
336,0.0
385,23.74
386,25.97
387,0.11028464021623816
388,0.0
425,0.0
450,0.0
451,0.0
452,-1.6527915991274682
453,0.0
490,0.0
515,0.0
516,0.0
542,0.0
592,4785747.126944479
632,3132037.363073795
686,1.0
687,1.0
688,2.0
2,21, 1,21, 0, 4,30.00,40.00,Sunday
250,23.696296820997304
251,8542435.795507563
336,0.0
385,23.74
386,25.97
387,0.07709194119385517
388,0.0
425,0.0
450,0.0
451,0.0
452,-1.653347153974219
453,0.0
490,0.0
515,0.0
516,0.0
542,0.0
592,4776914.668106556
632,3627955.5697588567
686,1.0
687,1.0
688,2.0
2,21, 1,21, 0, 4,40.00,50.00,Sunday
250,22.60724838146116
251,6448969.831829265
336,0.0
385,22.406666666666634
386,25.96999999999996
387,0.046983809785707105
388,0.0
425,0.0
450,0.0
451,0.0
452,-1.6599975397008102
453,0.0
490,0.0
515,0.0
516,0.0
542,0.0
592,2670093.5464265086
632,3692860.297514947
686,0.582218410380422
687,0.49999999999999933
688,1.166666666666665
2,21, 1,21, 0, 4,50.00,60.00,Sunday
250,23.043711984792175
251,6429429.534457297
336,0.0
385,23.073333333333352
386,25.97000000000002
387,0.013366784727275408
388,0.0
425,0.0
450,0.0
451,0.0
452,-1.6701141708122065
453,0.0
490,0.0
515,0.0
516,0.0
542,0.0
592,3551982.2143258434
632,2788424.0816698913
686,0.7756600594655894
687,0.6666666666666672
688,1.6666666666666679
2,21, 1,21, 0, 5, 0.00,10.00,Sunday
250,23.283319670487554
251,7578667.834675316
336,0.0
385,23.74
386,25.97
387,-0.019698107129983967
388,0.0
425,0.0
450,0.0
451,0.0
452,-1.6803445163429953
453,0.0
490,0.0
515,0.0
516,0.0
542,0.0
592,4764509.0996009605
632,3346112.453043301
686,1.0
687,1.0
688,2.0
2,21, 1,21, 0, 5,10.00,20.00,Sunday
250,23.696952864186393
251,8637278.611656802
336,0.0
385,23.74
386,25.97
387,-0.039319024277726614
388,0.0
425,0.0
450,0.0
451,0.0
452,-1.6828112583172083
453,0.0
490,0.0
515,0.0
516,0.0
542,0.0
592,4754117.293690206
632,3743956.3537661685
686,1.0
687,1.0
688,2.0
2,21, 1,21, 0, 5,20.00,30.00,Sunday
250,22.60828107671298
251,6430348.330816092
336,0.0
385,22.40666666666668
386,25.97000000000002
387,-0.04890215500250565
388,0.0
425,0.0
450,0.0
451,0.0
452,-1.6756990837439567
453,0.0
490,0.0
515,0.0
516,0.0
542,0.0
592,2654781.4050946
632,3689138.204312519
686,0.5816545937903528
687,0.5000000000000004
688,1.1666666666666674
2,21, 1,21, 0, 5,30.00,40.00,Sunday
250,23.041247197661548
251,6290493.488794198
336,0.0
385,23.073333333333352
386,25.97000000000002
387,-0.056134875232423956
388,0.0
425,0.0
450,0.0
451,0.0
452,-1.6605488162903812
453,0.0
490,0.0
515,0.0
516,0.0
542,0.0
592,3494747.939669572
632,2718254.6654293425
686,0.7642572665811536
687,0.6666666666666672
688,1.6666666666666679
2,21, 1,21, 0, 5,40.00,50.00,Sunday
250,23.281109074440977
251,7450261.899925351
336,0.0
385,23.74
386,25.97
387,-0.06204246031635948
388,0.0
425,0.0
450,0.0
451,0.0
452,-1.6346403456067733
453,0.0
490,0.0
515,0.0
516,0.0
542,0.0
592,4736139.1500974195
632,3248942.149573147
686,1.0
687,1.0
688,2.0
2,21, 1,21, 0, 5,50.00,60.00,Sunday
250,23.69670640127802
251,8506179.56749659
336,0.0
385,23.74
386,25.97
387,-0.06477534995951723
388,0.0
425,0.0
450,0.0
451,0.0
452,-1.6055728869425898
453,0.0
490,0.0
515,0.0
516,0.0
542,0.0
592,4725745.443273427
632,3641811.727057619
686,1.0
687,1.0
688,2.0
2,21, 1,21, 0, 6, 0.00,10.00,Sunday
250,22.610830425022815
251,6382101.49084775
336,0.0
385,22.406666666666666
386,25.97
387,-0.07384159287903798
388,0.0
425,0.0
450,0.0
451,0.0
452,-1.5820043829464026
453,0.0
490,0.0
515,0.0
516,0.0
542,0.0
592,2633201.279477045
632,3661569.2878294596
686,0.5796057809594344
687,0.5
688,1.1666666666666667
2,21, 1,21, 0, 6,10.00,20.00,Sunday
250,23.042165791137023
251,6329049.023942499
336,0.0
385,23.07333333333333
386,25.97
387,-0.08967682482327777
388,0.0
425,0.0
450,0.0
451,0.0
452,-1.5658731537258452
453,0.0
490,0.0
515,0.0
516,0.0
542,0.0
592,3489639.536013179
632,2757818.3616070044
686,0.7678092264595175
687,0.6666666666666667
688,1.6666666666666667
2,21, 1,21, 0, 6,20.00,30.00,Sunday
250,23.28243492066364
251,7575115.790321756
336,0.0
385,23.74
386,25.97
387,-0.11476150625457633
388,0.0
425,0.0
450,0.0
451,0.0
452,-1.5593967033966596
453,0.0
490,0.0
515,0.0
516,0.0
542,0.0
592,4716563.09937499
632,3392924.9472497213
686,1.0
687,1.0
688,2.0
2,21, 1,21, 0, 6,30.00,40.00,Sunday
250,23.696912313483764
251,8716442.989682699
336,0.0
385,23.74
386,25.97
387,-0.1411990641620914
388,0.0
425,0.0
450,0.0
451,0.0
452,-1.5672120529407874
453,0.0
490,0.0
515,0.0
516,0.0
542,0.0
592,4708548.572135504
632,3868945.650815379
686,1.0
687,1.0
688,2.0
2,21, 1,21, 0, 6,40.00,50.00,Sunday
250,22.59966589460323
251,6593633.683328102
336,0.0
385,22.406666666666634
386,25.96999999999996
387,-0.1674139361633696
388,0.0
425,0.0
450,0.0
451,0.0
452,-1.5867684735457623
453,0.0
490,0.0
515,0.0
516,0.0
542,0.0
592,2661349.7232650826
632,3848611.7388008167
686,0.5907988962551981
687,0.49999999999999933
688,1.166666666666665
2,21, 1,21, 0, 6,50.00,60.00,Sunday
250,23.045910937920343
251,6558341.135360293
336,0.0
385,23.073333333333352
386,25.97000000000002
387,-0.19769582725274304
388,0.0
425,0.0
450,0.0
451,0.0
452,-1.6149970911403333
453,0.0
490,0.0
515,0.0
516,0.0
542,0.0
592,3541277.0345785897
632,2917614.810025624
686,0.7872163619760996
687,0.6666666666666672
688,1.6666666666666679
2,21, 1,21, 0, 7, 0.00,10.00,Sunday
250,23.286457328632032
251,7740745.032640682
336,0.0
385,23.74
386,25.97
387,-0.2408284324503414
388,0.0
425,0.0
450,0.0
451,0.0
452,-1.6670388274550056
453,0.0
490,0.0
515,0.0
516,0.0
542,0.0
592,4725588.559727465
632,3544903.1569829085
686,1.0
687,1.0
688,2.0
2,21, 1,21, 0, 7,10.00,20.00,Sunday
250,23.697332965969174
251,8850100.136567578
336,0.0
385,23.74
386,25.97
387,-0.28732466660281275
388,0.0
425,0.0
450,0.0
451,0.0
452,-1.7486906631470847
453,0.0
490,0.0
515,0.0
516,0.0
542,0.0
592,4741427.619212104
632,3968668.442405992
686,1.0
687,1.0
688,2.0
2,21, 1,21, 0, 7,20.00,30.00,Sunday
250,22.594542130991226
251,6690076.0737349745
336,0.0
385,22.40666666666668
386,25.97000000000002
387,-0.33582710682336786
388,0.0
425,0.0
450,0.0
451,0.0
452,-1.8650124299330608
453,0.0
490,0.0
515,0.0
516,0.0
542,0.0
592,2707741.092356461
632,3900527.5649295994
686,0.5947342359042682
687,0.5000000000000004
688,1.1666666666666674
2,21, 1,21, 0, 7,30.00,40.00,Sunday
250,23.046444451166717
251,6620708.676535541
336,0.0
385,23.073333333333352
386,25.97000000000002
387,-0.39459156762028413
388,0.0
425,0.0
450,0.0
451,0.0
452,-2.0229515360339483
453,0.0
490,0.0
515,0.0
516,0.0
542,0.0
592,3615496.1815779447
632,2903017.6621842533
686,0.7908130022144177
687,0.6666666666666672
688,1.6666666666666679
2,21, 1,21, 0, 7,40.00,50.00,Sunday
250,23.287112202584417
251,7793592.45843387
336,0.0
385,23.74
386,25.97
387,-0.47437912343868077
388,0.0
425,0.0
450,0.0
451,0.0
452,-2.2449176887200486
453,0.0
490,0.0
515,0.0
516,0.0
542,0.0
592,4807288.562396892
632,3515000.6990737556
686,1.0
687,1.0
688,2.0
2,21, 1,21, 0, 7,50.00,60.00,Sunday
250,23.69739733407798
251,8907665.3978694
336,0.0
385,23.74
386,25.97
387,-0.5522833118059689
388,0.0
425,0.0
450,0.0
451,0.0
452,-2.4723114285875534
453,0.0
490,0.0
515,0.0
516,0.0
542,0.0
592,4819271.296155493
632,3948192.5664776573
686,1.0
687,1.0
688,2.0
2,21, 1,21, 0, 8, 0.00,10.00,Sunday
250,22.591662252897688
251,6743702.510758364
336,0.0
385,22.406666666666666
386,25.97
387,-0.6157471486515965
388,0.0
425,0.0
450,0.0
451,0.0
452,-2.677106025184038
453,0.0
490,0.0
515,0.0
516,0.0
542,0.0
592,2751728.193056184
632,3911310.739190034
686,0.5962320854799036
687,0.5
688,1.1666666666666667
2,21, 1,21, 0, 8,10.00,20.00,Sunday
250,23.04587768800492
251,6612528.952703982
336,0.0
385,23.07333333333333
386,25.97
387,-0.6719395883656452
388,0.0
425,0.0
450,0.0
451,0.0
452,-2.8136308671987518
453,0.0
490,0.0
515,0.0
516,0.0
542,0.0
592,3652668.866892428
632,2860219.8215474808
686,0.7887695116649598
687,0.6666666666666667
688,1.6666666666666667
2,21, 1,21, 0, 8,20.00,30.00,Sunday
250,23.28639318481088
251,7742075.875880895
336,0.0
385,23.74
386,25.97
387,-0.7273953068259433
388,0.0
425,0.0
450,0.0
451,0.0
452,-2.8549465066247306
453,0.0
490,0.0
515,0.0
516,0.0
542,0.0
592,4857847.448649057
632,3413063.0856825546
686,1.0
687,1.0
688,2.0
2,21, 1,21, 0, 8,30.00,40.00,Sunday
250,23.697299473045106
251,8784902.486046469
336,0.0
385,23.74
386,25.97
387,-0.7617100353819789
388,0.0
425,0.0
450,0.0
451,0.0
452,-2.7645602355481893
453,0.0
490,0.0
515,0.0
516,0.0
542,0.0
592,4861302.813248588
632,3783552.164692591
686,1.0
687,1.0
688,2.0
2,21, 1,21, 0, 8,40.00,50.00,Sunday
250,22.60268701268902
251,6534156.723989586
336,0.0
385,22.406666666666634
386,25.96999999999996
387,-0.7724120524057076
388,0.0
425,0.0
450,0.0
451,0.0
452,-2.5519653794261012
453,0.0
490,0.0
515,0.0
516,0.0
542,0.0
592,2736563.1386020468
632,3713303.7150179525
686,0.5850653558496764
687,0.49999999999999933
688,1.166666666666665
2,21, 1,21, 0, 8,50.00,60.00,Sunday
250,23.04164516664166
251,6347863.519078466
336,0.0
385,23.073333333333352
386,25.97000000000002
387,-0.7677156737883782
388,0.0
425,0.0
450,0.0
451,0.0
452,-2.2362012195222363
453,0.0
490,0.0
515,0.0
516,0.0
542,0.0
592,3609367.9559710794
632,2658724.505840448
686,0.7673807121122294
687,0.6666666666666672
688,1.6666666666666679
2,21, 1,21, 0, 9, 0.00,10.00,Sunday
250,23.67233505204079
251,8298150.456862618
336,0.0
385,23.74
386,25.97
387,-0.7425253695272689
388,0.0
425,0.0
450,0.0
451,0.0
452,-1.8215934188719878
453,0.0
490,0.0
515,0.0
516,0.0
542,0.0
592,4900469.026419863
632,3321480.1846363526
686,1.0
687,1.0
688,2.0
2,21, 1,21, 0, 9,10.00,20.00,Sunday
250,22.60948417436098
251,6384134.422217734
336,0.0
385,22.406666666666663
386,25.97
387,-0.6984747096104504
388,0.0
425,0.0
450,0.0
451,0.0
452,-1.347322530920558
453,0.0
490,0.0
515,0.0
516,0.0
542,0.0
592,2734004.537569465
632,3563812.093245838
686,0.5771647603098822
687,0.5
688,1.1666666666666665
2,21, 1,21, 0, 9,20.00,30.00,Sunday
250,23.03830999942035
251,6148069.184761429
336,0.0
385,23.073333333333323
386,25.969999999999988
387,-0.6376898891998788
388,0.0
425,0.0
450,0.0
451,0.0
452,-0.8006952011031292
453,0.0
490,0.0
515,0.0
516,0.0
542,0.0
592,3591131.4344967394
632,2492638.1972229043
686,0.7512632093884568
687,0.6666666666666664
688,1.666666666666666
2,21, 1,21, 0, 9,30.00,40.00,Sunday
250,23.07055132552066
251,7486171.467912796
336,0.0
385,23.073333333333338
386,25.97000000000001
387,-0.5417241972839812
388,0.0
425,0.0
450,0.0
451,0.0
452,-0.03810779729545755
453,0.0
490,0.0
515,0.0
516,0.0
542,0.0
592,3313380.3454174167
632,3995746.4250410995
686,0.7999737713519683
687,0.3333333333333332
688,1.3333333333333335
2,21, 1,21, 0, 9,40.00,50.00,Sunday
250,23.071705736844933
251,7450734.692802725
336,0.0
385,23.073333333333352
386,25.97000000000002
387,-0.45705310685894107
388,0.0
425,0.0
450,0.0
451,0.0
452,0.607388927652869
453,0.0
490,0.0
515,0.0
516,0.0
542,0.0
592,3333121.0514539876
632,3936161.2565413555
686,0.7992027265092987
687,0.34056243145001136
688,1.6666666666666679
2,21, 1,21, 0, 9,50.00,60.00,Sunday
250,23.67499404577233
251,8143865.549349098
336,0.0
385,23.74
386,25.97
387,-0.3842197862523682
388,0.0
425,0.0
450,0.0
451,0.0
452,1.1228668210737673
453,0.0
490,0.0
515,0.0
516,0.0
542,0.0
592,4988828.95467465
632,3070910.6361991875
686,1.0
687,1.0
688,2.0
2,21, 1,21, 0,10, 0.00,10.00,Sunday
250,22.62145685288321
251,6159433.300615433
336,0.0
385,22.406666666666666
386,25.97
387,-0.31207506564707077
388,0.0
425,0.0
450,0.0
451,0.0
452,1.5873887858691011
453,0.0
490,0.0
515,0.0
516,0.0
542,0.0
592,2746499.8528265595
632,3322839.322198113
686,0.5646162340120918
687,0.5
688,1.1666666666666667
2,21, 1,21, 0,10,10.00,20.00,Sunday
250,23.034176585569828
251,5895643.271089214
336,0.0
385,23.07333333333333
386,25.97
387,-0.2259778636086949
388,0.0
425,0.0
450,0.0
451,0.0
452,2.097592572249602
453,0.0
490,0.0
515,0.0
516,0.0
542,0.0
592,3605446.6242625504
632,2244900.332885003
686,0.7311198045148488
687,0.6666666666666667
688,1.6666666666666667
2,21, 1,21, 0,10,20.00,30.00,Sunday
250,23.065702492478557
251,7222249.5080691865
336,0.0
385,23.073333333333323
386,25.969999999999988
387,-0.09181495246443316
388,0.0
425,0.0
450,0.0
451,0.0
452,2.7897236840091213
453,0.0
490,0.0
515,0.0
516,0.0
542,0.0
592,3193784.895624127
632,3881391.9896362075
686,0.7421928219677918
687,0.3333333333333332
688,1.3333333333333328
2,21, 1,21, 0,10,30.00,40.00,Sunday
250,23.065933357264313
251,7137372.0706783775
336,0.0
385,23.073333333333338
386,25.97000000000001
387,0.0384043559359097
388,0.0
425,0.0
450,0.0
451,0.0
452,3.4222434742904877
453,0.0
490,0.0
515,0.0
516,0.0
542,0.0
592,3187371.5647098925
632,3803712.050834809
686,0.7347906193611686
687,0.3333333333333332
688,1.3333333333333335
2,21, 1,21, 0,10,40.00,50.00,Sunday
250,23.063941767938726
251,7032078.774338644
336,0.0
385,23.073333333333352
386,25.97000000000002
387,0.17579224061060045
388,0.0
425,0.0
450,0.0
451,0.0
452,4.100557679485322
453,0.0
490,0.0
515,0.0
516,0.0
542,0.0
592,3133265.719402663
632,3762832.6825414407
686,0.7146142095570449
687,0.3333333333333336
688,1.3333333333333344
2,21, 1,21, 0,10,50.00,60.00,Sunday
250,23.06203648337462
251,6923842.655529706
336,0.0
385,23.073333333333352
386,25.97000000000002
387,0.33104562108124325
388,0.0
425,0.0
450,0.0
451,0.0
452,4.859470776094325
453,0.0
490,0.0
515,0.0
516,0.0
542,0.0
592,3076485.6403990127
632,3722400.432285105
686,0.6939802470004715
687,0.3333333333333336
688,1.3333333333333344
2,21, 1,21, 0,11, 0.00,10.00,Sunday
250,23.060203433342483
251,6817399.314369088
336,0.0
385,23.07333333333333
386,25.97
387,0.500599888899897
388,0.0
425,0.0
450,0.0
451,0.0
452,5.682558898526352
453,0.0
490,0.0
515,0.0
516,0.0
542,0.0
592,3014812.908843592
632,3688151.31222904
686,0.6745866888253582
687,0.3333333333333333
688,1.3333333333333335
2,21, 1,21, 0,11,10.00,20.00,Sunday
250,23.058341213473746
251,6708099.597507363
336,0.0
385,23.07333333333333
386,25.97
387,0.6817650172603132
388,0.0
425,0.0
450,0.0
451,0.0
452,6.5509368931680605
453,0.0
490,0.0
515,0.0
516,0.0
542,0.0
592,2951788.544192303
632,3652540.6885331017
686,0.6549717337255352
687,0.33333333333333337
688,1.3333333333333333
2,21, 1,21, 0,11,20.00,30.00,Sunday
250,22.826642359712878
251,5863309.032577099
336,0.0
385,22.74
386,25.97
387,0.8320142911912352
388,0.0
425,0.0
450,0.0
451,0.0
452,7.325067492389239
453,0.0
490,0.0
515,0.0
516,0.0
542,0.0
592,3934439.951972137
632,1778954.5046633529
686,0.75
687,0.75
688,1.5
2,21, 1,21, 0,11,30.00,40.00,Sunday
250,22.776893342030757
251,6365999.308011951
336,0.0
385,22.74
386,25.97
387,1.0647528630982959
388,0.0
425,0.0
450,0.0
451,0.0
452,8.351765076215859
453,0.0
490,0.0
515,0.0
516,0.0
542,0.0
592,3214927.590922891
632,3076351.5250425236
686,0.6536183593947948
687,0.5
688,1.25
2,21, 1,21, 0,11,40.00,50.00,Sunday
250,22.779924073345168
251,6197501.869421465
336,0.0
385,22.74
386,25.97
387,1.2929705941646596
388,0.0
425,0.0
450,0.0
451,0.0
452,9.226659836272361
453,0.0
490,0.0
515,0.0
516,0.0
542,0.0
592,3226044.108020546
632,2901124.993060447
686,0.6535527744946511
687,0.5
688,1.25
2,21, 1,21, 0,11,50.00,60.00,Sunday
250,23.027692452224574
251,4871436.822733683
336,0.0
385,23.073333333333352
386,25.97000000000002
387,1.4704521529466448
388,0.0
425,0.0
450,0.0
451,0.0
452,9.876330893400876
453,0.0
490,0.0
515,0.0
516,0.0
542,0.0
592,3533826.085011864
632,1334124.8617607506
686,0.6666666666666672
687,0.6666666666666672
688,1.3333333333333344
2,21, 1,21, 0,12, 0.00,10.00,Sunday
250,22.658297722205127
251,4971958.490002692
336,0.0
385,22.54
386,25.97
387,1.6468426636146083
388,0.0
425,0.0
450,0.0
451,0.0
452,10.44309662107743
453,0.0
490,0.0
515,0.0
516,0.0
542,0.0
592,2476002.461902285
632,2553962.145179717
686,0.4919524706006281
687,0.4
688,1.0
2,21, 1,21, 0,12,10.00,20.00,Sunday
250,23.005561976729673
251,6703256.108347569
336,0.0
385,23.07333333333333
386,25.97
387,1.8334702074122409
388,0.0
425,0.0
450,0.0
451,0.0
452,10.93675494464176
453,0.0
490,0.0
515,0.0
516,0.0
542,0.0
592,3952745.154556517
632,2787897.716309541
686,0.9017877966411523
687,0.33333333333333337
688,1.3333333333333333
2,21, 1,21, 0,12,20.00,30.00,Sunday
250,23.08799845228545
251,4873864.72503632
336,0.0
385,23.073333333333323
386,25.969999999999988
387,2.0859153194086058
388,0.0
425,0.0
450,0.0
451,0.0
452,11.436617636784355
453,0.0
490,0.0
515,0.0
516,0.0
542,0.0
592,3548230.214184453
632,1282597.133081561
686,0.6666666666666664
687,0.6666666666666664
688,1.3333333333333328
2,21, 1,21, 0,12,30.00,40.00,Sunday
250,22.681121613187848
251,4792946.996962087
336,0.0
385,22.539999999999992
386,25.969999999999988
387,2.2300457941394303
388,0.0
425,0.0
450,0.0
451,0.0
452,11.648452589675504
453,0.0
490,0.0
515,0.0
516,0.0
542,0.0
592,2430363.5678154095
632,2415077.505448835
686,0.4773632588727146
687,0.3999999999999997
688,0.9999999999999993
2,21, 1,21, 0,12,40.00,50.00,Sunday
250,23.004687558894204
251,6544375.330741955
336,0.0
385,23.073333333333352
386,25.97000000000002
387,2.365802024719464
388,0.0
425,0.0
450,0.0
451,0.0
452,11.748579923362259
453,0.0
490,0.0
515,0.0
516,0.0
542,0.0
592,3851233.5368796834
632,2738141.4483722723
686,0.8712062925351904
687,0.3333333333333336
688,1.3333333333333344
2,21, 1,21, 0,12,50.00,60.00,Sunday
250,23.095881297353845
251,4796434.036450723
336,0.0
385,23.073333333333352
386,25.97000000000002
387,2.535932787833219
388,0.0
425,0.0
450,0.0
451,0.0
452,11.746848121081356
453,0.0
490,0.0
515,0.0
516,0.0
542,0.0
592,3562991.2690174337
632,1190511.4578785154
686,0.6666666666666672
687,0.6666666666666672
688,1.3333333333333344
2,21, 1,21, 0,13, 0.00,10.00,Sunday
250,22.691372668367286
251,4692230.572346108
336,0.0
385,22.54
386,25.97
387,2.6263574739973055
388,0.0
425,0.0
450,0.0
451,0.0
452,11.655269545852505
453,0.0
490,0.0
515,0.0
516,0.0
542,0.0
592,2404509.0511702998
632,2338471.4463280495
686,0.469331109424913
687,0.4
688,1.0
2,21, 1,21, 0,13,10.00,20.00,Sunday
250,23.003494303503288
251,6369040.103973056
336,0.0
385,23.07333333333333
386,25.97
387,2.710532572322612
388,0.0
425,0.0
450,0.0
451,0.0
452,11.563121219608565
453,0.0
490,0.0
515,0.0
516,0.0
542,0.0
592,3735615.1142100883
632,2687524.1325352765
686,0.841233240154992
687,0.33333333333333337
688,1.3333333333333333
2,21, 1,21, 0,13,20.00,30.00,Sunday
250,23.11415475746296
251,4641988.397924885
336,0.0
385,23.073333333333323
386,25.969999999999988
387,2.8186588995857087
388,0.0
425,0.0
450,0.0
451,0.0
452,11.475284211139046
453,0.0
490,0.0
515,0.0
516,0.0
542,0.0
592,3555481.132384989
632,1043718.7524210964
686,0.6666666666666664
687,0.6666666666666664
688,1.3333333333333328
2,21, 1,21, 0,13,30.00,40.00,Sunday
250,22.70993716105341
251,4528637.586779236
336,0.0
385,22.539999999999992
386,25.969999999999988
387,2.8839042640331556
388,0.0
425,0.0
450,0.0
451,0.0
452,11.4478549147716
453,0.0
490,0.0
515,0.0
516,0.0
542,0.0
592,2353074.853694548
632,2222630.052804782
686,0.4572456475843054
687,0.3999999999999997
688,0.9999999999999993
2,21, 1,21, 0,13,40.00,50.00,Sunday
250,23.001691023660857
251,6153717.14161141
336,0.0
385,23.073333333333352
386,25.97000000000002
387,2.9511627485767216
388,0.0
425,0.0
450,0.0
451,0.0
452,11.431442192073188
453,0.0
490,0.0
515,0.0
516,0.0
542,0.0
592,3583860.5159256905
632,2635420.3678051285
686,0.8038379508908389
687,0.3333333333333336
688,1.3333333333333344
2,21, 1,21, 0,13,50.00,60.00,Sunday
250,23.13097296324611
251,4500278.576460218
336,0.0
385,23.073333333333352
386,25.97000000000002
387,3.043364697691815
388,0.0
425,0.0
450,0.0
451,0.0
452,11.416819879664564
453,0.0
490,0.0
515,0.0
516,0.0
542,0.0
592,3547964.260719409
632,909799.2437294914
686,0.6666666666666672
687,0.6666666666666672
688,1.3333333333333344
2,21, 1,21, 0,14, 0.00,10.00,Sunday
250,22.724624444256875
251,4403209.430801828
336,0.0
385,22.54
386,25.97
387,3.1049993055912224
388,0.0
425,0.0
450,0.0
451,0.0
452,11.37632603816971
453,0.0
490,0.0
515,0.0
516,0.0
542,0.0
592,2318645.57854213
632,2128623.3729571314
686,0.4477920421622922
687,0.4
688,1.0
2,21, 1,21, 0,14,10.00,20.00,Sunday
250,23.0005909621787
251,6022983.492378169
336,0.0
385,23.07333333333333
386,25.97
387,3.168799087009451
388,0.0
425,0.0
450,0.0
451,0.0
452,11.272116229004286
453,0.0
490,0.0
515,0.0
516,0.0
542,0.0
592,3498693.7048526406
632,2598003.0341738234
686,0.7780058495688076
687,0.33333333333333337
688,1.3333333333333333
2,21, 1,21, 0,14,20.00,30.00,Sunday
250,23.138965597228633
251,4433226.477118684
336,0.0
385,23.073333333333323
386,25.969999999999988
387,3.25286481354082
388,0.0
425,0.0
450,0.0
451,0.0
452,11.070883209478206
453,0.0
490,0.0
515,0.0
516,0.0
542,0.0
592,3571634.842676988
632,819231.235537395
686,0.6666666666666664
687,0.6666666666666664
688,1.3333333333333328
2,21, 1,21, 0,14,30.00,40.00,Sunday
250,22.73166835101571
251,4344525.887255962
336,0.0
385,22.539999999999992
386,25.969999999999988
387,3.2953946655543724
388,0.0
425,0.0
450,0.0
451,0.0
452,10.827992538846715
453,0.0
490,0.0
515,0.0
516,0.0
542,0.0
592,2316234.7944087107
632,2070933.4782900314
686,0.4432705674893396
687,0.3999999999999997