Program Version,EnergyPlus, Version 24.2.0-94a887817b, YMD=2025.02.12 11:46
1,5,Environment Title[],Latitude[deg],Longitude[deg],Time Zone[],Elevation[m]
2,8,Day of Simulation[],Month[],Day of Month[],DST Indicator[1=yes 0=no],Hour[],StartMinute[],EndMinute[],DayType
3,5,Cumulative Day of Simulation[],Month[],Day of Month[],DST Indicator[1=yes 0=no],DayType  ! When Daily Report Variables Requested
4,2,Cumulative Days of Simulation[],Month[]  ! When Monthly Report Variables Requested
5,1,Cumulative Days of Simulation[] ! When Run Period Report Variables Requested
6,1,Calendar Year of Simulation[] ! When Annual Report Variables Requested
250,1,LIVING ZONE,Zone Air Temperature [C] !TimeStep,REPORTSCH
251,1,LIVING ZONE,Zone Air System Sensible Heating Energy [J] !TimeStep,REPORTSCH
336,1,LIVING ZONE,Zone Air System Sensible Cooling Energy [J] !TimeStep,REPORTSCH
385,1,LIVING ZONE,Zone Thermostat Heating Setpoint Temperature [C] !TimeStep,REPORTSCH
386,1,LIVING ZONE,Zone Thermostat Cooling Setpoint Temperature [C] !TimeStep,REPORTSCH
387,1,GARAGE ZONE,Zone Air Temperature [C] !TimeStep,REPORTSCH
388,1,GARAGE ZONE,Zone Air System Sensible Heating Energy [J] !TimeStep,REPORTSCH
425,1,GARAGE ZONE,Zone Air System Sensible Cooling Energy [J] !TimeStep,REPORTSCH
450,1,GARAGE ZONE,Zone Thermostat Heating Setpoint Temperature [C] !TimeStep,REPORTSCH
451,1,GARAGE ZONE,Zone Thermostat Cooling Setpoint Temperature [C] !TimeStep,REPORTSCH
452,1,ATTIC ZONE,Zone Air Temperature [C] !TimeStep,REPORTSCH
453,1,ATTIC ZONE,Zone Air System Sensible Heating Energy [J] !TimeStep,REPORTSCH
490,1,ATTIC ZONE,Zone Air System Sensible Cooling Energy [J] !TimeStep,REPORTSCH
515,1,ATTIC ZONE,Zone Thermostat Heating Setpoint Temperature [C] !TimeStep,REPORTSCH
516,1,ATTIC ZONE,Zone Thermostat Cooling Setpoint Temperature [C] !TimeStep,REPORTSCH
542,1,ACDXCOIL 1,Cooling Coil Total Cooling Energy [J] !TimeStep,REPORTSCH
592,1,HEAT PUMP DX HEATING COIL 1,Heating Coil Heating Energy [J] !TimeStep,REPORTSCH
632,1,SUPP HEATING COIL 1,Heating Coil Heating Energy [J] !TimeStep,REPORTSCH
686,1,TWOSPEED HEAT PUMP 1,Unitary System DX Coil Cycling Ratio [] !TimeStep,REPORTSCH
687,1,TWOSPEED HEAT PUMP 1,Unitary System DX Coil Speed Ratio [] !TimeStep,REPORTSCH
688,1,TWOSPEED HEAT PUMP 1,Unitary System DX Coil Speed Level [] !TimeStep,REPORTSCH
End of Data Dictionary
1,RUN PERIOD 1,  41.98, -87.92,  -6.00, 201.00
2,21, 1,21, 0, 1, 0.00,10.00,Monday
250,21.288153477536714
251,4914534.906750043
336,0.0
385,21.006666666666668
386,28.300000000000004
387,0.591426422733977
388,0.0
425,0.0
450,0.0
451,0.0
452,-1.6586878757990378
453,0.0
490,0.0
515,0.0
516,0.0
542,0.0
592,2169008.924946903
632,2665012.786155837
686,0.4854571107881053
687,0.33333333333333326
688,1.0
2,21, 1,21, 0, 1,10.00,20.00,Monday
250,22.2357066288891
251,7059552.893584717
336,0.0
385,22.34
386,28.3
387,0.5647694876534799
388,0.0
425,0.0
450,0.0
451,0.0
452,-1.6481109338700581
453,0.0
490,0.0
515,0.0
516,0.0
542,0.0
592,4862439.127905369
632,2213201.613193408
686,1.0
687,1.0
688,2.0
2,21, 1,21, 0, 1,20.00,30.00,Monday
250,22.332944579117036
251,6342294.136882846
336,0.0
385,22.34
386,28.3
387,0.534328820458518
388,0.0
425,0.0
450,0.0
451,0.0
452,-1.6378449955121979
453,0.0
490,0.0
515,0.0
516,0.0
542,0.0
592,4847172.697852747
632,1248709.0398478692
686,1.0
687,1.0
688,2.0
2,21, 1,21, 0, 1,30.00,40.00,Monday
250,21.286109236421495
251,4962074.604000675
336,0.0
385,21.006666666666653
386,28.299999999999986
387,0.5110120735920538
388,0.0
425,0.0
450,0.0
451,0.0
452,-1.632707293253682
453,0.0
490,0.0
515,0.0
516,0.0
542,0.0
592,2178992.56030818
632,2699508.0102786813
686,0.49424857523596466
687,0.33333333333333287
688,0.9999999999999989
2,21, 1,21, 0, 1,40.00,50.00,Monday
250,22.2356472193326
251,7111757.0991900945
336,0.0
385,22.34
386,28.3
387,0.4867771991134767
388,0.0
425,0.0
450,0.0
451,0.0
452,-1.6290961129953936
453,0.0
490,0.0
515,0.0
516,0.0
542,0.0
592,4814959.176837118
632,2313482.5099194585
686,1.0
687,1.0
688,2.0
2,21, 1,21, 0, 1,50.00,60.00,Monday
250,22.332955421086833
251,6391401.686831112
336,0.0
385,22.34
386,28.3
387,0.4583027941718662
388,0.0
425,0.0
450,0.0
451,0.0
452,-1.6266058570610615
453,0.0
490,0.0
515,0.0
516,0.0
542,0.0
592,4799694.557884732
632,1345295.0798962614
686,1.0
687,1.0
688,2.0
2,21, 1,21, 0, 2, 0.00,10.00,Monday
250,21.284506854239766
251,4998963.703972934
336,0.0
385,21.006666666666668
386,28.300000000000004
387,0.4359892885642992
388,0.0
425,0.0
450,0.0
451,0.0
452,-1.627136830501386
453,0.0
490,0.0
515,0.0
516,0.0
542,0.0
592,2188498.4005786562
632,2724607.0554852523
686,0.5010162289107993
687,0.33333333333333326
688,1.0
2,21, 1,21, 0, 2,10.00,20.00,Monday
250,22.235579511441493
251,7138615.166462893
336,0.0
385,22.34
386,28.3
387,0.4124076352387408
388,0.0
425,0.0
450,0.0
451,0.0
452,-1.6308802191421923
453,0.0
490,0.0
515,0.0
516,0.0
542,0.0
592,4799133.989867032
632,2356635.4747956293
686,1.0
687,1.0
688,2.0
2,21, 1,21, 0, 2,20.00,30.00,Monday
250,22.332957644078927
251,6403448.269429323
336,0.0
385,22.34
386,28.3
387,0.38425662146830425
388,0.0
425,0.0
450,0.0
451,0.0
452,-1.639143430005771
453,0.0
490,0.0
515,0.0
516,0.0
542,0.0
592,4799694.592516297
632,1357344.308590321
686,1.0
687,1.0
688,2.0
2,21, 1,21, 0, 2,30.00,40.00,Monday
250,21.284010143249386
251,5009788.310788675
336,0.0
385,21.006666666666653
386,28.299999999999986
387,0.3618661463960726
388,0.0
425,0.0
450,0.0
451,0.0
452,-1.6496021060654873
453,0.0
490,0.0
515,0.0
516,0.0
542,0.0
592,2194488.3998837094
632,2728947.9671903397
686,0.5027212838674204
687,0.33333333333333287
688,0.9999999999999989
2,21, 1,21, 0, 2,40.00,50.00,Monday
250,22.23559019766716
251,7150325.74037483
336,0.0
385,22.34
386,28.3
387,0.337918101115173
388,0.0
425,0.0
450,0.0
451,0.0
452,-1.663473823214841
453,0.0
490,0.0
515,0.0
516,0.0
542,0.0
592,4799133.214031398
632,2368510.715526677
686,1.0
687,1.0
688,2.0
2,21, 1,21, 0, 2,50.00,60.00,Monday
250,22.33296321639064
251,6412951.15930793
336,0.0
385,22.34
386,28.3
387,0.30910060432139874
388,0.0
425,0.0
450,0.0
451,0.0
452,-1.6823684085803992
453,0.0
490,0.0
515,0.0
516,0.0
542,0.0
592,4799694.604980498
632,1366842.4684057944
686,1.0
687,1.0
688,2.0
2,21, 1,21, 0, 3, 0.00,10.00,Monday
250,21.283144113325868
251,5028588.651441691
336,0.0
385,21.006666666666668
386,28.300000000000004
387,0.28670349609979695
388,0.0
425,0.0
450,0.0
451,0.0
452,-1.6971899625689177
453,0.0
490,0.0
515,0.0
516,0.0
542,0.0
592,2204920.7574118255
632,2736435.841687376
686,0.5056909411411292
687,0.33333333333333326
688,1.0
2,21, 1,21, 0, 3,10.00,20.00,Monday
250,22.23559174056912
251,7181078.64270875
336,0.0
385,22.34
386,28.3
387,0.2635332234109654
388,0.0
425,0.0
450,0.0
451,0.0
452,-1.7091561153831827
453,0.0
490,0.0
515,0.0
516,0.0
542,0.0
592,4799131.931866102
632,2399519.6424298794
686,1.0
687,1.0
688,2.0
2,21, 1,21, 0, 3,20.00,30.00,Monday
250,22.3329733954616
251,6452210.830785952
336,0.0
385,22.34
386,28.3
387,0.23671307598469113
388,0.0
425,0.0
450,0.0
451,0.0
452,-1.7168271591765383
453,0.0
490,0.0
515,0.0
516,0.0
542,0.0
592,4799694.607551784
632,1406097.8257546925
686,1.0
687,1.0
688,2.0
2,21, 1,21, 0, 3,30.00,40.00,Monday
250,21.281321625605173
251,5066828.653699597
336,0.0
385,21.006666666666653
386,28.299999999999986
387,0.21666676922984474
388,0.0
425,0.0
450,0.0
451,0.0
452,-1.716394805489434
453,0.0
490,0.0
515,0.0
516,0.0
542,0.0
592,2226204.667003221
632,2752177.439703109
686,0.5086324806813308
687,0.3418989017843127
688,1.1666666666666659
2,21, 1,21, 0, 3,40.00,50.00,Monday
250,22.235510000323124
251,7220557.245172115
336,0.0
385,22.34
386,28.3
387,0.19629828899966634
388,0.0
425,0.0
450,0.0
451,0.0
452,-1.7122683612204173
453,0.0
490,0.0
515,0.0
516,0.0
542,0.0
592,4799129.294003281
632,2439501.294357717
686,1.0
687,1.0
688,2.0
2,21, 1,21, 0, 3,50.00,60.00,Monday
250,22.332978196755082
251,6488522.1568921
336,0.0
385,22.34
386,28.3
387,0.17299600960134
388,0.0
425,0.0
450,0.0
451,0.0
452,-1.7037223250053741
453,0.0
490,0.0
515,0.0
516,0.0
542,0.0
592,4799694.617641828
632,1442413.419864861
686,1.0
687,1.0
688,2.0
2,21, 1,21, 0, 4, 0.00,10.00,Monday
250,21.276527918244696
251,5166092.794682259
336,0.0
385,21.006666666666668
386,28.300000000000004
387,0.15120814312620814
388,0.0
425,0.0
450,0.0
451,0.0
452,-1.6958828641092354
453,0.0
490,0.0
515,0.0
516,0.0
542,0.0
592,2280093.5032586292
632,2794858.133257825
686,0.5139618084428237
687,0.37115936819048667
688,1.1666666666666667
2,21, 1,21, 0, 4,10.00,20.00,Monday
250,22.23527769197883
251,7385708.971048804
336,0.0
385,22.34
386,28.3
387,0.12478564514878582
388,0.0
425,0.0
450,0.0
451,0.0
452,-1.6889045011125794
453,0.0
490,0.0
515,0.0
516,0.0
542,0.0
592,4790113.419085931
632,2614960.010947412
686,1.0
687,1.0
688,2.0
2,21, 1,21, 0, 4,20.00,30.00,Monday
250,22.33299742995035
251,6713729.420149881
336,0.0
385,22.34
386,28.3
387,0.0902132396337987
388,0.0
425,0.0
450,0.0
451,0.0
452,-1.6839956606125641
453,0.0
490,0.0
515,0.0
516,0.0
542,0.0
592,4785482.351398021
632,1681851.4572760367
686,1.0
687,1.0
688,2.0
2,21, 1,21, 0, 4,30.00,40.00,Monday
250,21.265415490228275
251,5395294.430876583
336,0.0
385,21.006666666666653
386,28.299999999999986
387,0.061061195472295215
388,0.0
425,0.0
450,0.0
451,0.0
452,-1.6852832138422622
453,0.0
490,0.0
515,0.0
516,0.0
542,0.0
592,2403118.431607024
632,2895127.805096537
686,0.526286331294119
687,0.43928465282775875
688,1.1666666666666659
2,21, 1,21, 0, 4,40.00,50.00,Monday
250,21.625604065579246
251,5317980.001990226
336,0.0
385,21.67333333333335
386,28.300000000000022
387,0.029966801453613006
388,0.0
425,0.0
450,0.0
451,0.0
452,-1.691451864274232
453,0.0
490,0.0
515,0.0
516,0.0
542,0.0
592,3245312.1636606245
632,2070091.2645254037
686,0.6844776113780586
687,0.6666666666666672
688,1.6666666666666679
2,21, 1,21, 0, 4,50.00,60.00,Monday
250,21.86212174235812
251,6716405.339330354
336,0.0
385,22.34
386,28.3
387,-0.009885353972229734
388,0.0
425,0.0
450,0.0
451,0.0
452,-1.7025277716255507
453,0.0
490,0.0
515,0.0
516,0.0
542,0.0
592,4767680.260061632
632,2502775.940733392
686,1.0
687,1.0
688,2.0
2,21, 1,21, 0, 5, 0.00,10.00,Monday
250,22.294703226707938
251,7785293.52647388
336,0.0
385,22.34
386,28.3
387,-0.03829576750159614
388,0.0
425,0.0
450,0.0
451,0.0
452,-1.7109262094974123
453,0.0
490,0.0
515,0.0
516,0.0
542,0.0
592,4764277.567465481
632,2887382.257383611
686,1.0
687,1.0
688,2.0
2,21, 1,21, 0, 5,10.00,20.00,Monday
250,21.254219431204028
251,5588648.494404946
336,0.0
385,21.00666666666667
386,28.299999999999997
387,-0.05379978693989368
388,0.0
425,0.0
450,0.0
451,0.0
452,-1.7127272108317504
453,0.0
490,0.0
515,0.0
516,0.0
542,0.0
592,2505946.4543353347
632,2981570.953261914
686,0.5372140207689335
687,0.49933258220315385
688,1.1666666666666665
2,21, 1,21, 0, 5,20.00,30.00,Monday
250,21.626162460502474
251,5378345.382473182
336,0.0
385,21.673333333333325
386,28.29999999999999
387,-0.0660504485072951
388,0.0
425,0.0
450,0.0
451,0.0
452,-1.7071813659693116
453,0.0
490,0.0
515,0.0
516,0.0
542,0.0
592,3243153.5263809487
632,2129966.3812965713
686,0.6886951074761587
687,0.6666666666666664
688,1.666666666666666
2,21, 1,21, 0, 5,30.00,40.00,Monday
250,21.86362532753381
251,6652010.231627759
336,0.0
385,22.339999999999993
386,28.29999999999999
387,-0.07713979801821905
388,0.0
425,0.0
450,0.0
451,0.0
452,-1.6915838575971949
453,0.0
490,0.0
515,0.0
516,0.0
542,0.0
592,4739502.0340386545
632,2465777.4120376445
686,0.9999999999999997
687,0.9999999999999997
688,1.9999999999999993
2,21, 1,21, 0, 5,40.00,50.00,Monday
250,22.294854368204014
251,7703419.953951156
336,0.0
385,22.34
386,28.3
387,-0.08401518278564388
388,0.0
425,0.0
450,0.0
451,0.0
452,-1.6698060321694164
453,0.0
490,0.0
515,0.0
516,0.0
542,0.0
592,4736177.773565851
632,2833217.7287814897
686,1.0
687,1.0
688,2.0
2,21, 1,21, 0, 5,50.00,60.00,Monday
250,21.258913945076998
251,5494320.047171516
336,0.0
385,21.00666666666664
386,28.299999999999965
387,-0.08687381329791698
388,0.0
425,0.0
450,0.0
451,0.0
452,-1.6440624046390306
453,0.0
490,0.0
515,0.0
516,0.0
542,0.0
592,2443022.658919179
632,2951743.6517492495
686,0.5324687681687115
687,0.47508707572540054
688,1.166666666666665
2,21, 1,21, 0, 6, 0.00,10.00,Monday
250,21.625995265076703
251,5358419.273579688
336,0.0
385,21.673333333333332
386,28.300000000000004
387,-0.09637394820251315
388,0.0
425,0.0
450,0.0
451,0.0
452,-1.6190897793134948
453,0.0
490,0.0
515,0.0
516,0.0
542,0.0
592,3218687.5920048207
632,2135678.2948743594
686,0.6868867946783459
687,0.6666666666666666
688,1.6666666666666665
2,21, 1,21, 0, 6,10.00,20.00,Monday
250,21.864119335855282
251,6718230.642534663
336,0.0
385,22.34
386,28.3
387,-0.11518185573512502
388,0.0
425,0.0
450,0.0
451,0.0
452,-1.598528689764535
453,0.0
490,0.0
515,0.0
516,0.0
542,0.0
592,4716188.606450007
632,2556361.9957873523
686,1.0
687,1.0
688,2.0
2,21, 1,21, 0, 6,20.00,30.00,Monday
250,22.29497386039177
251,7845112.126564998
336,0.0
385,22.34
386,28.3
387,-0.137529134520749
388,0.0
425,0.0
450,0.0
451,0.0
452,-1.5944031884842806
453,0.0
490,0.0
515,0.0
516,0.0
542,0.0
592,4716466.649014613
632,2994515.036195498
686,1.0
687,1.0
688,2.0
2,21, 1,21, 0, 6,30.00,40.00,Monday
250,21.247573970085423
251,5715555.721486753
336,0.0
385,21.006666666666653
386,28.299999999999986
387,-0.16123451165371758
388,0.0
425,0.0
450,0.0
451,0.0
452,-1.6052250014811138
453,0.0
490,0.0
515,0.0
516,0.0
542,0.0
592,2506113.3267211295
632,3110267.571561829
686,0.5440365166345642
687,0.49999999999999967
688,1.1666666666666659
2,21, 1,21, 0, 6,40.00,50.00,Monday
250,21.629998337791854
251,5596370.112324215
336,0.0
385,21.67333333333335
386,28.300000000000022
387,-0.18910322439536517
388,0.0
425,0.0
450,0.0
451,0.0
452,-1.6254351865122287
453,0.0
490,0.0
515,0.0
516,0.0
542,0.0
592,3273278.1580052697
632,2300119.663306886
686,0.7061252306203962
687,0.6666666666666672
688,1.6666666666666679
2,21, 1,21, 0, 6,50.00,60.00,Monday
250,21.869011058359266
251,6930028.054986546
336,0.0
385,22.34
386,28.3
387,-0.22600993718064552
388,0.0
425,0.0
450,0.0
451,0.0
452,-1.6579847076764929
453,0.0
490,0.0
515,0.0
516,0.0
542,0.0
592,4700912.769027431
632,2778888.7032424454
686,1.0
687,1.0
688,2.0
2,21, 1,21, 0, 7, 0.00,10.00,Monday
250,22.29551703349033
251,8070140.182034569
336,0.0
385,22.34
386,28.3
387,-0.26448513650713357
388,0.0
425,0.0
450,0.0
451,0.0
452,-1.7053164944878079
453,0.0
490,0.0
515,0.0
516,0.0
542,0.0
592,4725237.840575362
632,3209496.818157889
686,1.0
687,1.0
688,2.0
2,21, 1,21, 0, 7,10.00,20.00,Monday
250,21.237620199523736
251,5904025.437632123
336,0.0
385,21.00666666666667
386,28.299999999999997
387,-0.3057317159637072
388,0.0
425,0.0
450,0.0
451,0.0
452,-1.783566544982276
453,0.0
490,0.0
515,0.0
516,0.0
542,0.0
592,2556078.307879553
632,3252024.938957937
686,0.5531652743112339
687,0.5
688,1.1666666666666665
2,21, 1,21, 0, 7,20.00,30.00,Monday
250,21.63275399564219
251,5772349.720724244
336,0.0
385,21.673333333333325
386,28.29999999999999
387,-0.3569729993098274
388,0.0
425,0.0
450,0.0
451,0.0
452,-1.903472106609236
453,0.0
490,0.0
515,0.0
516,0.0
542,0.0
592,3362760.6760570416
632,2373329.0267212787
686,0.7201108761366913
687,0.6666666666666664
688,1.666666666666666
2,21, 1,21, 0, 7,30.00,40.00,Monday
250,21.87176932539181
251,7048092.320086197
336,0.0
385,22.339999999999993
386,28.29999999999999
387,-0.428076151600698
388,0.0
425,0.0
450,0.0
451,0.0
452,-2.0854910266148967
453,0.0
490,0.0
515,0.0
516,0.0
542,0.0
592,4786228.580452008
632,2807741.906902819
686,0.9999999999999997
687,0.9999999999999997
688,1.9999999999999993
2,21, 1,21, 0, 7,40.00,50.00,Monday
250,22.2957983363618
251,8141457.350001858
336,0.0
385,22.34
386,28.3
387,-0.4986425096800049
388,0.0
425,0.0
450,0.0
451,0.0
452,-2.2823730716711177
453,0.0
490,0.0
515,0.0
516,0.0
542,0.0
592,4806706.0526607195
632,3198584.687942588
686,1.0
687,1.0
688,2.0
2,21, 1,21, 0, 7,50.00,60.00,Monday
250,21.23378673018821
251,5975540.920987675
336,0.0
385,21.00666666666664
386,28.299999999999965
387,-0.5665263120123908
388,0.0
425,0.0
450,0.0
451,0.0
452,-2.488060861823765
453,0.0
490,0.0
515,0.0
516,0.0
542,0.0
592,2608658.7471921216
632,3272331.1331546367
686,0.5559267089002778
687,0.49999999999999933
688,1.166666666666665
2,21, 1,21, 0, 8, 0.00,10.00,Monday
250,21.62651682047524
251,5462231.534357344
336,0.0
385,21.673333333333332
386,28.300000000000004
387,-0.6357107401056719
388,0.0
425,0.0
450,0.0
451,0.0
452,-2.710040862605057
453,0.0
490,0.0
515,0.0
516,0.0
542,0.0
592,3318599.5733662723
632,2136623.04920569
686,0.6935907132877352
687,0.6666666666666666
688,1.6666666666666665
2,21, 1,21, 0, 8,10.00,20.00,Monday
250,21.86706185163511
251,6664605.366191778
336,0.0
385,22.34
386,28.3
387,-0.7076744655602255
388,0.0
425,0.0
450,0.0
451,0.0
452,-2.8908570645178213
453,0.0
490,0.0
515,0.0
516,0.0
542,0.0
592,4846401.248249803
632,2371118.620784173
686,1.0
687,1.0
688,2.0
2,21, 1,21, 0, 8,20.00,30.00,Monday
250,22.295292225595738
251,7712821.297827059
336,0.0
385,22.34
386,28.3
387,-0.7568955428627449
388,0.0
425,0.0
450,0.0
451,0.0
452,-2.9176006869336986
453,0.0
490,0.0
515,0.0
516,0.0
542,0.0
592,4857204.786682352
632,2720637.409296603
686,1.0
687,1.0
688,2.0
2,21, 1,21, 0, 8,30.00,40.00,Monday
250,21.26058585836061
251,5453137.6203501355
336,0.0
385,21.006666666666653
386,28.299999999999986
387,-0.7822312672428433
388,0.0
425,0.0
450,0.0
451,0.0
452,-2.8089752689399474
453,0.0
490,0.0
515,0.0
516,0.0
542,0.0
592,2468826.3390557906
632,2887984.330792181
686,0.5296751662262872
687,0.4467372984403323
688,1.1666666666666659
2,21, 1,21, 0, 8,40.00,50.00,Monday
250,21.622837772215163
251,5190080.524160617
336,0.0
385,21.67333333333335
386,28.300000000000022
387,-0.7953277383620181
388,0.0
425,0.0
450,0.0
451,0.0
452,-2.5943029369495236
453,0.0
490,0.0
515,0.0
516,0.0
542,0.0
592,3274961.5402931096
632,1925901.6730995052
686,0.6730470952455782
687,0.6666666666666672
688,1.6666666666666679
2,21, 1,21, 0, 8,50.00,60.00,Monday
250,22.27005442663514
251,7222657.393732185
336,0.0
385,22.34
386,28.3
387,-0.7924933953916069
388,0.0
425,0.0
450,0.0
451,0.0
452,-2.272274691866393
453,0.0
490,0.0
515,0.0
516,0.0
542,0.0
592,4889043.076762663
632,2262314.4135314515
686,1.0
687,1.0
688,2.0
2,21, 1,21, 0, 9, 0.00,10.00,Monday
250,21.39310461341767
251,4472053.153116846
336,0.0
385,21.34
386,28.3
387,-0.7649542597452264
388,0.0
425,0.0
450,0.0
451,0.0
452,-1.7662336190467673
453,0.0
490,0.0
515,0.0
516,0.0
542,0.0
592,3161194.9479471194
632,987980.382736838
686,0.6995051814058808
687,0.5
688,1.5
2,21, 1,21, 0, 9,10.00,20.00,Monday
250,22.24869487695797
251,7997543.901031774
336,0.0
385,22.34
386,28.3
387,-0.7115184467243637
388,0.0
425,0.0
450,0.0
451,0.0
452,-1.219944179498591
453,0.0
490,0.0
515,0.0
516,0.0
542,0.0
592,4366829.690686294
632,3634746.711292655
686,1.0
687,0.5883795231605407
688,2.0
2,21, 1,21, 0, 9,20.00,30.00,Monday
250,21.384429152203168
251,4426080.653342826
336,0.0
385,21.34
386,28.3
387,-0.6393677578933235
388,0.0
425,0.0
450,0.0
451,0.0
452,-0.6278695874513431
453,0.0
490,0.0
515,0.0
516,0.0
542,0.0
592,3093575.2539004562
632,1039745.3852897221
686,0.6742401982270918
687,0.5
688,1.5
2,21, 1,21, 0, 9,30.00,40.00,Monday
250,21.683208043128328
251,4633190.12662647
336,0.0
385,21.67333333333335
386,28.300000000000022
387,-0.5722873526595673
388,0.0
425,0.0
450,0.0
451,0.0
452,-0.10966211915970317
453,0.0
490,0.0
515,0.0
516,0.0
542,0.0
592,3233558.543027163
632,1397649.059406864
686,0.6666666666666672
687,0.6139496472412993
688,1.3333333333333344
2,21, 1,21, 0, 9,40.00,50.00,Monday
250,21.308414388429156
251,4617010.403618151
336,0.0
385,21.140000000000004
386,28.3
387,-0.5110460129497517
388,0.0
425,0.0
450,0.0
451,0.0
452,0.41439981936855447
453,0.0
490,0.0
515,0.0
516,0.0
542,0.0
592,2242828.420606501
632,2420479.567309028
686,0.4701596528008341
687,0.4
688,1.0
2,21, 1,21, 0, 9,50.00,60.00,Monday
250,21.60399117734092
251,6262673.050862012
336,0.0
385,21.67333333333335
386,28.300000000000022
387,-0.43555302470561175
388,0.0
425,0.0
450,0.0
451,0.0
452,0.9571791643377989
453,0.0
490,0.0
515,0.0
516,0.0
542,0.0
592,3492189.3252496254
632,2831391.6350542535
686,0.8361519524076189
687,0.3333333333333336
688,1.3333333333333344
2,21, 1,21, 0,10, 0.00,10.00,Monday
250,21.733290694558246
251,4601169.028905535
336,0.0
385,21.673333333333332
386,28.300000000000004
387,-0.3188166722918268
388,0.0
425,0.0
450,0.0
451,0.0
452,1.64660557779436
453,0.0
490,0.0
515,0.0
516,0.0
542,0.0
592,3350912.0161235193
632,1207607.3231149763
686,0.6666666666666666
687,0.6666666666666666
688,1.3333333333333333
2,21, 1,21, 0,10,10.00,20.00,Monday
250,21.33241483058625
251,4420775.142694796
336,0.0
385,21.140000000000004
386,28.3
387,-0.23589928953454697
388,0.0
425,0.0
450,0.0
451,0.0
452,2.1187777437867363
453,0.0
490,0.0
515,0.0
516,0.0
542,0.0
592,2219898.7214740287
632,2242251.1612832686
686,0.4535650157067813
687,0.4
688,1.0
2,21, 1,21, 0,10,20.00,30.00,Monday
250,21.601580653209506
251,6003965.667645232
336,0.0
385,21.673333333333325
386,28.29999999999999
387,-0.1405708453446439
388,0.0
425,0.0
450,0.0
451,0.0
452,2.6417311855251215
453,0.0
490,0.0
515,0.0
516,0.0
542,0.0
592,3348297.8060793383
632,2734770.9299951135
686,0.7785706000293494
687,0.3333333333333332
688,1.3333333333333328
2,21, 1,21, 0,10,30.00,40.00,Monday
250,21.75596019156967
251,4412509.472012354
336,0.0
385,21.673333333333343
386,28.30000000000001
387,0.007018034905156376
388,0.0
425,0.0
450,0.0
451,0.0
452,3.366751930397686
453,0.0
490,0.0
515,0.0
516,0.0
542,0.0
592,3417647.1992494445
632,952687.8122692881
686,0.6666666666666667
687,0.6666666666666667
688,1.3333333333333335
2,21, 1,21, 0,10,40.00,50.00,Monday
250,21.358332525883334
251,4188461.255242801
336,0.0
385,21.140000000000004
386,28.3
387,0.1166003822009683
388,0.0
425,0.0
450,0.0
451,0.0
452,3.9446649369825546
453,0.0
490,0.0
515,0.0
516,0.0
542,0.0
592,2133528.5038475976
632,2095637.9002041635
686,0.4347752008464658
687,0.3563691274409069
688,1.0
2,21, 1,21, 0,10,50.00,60.00,Monday
250,21.59815910512046
251,5639250.052354249
336,0.0
385,21.67333333333335
386,28.300000000000022
387,0.2472856153632843
388,0.0
425,0.0
450,0.0
451,0.0
452,4.636372787217923
453,0.0
490,0.0
515,0.0
516,0.0
542,0.0
592,3134072.262185063
632,2609676.0173205975
686,0.7046226963240618
687,0.3333333333333336
688,1.3333333333333344
2,21, 1,21, 0,11, 0.00,10.00,Monday
250,21.78758172089603
251,4148217.320120233
336,0.0
385,21.673333333333332
386,28.300000000000004
387,0.4563324089376052
388,0.0
425,0.0
450,0.0
451,0.0
452,5.607678627351265
453,0.0
490,0.0
515,0.0
516,0.0
542,0.0
592,3474496.142781209
632,632127.6289580532
686,0.6666666666666666
687,0.6666666666666666
688,1.3333333333333333
2,21, 1,21, 0,11,10.00,20.00,Monday
250,21.388097618945107
251,3918761.4515673225
336,0.0
385,21.140000000000004
386,28.3
387,0.6050736595509056
388,0.0
425,0.0
450,0.0
451,0.0
452,6.353367915015867
453,0.0
490,0.0
515,0.0
516,0.0
542,0.0
592,1899308.5147413895
632,2067778.538369509
686,0.41295575049564426
687,0.22700352775649968
688,1.0
2,21, 1,21, 0,11,20.00,30.00,Monday
250,21.444616931690987
251,4007860.514502591
336,0.0
385,21.34
386,28.3
387,0.7729908931811106
388,0.0
425,0.0
450,0.0
451,0.0
452,7.193843831727374
453,0.0
490,0.0
515,0.0
516,0.0
542,0.0
592,1597475.6940358374
632,2569814.497609138
686,0.3249720706941538
687,0.25
688,1.0
2,21, 1,21, 0,11,30.00,40.00,Monday
250,21.480386553679654
251,4795737.509113291
336,0.0
385,21.34
386,28.3
387,1.0356915176152854
388,0.0
425,0.0
450,0.0
451,0.0
452,8.299249094583137
453,0.0
490,0.0
515,0.0
516,0.0
542,0.0
592,2891534.792548828
632,1864828.3533234347
686,0.5927890991716616
687,0.4320046602498796
688,1.25
2,21, 1,21, 0,11,40.00,50.00,Monday
250,21.483722828211405
251,4721755.650855056
336,0.0
385,21.34
386,28.3
387,1.2776177391652048
388,0.0
425,0.0
450,0.0
451,0.0
452,9.192690130839004
453,0.0
490,0.0
515,0.0
516,0.0
542,0.0
592,2818586.5838181255
632,1866607.824862318
686,0.58740847746222
687,0.38825925069913186
688,1.25
2,21, 1,21, 0,11,50.00,60.00,Monday
250,21.485902762688298
251,4672023.353981684
336,0.0
385,21.34
386,28.3
387,1.5060978085646721
388,0.0
425,0.0
450,0.0
451,0.0
452,9.954820006113703
453,0.0
490,0.0
515,0.0
516,0.0
542,0.0
592,2778538.4768739906
632,1860579.7052534549
686,0.5829920647452835
687,0.3652746102469741
688,1.25
2,21, 1,21, 0,12, 0.00,10.00,Monday
250,21.486622978656314
251,4647439.215380609
336,0.0
385,21.34
386,28.3
387,1.7255378253745841
388,0.0
425,0.0
450,0.0
451,0.0
452,10.596350719900617
453,0.0
490,0.0
515,0.0
516,0.0
542,0.0
592,2754140.8557280516
632,1862568.0945337815
686,0.5809884133353214
687,0.35095861073815837
688,1.25
2,21, 1,21, 0,12,10.00,20.00,Monday
250,21.487682077490383
251,4624621.198697785
336,0.0
385,21.34
386,28.3
387,1.933199239442255
388,0.0
425,0.0
450,0.0
451,0.0
452,11.099973666395432
453,0.0
490,0.0
515,0.0
516,0.0
542,0.0
592,2738823.43910965
632,1856397.9545499308
686,0.5788719909859357
687,0.3433212515335857
688,1.25
2,21, 1,21, 0,12,20.00,30.00,Monday
250,21.488781121241647
251,4599853.521320273
336,0.0
385,21.34
386,28.3
387,2.1255086796330533
388,0.0
425,0.0
450,0.0
451,0.0
452,11.474012399969903
453,0.0
490,0.0
515,0.0
516,0.0
542,0.0
592,2721412.9233230473
632,1850504.9622989134
686,0.5765979985585414
687,0.334689932343908
688,1.25
2,21, 1,21, 0,12,30.00,40.00,Monday
250,21.489390158538
251,4581154.178413375
336,0.0
385,21.34
386,28.3
387,2.298127617035181
388,0.0
425,0.0
450,0.0
451,0.0
452,11.720625759469817
453,0.0
490,0.0
515,0.0
516,0.0
542,0.0
592,2708036.6384343985
632,1846336.0653913447
686,0.5748104175810722
687,0.3275923983397544
688,1.25
2,21, 1,21, 0,12,40.00,50.00,Monday
250,21.489809963447243
251,4568613.562772369
336,0.0
385,21.34
386,28.3
387,2.4476017198396574
388,0.0
425,0.0
450,0.0
451,0.0
452,11.81664741351811
453,0.0
490,0.0
515,0.0
516,0.0
542,0.0
592,2700235.705711199
632,1842373.667125947
686,0.5735653767588231
687,0.322933207961675
688,1.25
2,21, 1,21, 0,12,50.00,60.00,Monday
250,21.490170844454223
251,4558001.655960024
336,0.0
385,21.34
386,28.3
387,2.5730939000625903
388,0.0
425,0.0
450,0.0
451,0.0
452,11.770646450021331
453,0.0
490,0.0
515,0.0
516,0.0
542,0.0
592,2694756.403745462
632,1837829.1098539173
686,0.5724601208362766
687,0.3195270577317235
688,1.25
2,21, 1,21, 0,13, 0.00,10.00,Monday
250,21.489950062410124
251,4555027.444519535
336,0.0
385,21.34
386,28.3
387,2.6778787201597463
388,0.0
425,0.0
450,0.0
451,0.0
452,11.651837321646871
453,0.0
490,0.0
515,0.0
516,0.0
542,0.0
592,2692421.8245566
632,1837069.4247386986
686,0.5721254323868822
687,0.32012230799579827
688,1.25
2,21, 1,21, 0,13,10.00,20.00,Monday
250,21.49294798688052
251,4510697.154848178
336,0.0
385,21.34
386,28.3
387,2.7675943836382224
388,0.0
425,0.0
450,0.0
451,0.0
452,11.541609158838456
453,0.0
490,0.0
515,0.0
516,0.0
542,0.0
592,2666459.4844750967
632,1820159.5500190011
686,0.5681896957358428
687,0.31401830826162075
688,1.25
2,21, 1,21, 0,13,20.00,30.00,Monday
250,21.495729732956203
251,4452462.801454592
336,0.0
385,21.34
386,28.3
387,2.847395591469638
388,0.0
425,0.0
450,0.0
451,0.0
452,11.473693817101676
453,0.0
490,0.0
515,0.0
516,0.0
542,0.0
592,2617453.2193228076
632,1814221.1134257338
686,0.5633607283971901
687,0.2943130559488841
688,1.25
2,21, 1,21, 0,13,30.00,40.00,Monday
250,21.498231231900107
251,4409392.287255058
336,0.0
385,21.34
386,28.3
387,2.9222777417618264
388,0.0
425,0.0
450,0.0
451,0.0
452,11.439309201837391
453,0.0
490,0.0
515,0.0
516,0.0
542,0.0
592,2569680.545433171
632,1822916.76078597
686,0.5607242416496078
687,0.26952360679870974
688,1.25
2,21, 1,21, 0,13,40.00,50.00,Monday
250,21.500832299918308
251,4360315.250992653
336,0.0
385,21.34
386,28.3
387,2.995342823404326
388,0.0
425,0.0
450,0.0
451,0.0
452,11.421715164942047
453,0.0
490,0.0
515,0.0
516,0.0
542,0.0
592,2523017.8215389247
632,1824292.779642615
686,0.5564044941010058
687,0.25
688,1.0
2,21, 1,21, 0,13,50.00,60.00,Monday
250,21.5031732303302
251,4309641.196189661
336,0.0
385,21.34
386,28.3
387,3.0672405566334615
388,0.0
425,0.0
450,0.0
451,0.0
452,11.409984060556745
453,0.0
490,0.0
515,0.0
516,0.0
542,0.0
592,2475854.650366244
632,1826125.1368370003
686,0.5447225911758014
687,0.25
688,1.0
2,21, 1,21, 0,14, 0.00,10.00,Monday
250,21.50691890599066
251,4238123.925843427
336,0.0
385,21.34
386,28.3
387,3.139518575550764
388,0.0
425,0.0
450,0.0
451,0.0
452,11.367569526486971
453,0.0
490,0.0
515,0.0
516,0.0
542,0.0
592,2419238.0849830476
632,1818385.4089820883
686,0.5287101329557935
687,0.25
688,1.0
2,21, 1,21, 0,14,10.00,20.00,Monday
250,21.5077997378115
251,4195933.133254552
336,0.0
385,21.34
386,28.3
387,3.210337589985447
388,0.0
425,0.0
450,0.0
451,0.0
452,11.250815476038607
453,0.0
490,0.0
515,0.0
516,0.0
542,0.0
592,2376645.2929043956
632,1824670.8180364543
686,0.5163896693379121
687,0.25
688,1.0
2,21, 1,21, 0,14,20.00,30.00,Monday
250,21.509035032959194
251,4167447.422169312
336,0.0
385,21.34
386,28.3
387,3.275044815916692
388,0.0
425,0.0
450,0.0
451,0.0
452,11.058528883733741
453,0.0
490,0.0
515,0.0
516,0.0
542,0.0
592,2353947.9382465547
632,1822315.3222762567
686,0.5092170084349994
687,0.25
688,1.0
2,21, 1,21, 0,14,30.00,40.00,Monday
250,21.509327939275643
251,4151894.3140009516
336,0.0
385,21.34
386,28.3
387,3.326116287694422
388,0.0
425,0.0
450,0.0
451,0.0
452,10.77582682006275
453,0.0
490,0.0
515,0.0
516,0.0
542,0.0
592,2340023.7123399903
632,1823135.2793530293
686,0.5043279291300475
687,0.25
688,1.0
2,21, 1,21, 0,14,40.00,50.00,Monday
250,21.50914755671791
251,4142729.3964198804
336,0.0
385,21.34
386,28.3
387,3.357388680871529
388,0.0
425,0.0
450,0.0
451,0.0
452,10.3676459315248
453,0.0
490,0.0
515,0.0
516,0.0
542,0.0
592,2336582.521898232
632,1818116.9112815075
686,0.5021316192717886
687,0.25
688,1.0
2,21, 1,21, 0,14,50.00,60.00,Monday
250,21.509431456892457
251,4134332.2630878184
336,0.0
385,21.34
386,28.3
387,3.3678247314542338
388,0.0
425,0.0
450,0.0
451,0.0
452,9.838033471627755
453,0.0
490,0.0
515,0.0
516,0.0
542,0.0
592,2340729.2878595036