Program Version,EnergyPlus, Version 24.2.0-94a887817b, YMD=2025.02.11 00:15
1,5,Environment Title[],Latitude[deg],Longitude[deg],Time Zone[],Elevation[m]
2,8,Day of Simulation[],Month[],Day of Month[],DST Indicator[1=yes 0=no],Hour[],StartMinute[],EndMinute[],DayType
3,5,Cumulative Day of Simulation[],Month[],Day of Month[],DST Indicator[1=yes 0=no],DayType  ! When Daily Meters Requested
4,2,Cumulative Days of Simulation[],Month[]  ! When Monthly Meters Requested
5,1,Cumulative Days of Simulation[] ! When Run Period Meters Requested
6,1,Calendar Year of Simulation[] ! When Annual Meters Requested
11,9,Electricity:Facility [J] !Monthly [Value,Min,Day,Hour,Minute,Max,Day,Hour,Minute]
23,9,Electricity:Building [J] !Monthly [Value,Min,Day,Hour,Minute,Max,Day,Hour,Minute]
59,9,InteriorLights:Electricity [J] !Monthly [Value,Min,Day,Hour,Minute,Max,Day,Hour,Minute]
521,9,Electricity:HVAC [J] !Monthly [Value,Min,Day,Hour,Minute,Max,Day,Hour,Minute]
637,9,NaturalGas:Facility [J] !Monthly [Value,Min,Day,Hour,Minute,Max,Day,Hour,Minute]
649,9,NaturalGas:HVAC [J] !Monthly [Value,Min,Day,Hour,Minute,Max,Day,Hour,Minute]
13,11,Electricity:Facility [J] !RunPeriod [Value,Min,Month,Day,Hour,Minute,Max,Month,Day,Hour,Minute]
25,11,Electricity:Building [J] !RunPeriod [Value,Min,Month,Day,Hour,Minute,Max,Month,Day,Hour,Minute]
61,11,InteriorLights:Electricity [J] !RunPeriod [Value,Min,Month,Day,Hour,Minute,Max,Month,Day,Hour,Minute]
523,11,Electricity:HVAC [J] !RunPeriod [Value,Min,Month,Day,Hour,Minute,Max,Month,Day,Hour,Minute]
639,11,NaturalGas:Facility [J] !RunPeriod [Value,Min,Month,Day,Hour,Minute,Max,Month,Day,Hour,Minute]
651,11,NaturalGas:HVAC [J] !RunPeriod [Value,Min,Month,Day,Hour,Minute,Max,Month,Day,Hour,Minute]
End of Data Dictionary
1,RUN PERIOD 1,  41.98, -87.92,  -6.00, 201.00
4,31, 1
11,8563987646.334579,305791.1642544082,10,19,10,3520339.793617143,14,13,20
23,1946476670.2944355,106724.63597532304,11,20,50,1082591.795787666,30,13,60
59,1020819334.3383063,31565.22369629634, 1, 1,10,631304.4739259267, 1, 8,10
521,6617510976.040155,0.0,11,13,30,2537176.323815744,27,20,40
637,15067548721.02527,0.0, 1,10,60,19586338.83169938,31, 7,60
649,15067548721.02527,0.0, 1,10,60,19586338.83169938,31, 7,60
4,59, 2
11,6955346051.403646,242226.32178043353, 9,14,40,-99999999999999.0,14,13,20
23,1715959999.6414099,99999999999999.0,11,20,50,1082904.935162165, 4, 9,60
59,892412004.3417474,99999999999999.0, 1, 1,10,-99999999999999.0, 1, 8,10
521,5239386051.762235,99999999999999.0,11,13,30,-99999999999999.0,27,20,40
637,12354583943.591278,99999999999999.0, 1,10,60,20131015.200863898, 3, 8,30
649,12354583943.591278,99999999999999.0, 1,10,60,20131015.200863898, 3, 8,30
4,90, 3
11,6873209736.58672,93430.08724324555,31,16,60,3525935.4332925905,18,14,40
23,1809667741.5774446,93430.08724324555,31,16,60,1093233.1354936855,18, 9,60
59,944305232.0984792,99999999999999.0, 1, 1,10,-99999999999999.0, 1, 8,10
521,5063541995.009299,99999999999999.0,11,13,30,-99999999999999.0,27,20,40
637,8893223962.062984,99999999999999.0, 1,10,60,-99999999999999.0, 3, 8,30
649,8893223962.062984,99999999999999.0, 1,10,60,-99999999999999.0, 3, 8,30
4,120, 4
11,4173162938.0226107,31565.22369629634, 5, 2,30,-99999999999999.0,18,14,40
23,1743238577.7799773,31565.22369629634, 5, 2,30,-99999999999999.0,18, 9,60
59,978016891.0061237,99999999999999.0, 1, 1,10,-99999999999999.0, 1, 8,10
521,2429924360.242632,99999999999999.0,11,13,30,-99999999999999.0,27,20,40
637,3423155217.891241,99999999999999.0, 1,10,60,-99999999999999.0, 3, 8,30
649,3423155217.891241,99999999999999.0, 1,10,60,-99999999999999.0, 3, 8,30
4,151, 5
11,3232472792.0061193,99999999999999.0, 5, 2,30,-99999999999999.0,18,14,40
23,1724722814.5213058,99999999999999.0, 5, 2,30,-99999999999999.0,18, 9,60
59,1020819334.3383063,99999999999999.0, 1, 1,10,-99999999999999.0, 1, 8,10
521,1507749977.4847937,99999999999999.0,11,13,30,-99999999999999.0,27,20,40
637,771845596.8909065,99999999999999.0, 1,10,60,-99999999999999.0, 3, 8,30
649,771845596.8909065,99999999999999.0, 1,10,60,-99999999999999.0, 3, 8,30
4,181, 6
11,3204764968.479433,99999999999999.0, 5, 2,30,-99999999999999.0,18,14,40
23,1455193768.9055943,99999999999999.0, 5, 2,30,-99999999999999.0,18, 9,60
59,901502788.7662959,99999999999999.0, 1, 1,10,-99999999999999.0, 1, 8,10
521,1749571199.5738099,99999999999999.0,11,13,30,-99999999999999.0,27,20,40
637,31100860.420486614,99999999999999.0, 1,10,60,-99999999999999.0, 3, 8,30
649,31100860.420486614,99999999999999.0, 1,10,60,-99999999999999.0, 3, 8,30
4,212, 7
11,4134567373.454912,99999999999999.0, 5, 2,30,-99999999999999.0,18,14,40
23,1564611434.147185,99999999999999.0, 5, 2,30,-99999999999999.0,18, 9,60
59,1020819334.3383063,99999999999999.0, 1, 1,10,-99999999999999.0, 1, 8,10
521,2569955939.3076987,99999999999999.0,11,13,30,-99999999999999.0,27,20,40
637,0.0,99999999999999.0, 1,10,60,-99999999999999.0, 3, 8,30
649,0.0,99999999999999.0, 1,10,60,-99999999999999.0, 3, 8,30
4,243, 8
11,3645835220.544121,99999999999999.0, 5, 2,30,-99999999999999.0,18,14,40
23,1532748373.445435,99999999999999.0, 5, 2,30,-99999999999999.0,18, 9,60
59,982562283.218391,99999999999999.0, 1, 1,10,-99999999999999.0, 1, 8,10
521,2113086847.098672,99999999999999.0,11,13,30,-99999999999999.0,27,20,40
637,7024327.309241332,99999999999999.0, 1,10,60,-99999999999999.0, 3, 8,30
649,7024327.309241332,99999999999999.0, 1,10,60,-99999999999999.0, 3, 8,30
4,273, 9
11,2897282947.073766,99999999999999.0, 5, 2,30,-99999999999999.0,18,14,40
23,1538449239.4241898,99999999999999.0, 5, 2,30,-99999999999999.0,18, 9,60
59,939759839.8862088,99999999999999.0, 1, 1,10,-99999999999999.0, 1, 8,10
521,1358833707.649567,99999999999999.0,11,13,30,-99999999999999.0,27,20,40
637,42251234.8818521,99999999999999.0, 1,10,60,-99999999999999.0, 3, 8,30
649,42251234.8818521,99999999999999.0, 1,10,60,-99999999999999.0, 3, 8,30
4,304,10
11,3391591962.560949,99999999999999.0, 5, 2,30,-99999999999999.0,18,14,40
23,1777253171.1899266,99999999999999.0, 5, 2,30,-99999999999999.0,18, 9,60
59,1020819334.3383063,99999999999999.0, 1, 1,10,-99999999999999.0, 1, 8,10
521,1614338791.3710139,99999999999999.0,11,13,30,-99999999999999.0,27,20,40
637,1688339827.5533524,99999999999999.0, 1,10,60,-99999999999999.0, 3, 8,30
649,1688339827.5533524,99999999999999.0, 1,10,60,-99999999999999.0, 3, 8,30
4,334,11
11,5724215763.860726,99999999999999.0, 5, 2,30,-99999999999999.0,18,14,40
23,1746686237.1972456,99999999999999.0, 5, 2,30,-99999999999999.0,18, 9,60
59,939759839.8862046,99999999999999.0, 1, 1,10,-99999999999999.0, 1, 8,10
521,3977529526.663483,99999999999999.0,11,13,30,-99999999999999.0,27,20,40
637,7411334341.894127,99999999999999.0, 1,10,60,-99999999999999.0, 3, 8,30
649,7411334341.894127,99999999999999.0, 1,10,60,-99999999999999.0, 3, 8,30
4,365,12
11,7168325712.728785,99999999999999.0, 5, 2,30,-99999999999999.0,18,14,40
23,1841427004.843386,99999999999999.0, 5, 2,30,-99999999999999.0,18, 9,60
59,982562283.2183914,99999999999999.0, 1, 1,10,-99999999999999.0, 1, 8,10
521,5326898707.885422,99999999999999.0,11,13,30,-99999999999999.0,27,20,40
637,9342121986.603283,99999999999999.0, 1,10,60,-99999999999999.0, 3, 8,30
649,9342121986.603283,99999999999999.0, 1,10,60,-99999999999999.0, 3, 8,30
5,365
13,59964763113.056015,31565.22369629634, 4, 5, 2,30,3525935.4332925905, 3,18,14,40
25,20396435032.96895,31565.22369629634, 4, 5, 2,30,1093233.1354936855, 3,18, 9,60
61,11644158499.774837,31565.22369629634, 1, 1, 1,10,631304.4739259267, 1, 1, 8,10
523,39568328080.088745,0.0, 1,11,13,30,2537176.323815744, 1,27,20,40
639,59032530020.12466,0.0, 1, 1,10,60,20131015.200863898, 2, 3, 8,30
651,59032530020.12466,0.0, 1, 1,10,60,20131015.200863898, 2, 3, 8,30
1,RUN PERIOD 2,  41.98, -87.92,  -6.00, 201.00
4,1, 7
11,124484734.61748849,99999999999999.0, 5, 2,30,-99999999999999.0,18,14,40
23,65972119.1737535,99999999999999.0, 5, 2,30,-99999999999999.0,18, 9,60
59,42802443.3321779,99999999999999.0, 1, 1,10,-99999999999999.0, 1, 8,10
521,58512615.44373486,99999999999999.0,11,13,30,-99999999999999.0,27,20,40
637,0.0,99999999999999.0, 1,10,60,-99999999999999.0, 3, 8,30
649,0.0,99999999999999.0, 1,10,60,-99999999999999.0, 3, 8,30
5,1
13,124484734.61748849,99999999999999.0, 4, 5, 2,30,-99999999999999.0, 3,18,14,40
25,65972119.1737535,99999999999999.0, 4, 5, 2,30,-99999999999999.0, 3,18, 9,60
61,42802443.3321779,99999999999999.0, 1, 1, 1,10,-99999999999999.0, 1, 1, 8,10
523,58512615.44373486,99999999999999.0, 1,11,13,30,-99999999999999.0, 1,27,20,40
639,0.0,99999999999999.0, 1, 1,10,60,-99999999999999.0, 2, 3, 8,30
651,0.0,99999999999999.0, 1, 1,10,60,-99999999999999.0, 2, 3, 8,30
End of Data
 Number of Records Written=          90
