Program Version,EnergyPlus, Version 24.1.0-9d7789a3ac, YMD=2025.04.05 15:39
1,5,Environment Title[],Latitude[deg],Longitude[deg],Time Zone[],Elevation[m]
2,8,Day of Simulation[],Month[],Day of Month[],DST Indicator[1=yes 0=no],Hour[],StartMinute[],EndMinute[],DayType
3,5,Cumulative Day of Simulation[],Month[],Day of Month[],DST Indicator[1=yes 0=no],DayType  ! When Daily Report Variables Requested
4,2,Cumulative Days of Simulation[],Month[]  ! When Monthly Report Variables Requested
5,1,Cumulative Days of Simulation[] ! When Run Period Report Variables Requested
6,1,Calendar Year of Simulation[] ! When Annual Report Variables Requested
250,1,LIVING ZONE,Zone Air Temperature [C] !TimeStep,REPORTSCH
251,1,LIVING ZONE,Zone Air System Sensible Heating Energy [J] !TimeStep,REPORTSCH
336,1,LIVING ZONE,Zone Air System Sensible Cooling Energy [J] !TimeStep,REPORTSCH
385,1,LIVING ZONE,Zone Thermostat Heating Setpoint Temperature [C] !TimeStep,REPORTSCH
386,1,LIVING ZONE,Zone Thermostat Cooling Setpoint Temperature [C] !TimeStep,REPORTSCH
387,1,GARAGE ZONE,Zone Air Temperature [C] !TimeStep,REPORTSCH
388,1,GARAGE ZONE,Zone Air System Sensible Heating Energy [J] !TimeStep,REPORTSCH
425,1,GARAGE ZONE,Zone Air System Sensible Cooling Energy [J] !TimeStep,REPORTSCH
450,1,GARAGE ZONE,Zone Thermostat Heating Setpoint Temperature [C] !TimeStep,REPORTSCH
451,1,GARAGE ZONE,Zone Thermostat Cooling Setpoint Temperature [C] !TimeStep,REPORTSCH
452,1,ATTIC ZONE,Zone Air Temperature [C] !TimeStep,REPORTSCH
453,1,ATTIC ZONE,Zone Air System Sensible Heating Energy [J] !TimeStep,REPORTSCH
490,1,ATTIC ZONE,Zone Air System Sensible Cooling Energy [J] !TimeStep,REPORTSCH
515,1,ATTIC ZONE,Zone Thermostat Heating Setpoint Temperature [C] !TimeStep,REPORTSCH
516,1,ATTIC ZONE,Zone Thermostat Cooling Setpoint Temperature [C] !TimeStep,REPORTSCH
542,1,ACDXCOIL 1,Cooling Coil Total Cooling Energy [J] !TimeStep,REPORTSCH
592,1,HEAT PUMP DX HEATING COIL 1,Heating Coil Heating Energy [J] !TimeStep,REPORTSCH
632,1,SUPP HEATING COIL 1,Heating Coil Heating Energy [J] !TimeStep,REPORTSCH
686,1,TWOSPEED HEAT PUMP 1,Unitary System DX Coil Cycling Ratio [] !TimeStep,REPORTSCH
687,1,TWOSPEED HEAT PUMP 1,Unitary System DX Coil Speed Ratio [] !TimeStep,REPORTSCH
688,1,TWOSPEED HEAT PUMP 1,Unitary System DX Coil Speed Level [] !TimeStep
End of Data Dictionary
1,RUN PERIOD 1,  41.98, -87.92,  -6.00, 201.00
2,21, 1,21, 0, 1, 0.00,10.00,Monday
250,21.533485683851282
251,4584501.165815868
336,0.0
385,21.38
386,26.42
387,0.6381481659354084
388,0.0
425,0.0
450,0.0
451,0.0
452,-1.6102258587891105
453,0.0
490,0.0
515,0.0
516,0.0
542,0.0
592,3230665.6458212626
632,1229025.1353035439
686,0.7382397389640711
687,0.4585773365649532
688,1.25
2,21, 1,21, 0, 1,10.00,20.00,Monday
250,22.293625593383155
251,5635533.197550001
336,0.0
385,22.38
386,26.42
387,0.6091230753916368
388,0.0
425,0.0
450,0.0
451,0.0
452,-1.5996317678877208
453,0.0
490,0.0
515,0.0
516,0.0
542,0.0
592,4737986.753806426
632,844096.3684217623
686,1.0
687,0.9057477445998271
688,2.0
2,21, 1,21, 0, 1,20.00,30.00,Monday
250,22.374012035573198
251,5529077.53258833
336,0.0
385,22.38
386,26.42
387,0.5771247831495773
388,0.0
425,0.0
450,0.0
451,0.0
452,-1.589699104896416
453,0.0
490,0.0
515,0.0
516,0.0
542,0.0
592,4847113.582827375
632,413889.01435519475
686,1.0
687,1.0
688,2.0
2,21, 1,21, 0, 1,30.00,40.00,Monday
250,21.451701878670157
251,3728257.0776266847
336,0.0
385,21.046666666666653
386,26.419999999999987
387,0.5532454603799282
388,0.0
425,0.0
450,0.0
451,0.0
452,-1.5852608405537583
453,0.0
490,0.0
515,0.0
516,0.0
542,0.0
592,1174692.5785063158
632,2592781.556063753
686,0.2714906948563598
687,0.16666666666666644
688,0.6666666666666661
2,21, 1,21, 0, 1,40.00,50.00,Monday
250,22.28579228598742
251,5913360.777885618
336,0.0
385,22.38
386,26.42
387,0.5284810248534391
388,0.0
425,0.0
450,0.0
451,0.0
452,-1.582641338507873
453,0.0
490,0.0
515,0.0
516,0.0
542,0.0
592,4625313.400555067
632,1257996.3217784546
686,1.0
687,0.8551096564793198
688,2.0
2,21, 1,21, 0, 1,50.00,60.00,Monday
250,22.37359375666407
251,5371279.051528573
336,0.0
385,22.38
386,26.42
387,0.4993767494551038
388,0.0
425,0.0
450,0.0
451,0.0
452,-1.5815045766735796
453,0.0
490,0.0
515,0.0
516,0.0
542,0.0
592,4799637.613022598
632,304325.75872899254
686,1.0
687,1.0
688,2.0
2,21, 1,21, 0, 2, 0.00,10.00,Monday
250,21.443820121663702
251,3812318.3364415234
336,0.0
385,21.046666666666663
386,26.419999999999998
387,0.4766302654134108
388,0.0
425,0.0
450,0.0
451,0.0
452,-1.5831000754205011
453,0.0
490,0.0
515,0.0
516,0.0
542,0.0
592,1239588.894665603
632,2597946.7612988525
686,0.29215126755318555
687,0.16666666666666669
688,0.6666666666666666
2,21, 1,21, 0, 2,10.00,20.00,Monday
250,22.28519079195274
251,5981945.817832872
336,0.0
385,22.380000000000003
386,26.42000000000001
387,0.45257752297524184
388,0.0
425,0.0
450,0.0
451,0.0
452,-1.5880172916535709
453,0.0
490,0.0
515,0.0
516,0.0
542,0.0
592,4644508.576502379
632,1308436.76489697
686,1.0000000000000002
687,0.8814444557682252
688,2.0000000000000004
2,21, 1,21, 0, 2,20.00,30.00,Monday
250,22.373530329541854
251,5409761.829495392
336,0.0
385,22.38
386,26.42
387,0.42385088912606383
388,0.0
425,0.0
450,0.0
451,0.0
452,-1.5976258354973807
453,0.0
490,0.0
515,0.0
516,0.0
542,0.0
592,4799637.927105198
632,342939.4980609999
686,1.0
687,1.0
688,2.0
2,21, 1,21, 0, 2,30.00,40.00,Monday
250,21.439613479891992
251,3855789.425783053
336,0.0
385,21.046666666666653
386,26.419999999999987
387,0.40112478275069846
388,0.0
425,0.0
450,0.0
451,0.0
452,-1.608894607118077
453,0.0
490,0.0
515,0.0
516,0.0
542,0.0
592,1276443.7541389037
632,2597714.280341616
686,0.302636966507869
687,0.16666666666666644
688,0.6666666666666661
2,21, 1,21, 0, 2,40.00,50.00,Monday
250,22.28491621834513
251,6023893.604463042
336,0.0
385,22.38
386,26.42
387,0.3768073012933698
388,0.0
425,0.0
450,0.0
451,0.0
452,-1.6236415939690418
453,0.0
490,0.0
515,0.0
516,0.0
542,0.0
592,4661656.375571385
632,1333848.1363972232
686,1.0
687,0.8945745952509792
688,2.0
2,21, 1,21, 0, 2,50.00,60.00,Monday
250,22.37350561335823
251,5440548.62981825
336,0.0
385,22.38
386,26.42
387,0.3475233454506263
388,0.0
425,0.0
450,0.0
451,0.0
452,-1.6435111038795256
453,0.0
490,0.0
515,0.0
516,0.0
542,0.0
592,4799638.07594806
632,373785.56241859804
686,1.0
687,1.0
688,2.0
2,21, 1,21, 0, 3, 0.00,10.00,Monday
250,21.435267622920172
251,3900708.2008566363
336,0.0
385,21.046666666666663
386,26.419999999999998
387,0.3247706611947683
388,0.0
425,0.0
450,0.0
451,0.0
452,-1.6590194138879615
453,0.0
490,0.0
515,0.0
516,0.0
542,0.0
592,1314700.790473699
632,2597422.5796139594
686,0.31351933778820257
687,0.16666666666666669
688,0.6666666666666666
2,21, 1,21, 0, 3,10.00,20.00,Monday
250,22.284599270381843
251,6076734.348854128
336,0.0
385,22.380000000000003
386,26.42000000000001
387,0.3012400571285991
388,0.0
425,0.0
450,0.0
451,0.0
452,-1.6716282159800662
453,0.0
490,0.0
515,0.0
516,0.0
542,0.0
592,4683974.464748383
632,1364848.0489543742
686,1.0000000000000002
687,0.9116632718075623
688,2.0000000000000004
2,21, 1,21, 0, 3,20.00,30.00,Monday
250,22.373472503123207
251,5493412.965823769
336,0.0
385,22.38
386,26.42
387,0.2740201298612112
388,0.0
425,0.0
450,0.0
451,0.0
452,-1.6799595987977296
453,0.0
490,0.0
515,0.0
516,0.0
542,0.0
592,4799638.250129374
632,426728.42122020555
686,1.0
687,1.0
688,2.0
2,21, 1,21, 0, 3,30.00,40.00,Monday
250,21.42939769195844
251,3961324.702677783
336,0.0
385,21.046666666666653
386,26.419999999999987
387,0.25369374737778927
388,0.0
425,0.0
450,0.0
451,0.0
452,-1.6799952867129881
453,0.0
490,0.0
515,0.0
516,0.0
542,0.0
592,1366612.6929106428
632,2596943.523644361
686,0.32828226067672917
687,0.16666666666666644
688,0.6666666666666661
2,21, 1,21, 0, 3,40.00,50.00,Monday
250,22.284116042879997
251,6134255.354396399
336,0.0
385,22.38
386,26.42
387,0.23304452420006938
388,0.0
425,0.0
450,0.0
451,0.0
452,-1.676343186234353
453,0.0
490,0.0
515,0.0
516,0.0
542,0.0
592,4707516.627366529
632,1399657.1909816002
686,1.0
687,0.929690321276639
688,2.0
2,21, 1,21, 0, 3,50.00,60.00,Monday
250,22.373424866427175
251,5539970.46647989
336,0.0
385,22.38
386,26.42
387,0.20945088774174886
388,0.0
425,0.0
450,0.0
451,0.0
452,-1.6683598540411693
453,0.0
490,0.0
515,0.0
516,0.0
542,0.0
592,4799638.464435059
632,473387.20579230395
686,1.0
687,1.0
688,2.0
2,21, 1,21, 0, 4, 0.00,10.00,Monday
250,21.417901759216168
251,4079769.23940879
336,0.0
385,21.046666666666663
386,26.419999999999998
387,0.18747370151460455
388,0.0
425,0.0
450,0.0
451,0.0
452,-1.661091303252266
453,0.0
490,0.0
515,0.0
516,0.0
542,0.0
592,1468133.2171626692
632,2596456.9387835916
686,0.35759421201199276
687,0.16666666666666669
688,0.6666666666666666
2,21, 1,21, 0, 4,10.00,20.00,Monday
250,22.28299992868065
251,6298855.327673674
336,0.0
385,22.380000000000003
386,26.42000000000001
387,0.16083993142407454
388,0.0
425,0.0
450,0.0
451,0.0
452,-1.6548361213884535
453,0.0
490,0.0
515,0.0
516,0.0
542,0.0
592,4774462.988677561
632,1497985.0157214624
686,1.0000000000000002
687,0.9879081003415325
688,2.0000000000000004
2,21, 1,21, 0, 4,20.00,30.00,Monday
250,22.373281456598153
251,5743697.5923068635
336,0.0
385,22.38
386,26.42
387,0.1260084528278935
388,0.0
425,0.0
450,0.0
451,0.0
452,-1.650881606040083
453,0.0
490,0.0
515,0.0
516,0.0
542,0.0
592,4785364.260194519
632,691688.6054171806
686,1.0
687,1.0
688,2.0
2,21, 1,21, 0, 4,30.00,40.00,Monday
250,21.394153175310485
251,4320872.835691843
336,0.0
385,21.046666666666653
386,26.419999999999987
387,0.0966641134898151
388,0.0
425,0.0
450,0.0
451,0.0
452,-1.6529648270899941
453,0.0
490,0.0
515,0.0
516,0.0
542,0.0
592,1676424.2401913335
632,2596556.0739676077
686,0.4185264994802697
687,0.16666666666666644
688,0.6666666666666661
2,21, 1,21, 0, 4,40.00,50.00,Monday
250,22.28092378640747
251,6524138.47983989
336,0.0
385,22.38
386,26.42
387,0.06417324672987311
388,0.0
425,0.0
450,0.0
451,0.0
452,-1.6599419618398412
453,0.0
490,0.0
515,0.0
516,0.0
542,0.0
592,4775490.539651831
632,1727995.9635669023
686,1.0
687,1.0
688,2.0
2,21, 1,21, 0, 4,50.00,60.00,Monday
250,22.373157099152223
251,5937924.002522949
336,0.0
385,22.38
386,26.42
387,0.02371805153503242
388,0.0
425,0.0
450,0.0
451,0.0
452,-1.6720319592321267
453,0.0
490,0.0
515,0.0
516,0.0
542,0.0
592,4769719.234625883
632,901826.750253277
686,1.0
687,1.0
688,2.0
2,21, 1,21, 0, 5, 0.00,10.00,Monday
250,21.380720192248788
251,4450009.094380616
336,0.0
385,21.046666666666663
386,26.419999999999998
387,-0.00013412046041433095
388,0.0
425,0.0
450,0.0
451,0.0
452,-1.6796657195487146
453,0.0
490,0.0
515,0.0
516,0.0
542,0.0
592,1788803.6522868415
632,2598570.1235114755
686,0.4435360034752204
687,0.19091887137511276
688,0.8333333333333333
2,21, 1,21, 0, 5,10.00,20.00,Monday
250,22.279717217287416
251,6555633.243471977
336,0.0
385,22.380000000000003
386,26.42000000000001
387,-0.018317770977506562
388,0.0
425,0.0
450,0.0
451,0.0
452,-1.6820729203233382
453,0.0
490,0.0
515,0.0
516,0.0
542,0.0
592,4757752.417508958
632,1780743.5618583164
686,1.0000000000000002
687,1.0000000000000002
688,2.0000000000000004
2,21, 1,21, 0, 5,20.00,30.00,Monday
250,22.373079359882137
251,5857349.779442081
336,0.0
385,22.38
386,26.42
387,-0.033730498837757944
388,0.0
425,0.0
450,0.0
451,0.0
452,-1.6757522656944137
453,0.0
490,0.0
515,0.0
516,0.0
542,0.0
592,4750777.115731443
632,840326.2641847945
686,1.0
687,1.0
688,2.0
2,21, 1,21, 0, 5,30.00,40.00,Monday
250,21.38929195542833
251,4368110.143617469
336,0.0
385,21.046666666666653
386,26.419999999999987
387,-0.04154293946635952
388,0.0
425,0.0
450,0.0
451,0.0
452,-1.6606907042043737
453,0.0
490,0.0
515,0.0
516,0.0
542,0.0
592,1710683.235304555
632,2602814.968176496
686,0.4319253627186105
687,0.16666666666666644
688,0.6666666666666661
2,21, 1,21, 0, 5,40.00,50.00,Monday
250,22.280585733044894
251,6480837.145263711
336,0.0
385,22.38
386,26.42
387,-0.047102650109073566
388,0.0
425,0.0
450,0.0
451,0.0
452,-1.6379069642070299
453,0.0
490,0.0
515,0.0
516,0.0
542,0.0
592,4735881.4180895295
632,1725587.3669391738
686,1.0
687,1.0
688,2.0
2,21, 1,21, 0, 5,50.00,60.00,Monday
250,22.373137430431008
251,5791031.869102394
336,0.0
385,22.38
386,26.42
387,-0.05094845925200079
388,0.0
425,0.0
450,0.0
451,0.0
452,-1.6048088106792309
453,0.0
490,0.0
515,0.0
516,0.0
542,0.0
592,4728066.781003462
632,796612.929103952
686,1.0
687,1.0
688,2.0
2,21, 1,21, 0, 6, 0.00,10.00,Monday
250,21.3894932832324
251,4366069.794923835
336,0.0
385,21.046666666666663
386,26.419999999999998
387,-0.06033508249540101
388,0.0
425,0.0
450,0.0
451,0.0
452,-1.5810166667906254
453,0.0
490,0.0
515,0.0
516,0.0
542,0.0
592,1705056.1721819493
632,2606166.005749481
686,0.4322385002994216
687,0.16666666666666669
688,0.6666666666666666
2,21, 1,21, 0, 6,10.00,20.00,Monday
250,22.280736537669128
251,6551728.764277734
336,0.0
385,22.380000000000003
386,26.42000000000001
387,-0.07646537611005934
388,0.0
425,0.0
450,0.0
451,0.0
452,-1.5649933918480028
453,0.0
490,0.0
515,0.0
516,0.0
542,0.0
592,4720267.680426892
632,1812081.3043423407
686,1.0000000000000002
687,1.0000000000000002
688,2.0000000000000004
2,21, 1,21, 0, 6,20.00,30.00,Monday
250,22.373167572138488
251,5933531.7519495515
336,0.0
385,22.38
386,26.42
387,-0.10163783146790947
388,0.0
425,0.0
450,0.0
451,0.0
452,-1.559655778546506
453,0.0
490,0.0
515,0.0
516,0.0
542,0.0
592,4716182.400654393
632,950975.2094509106
686,1.0
687,1.0
688,2.0
2,21, 1,21, 0, 6,30.00,40.00,Monday
250,21.37281589055317
251,4523314.433620894
336,0.0
385,21.046666666666653
386,26.419999999999987
387,-0.12542834693084387
388,0.0
425,0.0
450,0.0
451,0.0
452,-1.5696489492701917
453,0.0
490,0.0
515,0.0
516,0.0
542,0.0
592,1845871.9365647924
632,2607012.157838091
686,0.4514811762710541
687,0.22952548642673648
688,0.8333333333333326
2,21, 1,21, 0, 6,40.00,50.00,Monday
250,22.279271579894726
251,6702117.463793455
336,0.0
385,22.38
386,26.42
387,-0.15342365339129138
388,0.0
425,0.0
450,0.0
451,0.0
452,-1.5896591519214633
453,0.0
490,0.0
515,0.0
516,0.0
542,0.0
592,4707847.969612397
632,1979283.2681483026
686,1.0
687,1.0
688,2.0
2,21, 1,21, 0, 6,50.00,60.00,Monday
250,22.373090135407907
251,6064170.674880774
336,0.0
385,22.38
386,26.42
387,-0.1898245969596365
388,0.0
425,0.0
450,0.0
451,0.0
452,-1.6222256347508086
453,0.0
490,0.0
515,0.0
516,0.0
542,0.0
592,4702858.867334561
632,1095102.5503086753
686,1.0
687,1.0
688,2.0
2,21, 1,21, 0, 7, 0.00,10.00,Monday
250,21.355256951612933
251,4685827.115832352
336,0.0
385,21.046666666666663
386,26.419999999999998
387,-0.22419509161160048
388,0.0
425,0.0
450,0.0
451,0.0
452,-1.6676431932631903
453,0.0
490,0.0
515,0.0
516,0.0
542,0.0
592,1997898.4809167546
632,2604040.288633512
686,0.46705589692100635
687,0.3031639249565773
688,0.8333333333333333
2,21, 1,21, 0, 7,10.00,20.00,Monday
250,22.27762505053464
251,6834345.002568351
336,0.0
385,22.380000000000003
386,26.42000000000001
387,-0.26799183478607386
388,0.0
425,0.0
450,0.0
451,0.0
452,-1.7479675694869283
453,0.0
490,0.0
515,0.0
516,0.0
542,0.0
592,4746588.4532040395
632,2077348.172785657
686,1.0000000000000002
687,1.0000000000000002
688,2.0000000000000004
2,21, 1,21, 0, 7,20.00,30.00,Monday
250,22.37298447665711
251,6132199.1982350955
336,0.0
385,22.38
386,26.42
387,-0.32935255516764095
388,0.0
425,0.0
450,0.0
451,0.0
452,-1.8844460201243545
453,0.0
490,0.0
515,0.0
516,0.0
542,0.0
592,4766373.4643046735
632,1099803.2746443409
686,1.0
687,1.0
688,2.0
2,21, 1,21, 0, 7,30.00,40.00,Monday
250,21.350367299392364
251,4729059.042774485
336,0.0
385,21.046666666666653
386,26.419999999999987
387,-0.3856629475243562
388,0.0
425,0.0
450,0.0
451,0.0
452,-2.036341692744787
453,0.0
490,0.0
515,0.0
516,0.0
542,0.0
592,2049791.5123730525
632,2593752.3738583922
686,0.469830574445106
687,0.31575934363398284
688,0.8333333333333326
2,21, 1,21, 0, 7,40.00,50.00,Monday
250,22.27719915108043
251,6875839.309176883
336,0.0
385,22.38
386,26.42
387,-0.4521591395665285
388,0.0
425,0.0
450,0.0
451,0.0
452,-2.22719629611257
453,0.0
490,0.0
515,0.0
516,0.0
542,0.0
592,4806989.974163262
632,2059659.3174292543
686,1.0
687,1.0
688,2.0
2,21, 1,21, 0, 7,50.00,60.00,Monday
250,22.37296032867108
251,6168554.121707034
336,0.0
385,22.38
386,26.42
387,-0.5395689134197831
388,0.0
425,0.0
450,0.0
451,0.0
452,-2.481404299145157
453,0.0
490,0.0
515,0.0
516,0.0
542,0.0
592,4824638.294283651
632,1077936.6685090892
686,1.0
687,1.0
688,2.0
2,21, 1,21, 0, 8, 0.00,10.00,Monday
250,21.38806338820546
251,4371710.892027239
336,0.0
385,21.046666666666663
386,26.419999999999998
387,-0.6052120546130293
388,0.0
425,0.0
450,0.0
451,0.0
452,-2.6898023018206296
453,0.0
490,0.0
515,0.0
516,0.0
542,0.0
592,1730755.9553962932
632,2588472.603631902
686,0.42892546272445736
687,0.16666666666666669
688,0.6666666666666666
2,21, 1,21, 0, 8,10.00,20.00,Monday
250,22.28086050906475
251,6464792.795069488
336,0.0
385,22.380000000000003
386,26.42000000000001
387,-0.6625105678153438
388,0.0
425,0.0
450,0.0
451,0.0
452,-2.8277598149416514
453,0.0
490,0.0
515,0.0
516,0.0
542,0.0
592,4847003.482768437
632,1598669.9897337672
686,1.0000000000000002
687,1.0000000000000002
688,2.0000000000000004
2,21, 1,21, 0, 8,20.00,30.00,Monday
250,22.373189161049257
251,5750550.392134652
336,0.0
385,22.38
386,26.42
387,-0.7169617245088812
388,0.0
425,0.0
450,0.0
451,0.0
452,-2.863907566173562
453,0.0
490,0.0
515,0.0
516,0.0
542,0.0
592,4856191.735292525
632,627937.0296515062
686,1.0
687,1.0
688,2.0
2,21, 1,21, 0, 8,30.00,40.00,Monday
250,21.406585320449615
251,4186752.164803561
336,0.0
385,21.046666666666653
386,26.419999999999987
387,-0.7442968109638111
388,0.0
425,0.0
450,0.0
451,0.0
452,-2.76065618049907
453,0.0
490,0.0
515,0.0
516,0.0
542,0.0
592,1574519.6294522164
632,2583900.131259515
686,0.38182343767371957
687,0.16666666666666644
688,0.6666666666666661
2,21, 1,21, 0, 8,40.00,50.00,Monday
250,22.282348327134574
251,6273601.77373692
336,0.0
385,22.38
386,26.42
387,-0.75819515701287
388,0.0
425,0.0
450,0.0
451,0.0
452,-2.546427798710224
453,0.0
490,0.0
515,0.0
516,0.0
542,0.0
592,4801746.233674016
632,1450089.8956469365
686,1.0
687,0.9428400902562402
688,2.0
2,21, 1,21, 0, 8,50.00,60.00,Monday
250,21.404096262440753
251,3627172.4092784324
336,0.0
385,21.38
386,26.42
387,-0.7564580584902911
388,0.0
425,0.0
450,0.0
451,0.0
452,-2.1619672143216264
453,0.0
490,0.0
515,0.0
516,0.0
542,0.0
592,2812917.131880549
632,582845.570714535
686,0.6043547435800842
687,0.5
688,1.5
2,21, 1,21, 0, 9, 0.00,10.00,Monday
250,22.286188660747094
251,6948601.599175768
336,0.0
385,22.38
386,26.42
387,-0.7263107904862389
388,0.0
425,0.0
450,0.0
451,0.0
452,-1.7040550607261062
453,0.0
490,0.0
515,0.0
516,0.0
542,0.0
592,3797432.670658557
632,3165513.9542416297
686,0.8781006711141792
687,0.5
688,1.5
2,21, 1,21, 0, 9,10.00,20.00,Monday
250,21.45855962380217
251,3587608.053337519
336,0.0
385,21.046666666666663
386,26.419999999999998
387,-0.6822051578815129
388,0.0
425,0.0
450,0.0
451,0.0
452,-1.2761383028801776
453,0.0
490,0.0
515,0.0
516,0.0
542,0.0
592,1072054.7813912837
632,2580109.8764409255
686,0.2368741277551745
687,0.1666666666666666
688,0.6666666666666665
2,21, 1,21, 0, 9,20.00,30.00,Monday
250,22.28714910993635
251,5637680.284118629
336,0.0
385,22.38
386,26.42
387,-0.6194999414853873
388,0.0
425,0.0
450,0.0
451,0.0
452,-0.7436767917377591
453,0.0
490,0.0
515,0.0
516,0.0
542,0.0
592,4576244.193504747
632,1034548.983206088
686,1.0
687,0.7316824948266532
688,2.0
2,21, 1,21, 0, 9,30.00,40.00,Monday
250,21.221625463677743
251,3718128.865162638
336,0.0
385,21.04666666666668
386,26.420000000000023
387,-0.5473786199650132
388,0.0
425,0.0
450,0.0
451,0.0
452,-0.16913871699706964
453,0.0
490,0.0
515,0.0
516,0.0
542,0.0
592,3304930.3920364315
632,167643.20127089595
686,0.6666666666666672
687,0.6666666666666672
688,1.3333333333333344
2,21, 1,21, 0, 9,40.00,50.00,Monday
250,21.772816458744217
251,4031646.9512045947
336,0.0
385,21.71333333333335
386,26.420000000000023
387,-0.4487093877094952
388,0.0
425,0.0
450,0.0
451,0.0
452,0.5711056729353591
453,0.0
490,0.0
515,0.0
516,0.0
542,0.0
592,2280512.127640345
632,1807539.3873469841
686,0.5056780864049424
687,0.3333333333333336
688,1.0000000000000009
2,21, 1,21, 0, 9,50.00,60.00,Monday
250,21.440096239005634
251,3764689.2843896504
336,0.0
385,21.18
386,26.42
387,-0.3802944503786005
388,0.0
425,0.0
450,0.0
451,0.0
452,1.0534120155291429
453,0.0
490,0.0
515,0.0
516,0.0
542,0.0
592,1712110.4863222716
632,2099609.8347198535
686,0.39518129126567675
687,0.2
688,0.8
2,21, 1,21, 0,10, 0.00,10.00,Monday
250,21.33112282041211
251,4847457.8430506075
336,0.0
385,21.38
386,26.42
387,-0.3032811325580747
388,0.0
425,0.0
450,0.0
451,0.0
452,1.5468073557492203
453,0.0
490,0.0
515,0.0
516,0.0
542,0.0
592,2894804.5606914354
632,2035054.5573376955
686,0.604923610953164
687,0.5
688,1.25
2,21, 1,21, 0,10,10.00,20.00,Monday
250,21.634742344463135
251,5141568.501638698
336,0.0
385,21.713333333333324
386,26.419999999999987
387,-0.21325299445870766
388,0.0
425,0.0
450,0.0
451,0.0
452,2.074700534001223
453,0.0
490,0.0
515,0.0
516,0.0
542,0.0
592,2788676.9191437066
632,2475802.9620210715
686,0.6328944651110808
687,0.3333333333333332
688,1.3333333333333328
2,21, 1,21, 0,10,20.00,30.00,Monday
250,21.402531276248936
251,4607868.688496273
336,0.0
385,21.38
386,26.42
387,-0.11420146017135349
388,0.0
425,0.0
450,0.0
451,0.0
452,2.6187546627105744
453,0.0
490,0.0
515,0.0
516,0.0
542,0.0
592,2812307.877739926
632,1850012.7323281276
686,0.5876245009384617
687,0.45768372971860705
688,1.25
2,21, 1,21, 0,10,30.00,40.00,Monday
250,21.631488742945123
251,4843492.19222335
336,0.0
385,21.713333333333342
386,26.42000000000001
387,-0.0032149655390070753
388,0.0
425,0.0
450,0.0
451,0.0
452,3.208290708126606
453,0.0
490,0.0
515,0.0
516,0.0
542,0.0
592,2583449.6696787337
632,2407478.6865304583
686,0.5681372686911451
687,0.3333333333333336
688,1.333333333333334
2,21, 1,21, 0,10,40.00,50.00,Monday
250,21.414031481740246
251,4361672.216382492
336,0.0
385,21.38
386,26.42
387,0.1177270471804594
388,0.0
425,0.0
450,0.0
451,0.0
452,3.8557742531326635
453,0.0
490,0.0
515,0.0
516,0.0
542,0.0
592,2628437.321450991
632,1793659.9957183152
686,0.5673627308576851
687,0.3520944099625677
688,1.25
2,21, 1,21, 0,10,50.00,60.00,Monday
250,21.62860645804547
251,4569254.992793512
336,0.0
385,21.71333333333335
386,26.420000000000023
387,0.2595915345933658
388,0.0
425,0.0
450,0.0
451,0.0
452,4.588215678391629
453,0.0
490,0.0
515,0.0
516,0.0
542,0.0
592,2426429.0540030925
632,2310525.469590495
686,0.5177247093582258
687,0.3333333333333336
688,1.3333333333333344
2,21, 1,21, 0,11, 0.00,10.00,Monday
250,21.425356764807724
251,4138239.9513870287
336,0.0
385,21.38
386,26.42
387,0.41530559655009325
388,0.0
425,0.0
450,0.0
451,0.0
452,5.37929878633867
453,0.0
490,0.0
515,0.0
516,0.0
542,0.0
592,2456872.62025673
632,1747319.1992295168
686,0.5491863532603671
687,0.2589784423979035
688,1.25
2,21, 1,21, 0,11,10.00,20.00,Monday
250,21.552602794844578
251,3960619.2020209716
336,0.0
385,21.38
386,26.42
387,0.6567367338215554
388,0.0
425,0.0
450,0.0
451,0.0
452,6.440731705178961
453,0.0
490,0.0
515,0.0
516,0.0
542,0.0
592,2083985.734555143
632,1933001.2593333265
686,0.4533434613349984
687,0.25
688,1.0
2,21, 1,21, 0,11,20.00,30.00,Monday
250,21.559209596774334
251,3842485.323035119
336,0.0
385,21.38
386,26.42
387,0.8801890807436185
388,0.0
425,0.0
450,0.0
451,0.0
452,7.399764740956582
453,0.0
490,0.0
515,0.0
516,0.0
542,0.0
592,1984161.7638774645
632,1924431.1323524013
686,0.4253777700997108
687,0.25
688,1.0
2,21, 1,21, 0,11,30.00,40.00,Monday
250,21.56282275278371
251,3766629.513309325
336,0.0
385,21.38
386,26.42
387,1.1010172088909298
388,0.0
425,0.0
450,0.0
451,0.0
452,8.338250228590846
453,0.0
490,0.0
515,0.0
516,0.0
542,0.0
592,1926663.9735048811
632,1911863.8074841194
686,0.40859873523120793
687,0.25
688,1.0
2,21, 1,21, 0,11,40.00,50.00,Monday
250,21.565971822332198
251,3701959.7347636274
336,0.0
385,21.38
386,26.42
387,1.3254253712273028
388,0.0
425,0.0
450,0.0
451,0.0
452,9.202590901644378
453,0.0
490,0.0
515,0.0
516,0.0
542,0.0
592,1877273.38385688
632,1901870.312213696
686,0.3940383175737236
687,0.25
688,1.0
2,21, 1,21, 0,11,50.00,60.00,Monday
250,21.569813747005405
251,3666939.9550195117
336,0.0
385,21.38
386,26.42
387,1.5499074329694102
388,0.0
425,0.0
450,0.0
451,0.0
452,9.958743119983623
453,0.0
490,0.0
515,0.0
516,0.0
542,0.0
592,1855226.7899294912
632,1891859.392114647
686,0.3866511743875233
687,0.25
688,0.75
2,21, 1,21, 0,12, 0.00,10.00,Monday
250,21.57558735117651
251,3650086.669316981
336,0.0
385,21.38
386,26.42
387,1.7686303756705444
388,0.0
425,0.0
450,0.0
451,0.0
452,10.595892910346993
453,0.0
490,0.0
515,0.0
516,0.0
542,0.0
592,1838101.684945071
632,1894264.0107602035
686,0.3815907345817414
687,0.25
688,0.75
2,21, 1,21, 0,12,10.00,20.00,Monday
250,21.581485400705866
251,3636307.2617537817
336,0.0
385,21.38
386,26.42
387,1.9763289111396491
388,0.0
425,0.0
450,0.0
451,0.0
452,11.096828450258494
453,0.0
490,0.0
515,0.0
516,0.0
542,0.0
592,1823675.9150578799
632,1896594.7798746615
686,0.377238071897823
687,0.25
688,0.75
2,21, 1,21, 0,12,20.00,30.00,Monday
250,21.586419369481526
251,3629258.291275855
336,0.0
385,21.38
386,26.42
387,2.168852343551445
388,0.0
425,0.0
450,0.0
451,0.0
452,11.468898330808383
453,0.0
490,0.0
515,0.0
516,0.0
542,0.0
592,1817148.1089442342
632,1896605.7824197505
686,0.37492303182940645
687,0.25
688,0.75
2,21, 1,21, 0,12,30.00,40.00,Monday
250,21.594453342621705
251,3592458.7849930786
336,0.0
385,21.38
386,26.42
387,2.341731894440956
388,0.0
425,0.0
450,0.0
451,0.0
452,11.714500507441802
453,0.0
490,0.0
515,0.0
516,0.0
542,0.0
592,1773126.4990935808
632,1910550.3510157715
686,0.3630017547104176
687,0.25
688,0.75
2,21, 1,21, 0,12,40.00,50.00,Monday
250,21.60196394622473
251,3569857.573000113
336,0.0
385,21.38
386,26.42
387,2.4914995361287455
388,0.0
425,0.0
450,0.0
451,0.0
452,11.809978921930938
453,0.0
490,0.0
515,0.0
516,0.0
542,0.0
592,1742681.0523906206
632,1922932.6446122662
686,0.3545883644878277
687,0.25
688,0.75
2,21, 1,21, 0,12,50.00,60.00,Monday
250,21.607853950154947
251,3553047.6309942477
336,0.0
385,21.38
386,26.42
387,2.6173332211452904
388,0.0
425,0.0
450,0.0
451,0.0
452,11.764001736526556
453,0.0
490,0.0
515,0.0
516,0.0
542,0.0
592,1720907.7825906663
632,1931293.9646814768
686,0.3484114802351974
687,0.25
688,0.75
2,21, 1,21, 0,13, 0.00,10.00,Monday
250,21.61138869261506
251,3547450.240298168
336,0.0
385,21.38
386,26.42
387,2.7225313250888026
388,0.0
425,0.0
450,0.0
451,0.0
452,11.645995480725261
453,0.0
490,0.0
515,0.0
516,0.0
542,0.0
592,1709214.5541471357
632,1938684.4686602198
686,0.34573384469756485
687,0.25
688,0.75
2,21, 1,21, 0,13,10.00,20.00,Monday
250,21.618701795536733
251,3513638.414517262
336,0.0
385,21.38
386,26.42
387,2.8127354890813816
388,0.0
425,0.0
450,0.0
451,0.0
452,11.536931741059062
453,0.0
490,0.0
515,0.0
516,0.0
542,0.0
592,1678297.104224443
632,1940382.7759578107
686,0.33812617364776604
687,0.25
688,0.75
2,21, 1,21, 0,13,20.00,30.00,Monday
250,21.63052195730057
251,3479815.621852017
336,0.0
385,21.38
386,26.42
387,2.8930758997073767
388,0.0
425,0.0
450,0.0
451,0.0
452,11.470185702973232
453,0.0
490,0.0
515,0.0
516,0.0
542,0.0
592,1636109.8612606942
632,1954929.826981864
686,0.3276232333578674
687,0.25
688,0.75
2,21, 1,21, 0,13,30.00,40.00,Monday
250,21.642297165354023
251,3452846.039513811
336,0.0
385,21.38
386,26.42
387,2.968528827772417
388,0.0
425,0.0
450,0.0
451,0.0
452,11.436834577906506
453,0.0
490,0.0
515,0.0
516,0.0
542,0.0
592,1598488.070744624
632,1971203.9462636665
686,0.31827359599057947
687,0.25
688,0.75
2,21, 1,21, 0,13,40.00,50.00,Monday
250,21.65676307270362
251,3398675.685595401
336,0.0
385,21.38
386,26.42
387,3.042182307643007
388,0.0
425,0.0
450,0.0
451,0.0
452,11.4201468400503
453,0.0
490,0.0
515,0.0
516,0.0
542,0.0
592,1529420.4717746319
632,1998459.5961111102
686,0.3008220554459967
687,0.25
688,0.75
2,21, 1,21, 0,13,50.00,60.00,Monday
250,21.672491164445688
251,3348352.8817436714
336,0.0
385,21.38
386,26.42
387,3.1146756563284277
388,0.0
425,0.0
450,0.0
451,0.0
452,11.409235659938522
453,0.0
490,0.0
515,0.0
516,0.0
542,0.0
592,1460521.7478461363
632,2030152.36338793
686,0.2833786767696694
687,0.25
688,0.75
2,21, 1,21, 0,14, 0.00,10.00,Monday
250,21.690972787833815
251,3283254.743903457
336,0.0
385,21.38
386,26.42
387,3.187508725576121
388,0.0
425,0.0
450,0.0
451,0.0
452,11.36764650105252
453,0.0
490,0.0
515,0.0
516,0.0
542,0.0
592,1381807.9742839225
632,2060912.9969217044
686,0.26236953655884243
687,0.25
688,0.75
2,21, 1,21, 0,14,10.00,20.00,Monday
250,21.155600875490332
251,3636689.11323548
336,0.0
385,20.88
386,26.42
387,3.2588395110481008
388,0.0
425,0.0
450,0.0
451,0.0
452,11.251826915289941
453,0.0
490,0.0
515,0.0
516,0.0
542,0.0
592,2535510.0254658023
632,1205589.7850891906
686,0.5
687,0.40251823232040906
688,1.0
2,21, 1,21, 0,14,20.00,30.00,Monday
250,21.603671425892347
251,3263318.0767443343
336,0.0
385,21.38
386,26.42
387,3.324057397869756
388,0.0
425,0.0
450,0.0
451,0.0
452,11.060704805341164
453,0.0
490,0.0
515,0.0
516,0.0
542,0.0
592,1511648.8694762057
632,1888417.7579952886
686,0.29403512862096587
687,0.25
688,0.75
2,21, 1,21, 0,14,30.00,40.00,Monday
250,21.984071849049144
251,2632943.1924459054
336,0.0
385,21.71333333333335
386,26.420000000000023
387,3.364756972676136
388,0.0
425,0.0
450,0.0
451,0.0
452,10.815072526949521
453,0.0
490,0.0
515,0.0
516,0.0
542,0.0
592,2618509.860244928
632,0.0
686,0.5475857654986135
687,0.3274595787994845
688,1.0000000000000009
2,21, 1,21, 0,14,40.00,50.00,Monday
250,21.665842046019474
251,2849571.29106998
336,0.0
385,21.046666666666635
386,26.419999999999966
387,3.390538435172177
388,0.0
425,0.0
450,0.0
451,0.0
452,10.458782809539711
453,0.0
490,0.0
515,0.0
516,0.0
542,0.0
592,1239748.243713155
632,1692356.8042465867
686,0.253476450902381
687,0.16666666666666644
688,0.49999999999999933
2,21, 1,21, 0,14,50.00,60.00,Monday
250,21.483599659468616
251,3349612.321435728
336,0.0
385,21.38
386,26.42
387,3.4033796797733613
388,0.0
425,0.0
450,0.0
451,0.0
452,9.987570328423656
453,0.0
490,0.0
515,0.0
516,0.0