Program Version,EnergyPlus, Version 24.2.0-94a887817b, YMD=2025.02.11 00:15
1,5,Environment Title[],Latitude[deg],Longitude[deg],Time Zone[],Elevation[m]
2,8,Day of Simulation[],Month[],Day of Month[],DST Indicator[1=yes 0=no],Hour[],StartMinute[],EndMinute[],DayType
3,5,Cumulative Day of Simulation[],Month[],Day of Month[],DST Indicator[1=yes 0=no],DayType  ! When Daily Report Variables Requested
4,2,Cumulative Days of Simulation[],Month[]  ! When Monthly Report Variables Requested
5,1,Cumulative Days of Simulation[] ! When Run Period Report Variables Requested
6,1,Calendar Year of Simulation[] ! When Annual Report Variables Requested
250,1,LIVING ZONE,Zone Air Temperature [C] !TimeStep,REPORTSCH
251,1,LIVING ZONE,Zone Air System Sensible Heating Energy [J] !TimeStep,REPORTSCH
336,1,LIVING ZONE,Zone Air System Sensible Cooling Energy [J] !TimeStep,REPORTSCH
385,1,LIVING ZONE,Zone Thermostat Heating Setpoint Temperature [C] !TimeStep,REPORTSCH
386,1,LIVING ZONE,Zone Thermostat Cooling Setpoint Temperature [C] !TimeStep,REPORTSCH
387,1,GARAGE ZONE,Zone Air Temperature [C] !TimeStep,REPORTSCH
388,1,GARAGE ZONE,Zone Air System Sensible Heating Energy [J] !TimeStep,REPORTSCH
425,1,GARAGE ZONE,Zone Air System Sensible Cooling Energy [J] !TimeStep,REPORTSCH
450,1,GARAGE ZONE,Zone Thermostat Heating Setpoint Temperature [C] !TimeStep,REPORTSCH
451,1,GARAGE ZONE,Zone Thermostat Cooling Setpoint Temperature [C] !TimeStep,REPORTSCH
452,1,ATTIC ZONE,Zone Air Temperature [C] !TimeStep,REPORTSCH
453,1,ATTIC ZONE,Zone Air System Sensible Heating Energy [J] !TimeStep,REPORTSCH
490,1,ATTIC ZONE,Zone Air System Sensible Cooling Energy [J] !TimeStep,REPORTSCH
515,1,ATTIC ZONE,Zone Thermostat Heating Setpoint Temperature [C] !TimeStep,REPORTSCH
516,1,ATTIC ZONE,Zone Thermostat Cooling Setpoint Temperature [C] !TimeStep,REPORTSCH
542,1,ACDXCOIL 1,Cooling Coil Total Cooling Energy [J] !TimeStep,REPORTSCH
592,1,HEAT PUMP DX HEATING COIL 1,Heating Coil Heating Energy [J] !TimeStep,REPORTSCH
632,1,SUPP HEATING COIL 1,Heating Coil Heating Energy [J] !TimeStep,REPORTSCH
686,1,TWOSPEED HEAT PUMP 1,Unitary System DX Coil Cycling Ratio [] !TimeStep,REPORTSCH
687,1,TWOSPEED HEAT PUMP 1,Unitary System DX Coil Speed Ratio [] !TimeStep,REPORTSCH
688,1,TWOSPEED HEAT PUMP 1,Unitary System DX Coil Speed Level [] !TimeStep,REPORTSCH
End of Data Dictionary
1,RUN PERIOD 1,  41.98, -87.92,  -6.00, 201.00
2,21, 1,21, 0, 1, 0.00,10.00,Monday
250,21.727319573032393
251,5136057.873998417
336,0.0
385,21.456666666666667
386,25.199999999999996
387,0.6153731771175777
388,0.0
425,0.0
450,0.0
451,0.0
452,-1.6399482785147708
453,0.0
490,0.0
515,0.0
516,0.0
542,0.0
592,2296926.0844358495
632,2749570.9351909296
686,0.5126336603887356
687,0.357955088446812
688,1.1666666666666667
2,21, 1,21, 0, 1,10.00,20.00,Monday
250,22.68481755850872
251,7281935.932033123
336,0.0
385,22.79
386,25.2
387,0.5886599517720573
388,0.0
425,0.0
450,0.0
451,0.0
452,-1.629412178088618
453,0.0
490,0.0
515,0.0
516,0.0
542,0.0
592,4862718.996608439
632,2438161.664308597
686,1.0
687,1.0
688,2.0
2,21, 1,21, 0, 1,20.00,30.00,Monday
250,22.78290790561504
251,6555810.254590604
336,0.0
385,22.79
386,25.2
387,0.5581494455951497
388,0.0
425,0.0
450,0.0
451,0.0
452,-1.6192137939803293
453,0.0
490,0.0
515,0.0
516,0.0
542,0.0
592,4846564.1430581445
632,1462931.3063116577
686,1.0
687,1.0
688,2.0
2,21, 1,21, 0, 1,30.00,40.00,Monday
250,21.72513783196709
251,5183732.4613103755
336,0.0
385,21.456666666666653
386,25.19999999999998
387,0.534790191188026
388,0.0
425,0.0
450,0.0
451,0.0
452,-1.6141198476665921
453,0.0
490,0.0
515,0.0
516,0.0
542,0.0
592,2306992.500636494
632,2785354.670129918
686,0.5152796680501168
687,0.3757388877744047
688,1.1666666666666659
2,21, 1,21, 0, 1,40.00,50.00,Monday
250,22.684741758800357
251,7334051.003623401
336,0.0
385,22.79
386,25.2
387,0.5105109151943028
388,0.0
425,0.0
450,0.0
451,0.0
452,-1.6105496029153474
453,0.0
490,0.0
515,0.0
516,0.0
542,0.0
592,4815237.966199701
632,2538389.9645756837
686,1.0
687,1.0
688,2.0
2,21, 1,21, 0, 1,50.00,60.00,Monday
250,22.782917339554157
251,6604701.651987656
336,0.0
385,22.79
386,25.2
387,0.48197563339514077
388,0.0
425,0.0
450,0.0
451,0.0
452,-1.608100138676753
453,0.0
490,0.0
515,0.0
516,0.0
542,0.0
592,4799092.0631544655
632,1559297.2962749794
686,1.0
687,1.0
688,2.0
2,21, 1,21, 0, 2, 0.00,10.00,Monday
250,21.723459940563682
251,5220185.919112849
336,0.0
385,21.456666666666667
386,25.199999999999996
387,0.4596263041171195
388,0.0
425,0.0
450,0.0
451,0.0
452,-1.608652766604931
453,0.0
490,0.0
515,0.0
516,0.0
542,0.0
592,2316274.8865491287
632,2811183.3969945824
686,0.5173347573945497
687,0.38907364192748706
688,1.1666666666666667
2,21, 1,21, 0, 2,10.00,20.00,Monday
250,22.684663037333607
251,7360215.126160831
336,0.0
385,22.79
386,25.2
387,0.43600955070116953
388,0.0
425,0.0
450,0.0
451,0.0
452,-1.6124077066043028
453,0.0
490,0.0
515,0.0
516,0.0
542,0.0
592,4799413.208173067
632,2580867.8272754783
686,1.0
687,1.0
688,2.0
2,21, 1,21, 0, 2,20.00,30.00,Monday
250,22.782918460813086
251,6615755.828564331
336,0.0
385,22.79
386,25.2
387,0.40781088695068
388,0.0
425,0.0
450,0.0
451,0.0
452,-1.620659642953496
453,0.0
490,0.0
515,0.0
516,0.0
542,0.0
592,4799092.194743336
632,1570355.5813007304
686,1.0
687,1.0
688,2.0
2,21, 1,21, 0, 2,30.00,40.00,Monday
250,21.722985768106874
251,5230064.292223427
336,0.0
385,21.456666666666653
386,25.19999999999998
387,0.3853942707101107
388,0.0
425,0.0
450,0.0
451,0.0
452,-1.6310954961747204
453,0.0
490,0.0
515,0.0
516,0.0
542,0.0
592,2321748.892768833
632,2815350.066788201
686,0.5178816447379969
687,0.3918345323197749
688,1.1666666666666659
2,21, 1,21, 0, 2,40.00,50.00,Monday
250,22.684672219429743
251,7370905.896876385
336,0.0
385,22.79
386,25.2
387,0.36141816137468735
388,0.0
425,0.0
450,0.0
451,0.0
452,-1.6449211566669721
453,0.0
490,0.0
515,0.0
516,0.0
542,0.0
592,4799412.8770427145
632,2591716.3077185266
686,1.0
687,1.0
688,2.0
2,21, 1,21, 0, 2,50.00,60.00,Monday
250,22.782923567967313
251,6624302.835255332
336,0.0
385,22.79
386,25.2
387,0.33255831520610774
388,0.0
425,0.0
450,0.0
451,0.0
452,-1.6637242270892223
453,0.0
490,0.0
515,0.0
516,0.0
542,0.0
592,4799092.240901676
632,1578898.2492849496
686,1.0
687,1.0
688,2.0
2,21, 1,21, 0, 3, 0.00,10.00,Monday
250,21.722112121590463
251,5248120.434595254
336,0.0
385,21.456666666666667
386,25.199999999999996
387,0.31013757735717373
388,0.0
425,0.0
450,0.0
451,0.0
452,-1.6784690424064064
453,0.0
490,0.0
515,0.0
516,0.0
542,0.0
592,2331780.417313527
632,2822935.7693511853
686,0.5188636895908622
687,0.3969489063711171
688,1.1666666666666667
2,21, 1,21, 0, 3,10.00,20.00,Monday
250,22.68466994475166
251,7401110.464898525
336,0.0
385,22.79
386,25.2
387,0.2869403955575248
388,0.0
425,0.0
450,0.0
451,0.0
452,-1.6903394256434257
453,0.0
490,0.0
515,0.0
516,0.0
542,0.0
592,4799412.286947657
632,2622177.602933724
686,1.0
687,1.0
688,2.0
2,21, 1,21, 0, 3,20.00,30.00,Monday
250,22.782933185574358
251,6663025.752808744
336,0.0
385,22.79
386,25.2
387,0.26004469879156705
388,0.0
425,0.0
450,0.0
451,0.0
452,-1.697905108722784
453,0.0
490,0.0
515,0.0
516,0.0
542,0.0
592,4799092.252794588
632,1617617.5070729884
686,1.0
687,1.0
688,2.0
2,21, 1,21, 0, 3,30.00,40.00,Monday
250,21.720277826184052
251,5285919.6942615695
336,0.0
385,21.456666666666653
386,25.19999999999998
387,0.23995638295720512
388,0.0
425,0.0
450,0.0
451,0.0
452,-1.6974110704536765
453,0.0
490,0.0
515,0.0
516,0.0
542,0.0
592,2352792.827955255
632,2838808.2512508756
686,0.5209010353813608
687,0.40771650477573673
688,1.1666666666666659
2,21, 1,21, 0, 3,40.00,50.00,Monday
250,22.68458422149282
251,7440188.454240842
336,0.0
385,22.79
386,25.2
387,0.21956446676190888
388,0.0
425,0.0
450,0.0
451,0.0
452,-1.69322841799424
453,0.0
490,0.0
515,0.0
516,0.0
542,0.0
592,4799411.138682964
632,2661759.6713798265
686,1.0
687,1.0
688,2.0
2,21, 1,21, 0, 3,50.00,60.00,Monday
250,22.78293743543052
251,6699250.246085264
336,0.0
385,22.79
386,25.2
387,0.1962413024593938
388,0.0
425,0.0
450,0.0
451,0.0
452,-1.6846372934894986
453,0.0
490,0.0
515,0.0
516,0.0
542,0.0
592,4799092.291968616
632,1653846.9088524457
686,1.0
687,1.0
688,2.0
2,21, 1,21, 0, 4, 0.00,10.00,Monday
250,21.715398059112957
251,5386182.849657611
336,0.0
385,21.456666666666667
386,25.199999999999996
387,0.17455275343668397
388,0.0
425,0.0
450,0.0
451,0.0
452,-1.6769351983829996
453,0.0
490,0.0
515,0.0
516,0.0
542,0.0
592,2407114.24813323
632,2882300.6187571557
686,0.5262913126849188
687,0.4370245967345652
688,1.1666666666666667
2,21, 1,21, 0, 4,10.00,20.00,Monday
250,22.07552731843657
251,5309745.628950477
336,0.0
385,22.12333333333333
386,25.199999999999996
387,0.1491161228593136
388,0.0
425,0.0
450,0.0
451,0.0
452,-1.6705264676726022
453,0.0
490,0.0
515,0.0
516,0.0
542,0.0
592,3255158.35398632
632,2052012.4970400427
686,0.6844755179037854
687,0.6666666666666667
688,1.6666666666666667
2,21, 1,21, 0, 4,20.00,30.00,Monday
250,22.31151759704759
251,6704670.044313102
336,0.0
385,22.79
386,25.2
387,0.11499523756925158
388,0.0
425,0.0
450,0.0
451,0.0
452,-1.6660778125927203
453,0.0
490,0.0
515,0.0
516,0.0
542,0.0
592,4783726.545993479
632,2474703.43449995
686,1.0
687,1.0
688,2.0
2,21, 1,21, 0, 4,30.00,40.00,Monday
250,22.74461374766527
251,7882210.197759544
336,0.0
385,22.79
386,25.2
387,0.08226281713341942
388,0.0
425,0.0
450,0.0
451,0.0
452,-1.6672033022801964
453,0.0
490,0.0
515,0.0
516,0.0
542,0.0
592,4779967.66148631
632,2968770.765076269
686,1.0
687,1.0
688,2.0
2,21, 1,21, 0, 4,40.00,50.00,Monday
250,21.69267235595808
251,5797752.842852358
336,0.0
385,21.45666666666664
386,25.199999999999967
387,0.05237908955734674
388,0.0
425,0.0
450,0.0
451,0.0
452,-1.6745752496159534
453,0.0
490,0.0
515,0.0
516,0.0
542,0.0
592,2553946.313411415
632,3146281.4179986734
686,0.5481257279555413
687,0.49999999999999933
688,1.166666666666665
2,21, 1,21, 0, 4,50.00,60.00,Monday
250,22.082190856062898
251,5720141.104617526
336,0.0
385,22.12333333333335
386,25.200000000000017
387,0.018944595428546956
388,0.0
425,0.0
450,0.0
451,0.0
452,-1.6856248629683672
453,0.0
490,0.0
515,0.0
516,0.0
542,0.0
592,3353480.7208597246
632,2332782.254653117
686,0.7170454431310207
687,0.6666666666666672
688,1.6666666666666679
2,21, 1,21, 0, 5, 0.00,10.00,Monday
250,22.319911562759103
251,6957396.069347758
336,0.0
385,22.79
386,25.2
387,-0.014647829893907588
388,0.0
425,0.0
450,0.0
451,0.0
452,-1.696878687586456
453,0.0
490,0.0
515,0.0
516,0.0
542,0.0
592,4763090.364247922
632,2740376.4515540283
686,1.0
687,1.0
688,2.0
2,21, 1,21, 0, 5,10.00,20.00,Monday
250,22.74552215460978
251,8016024.132191408
336,0.0
385,22.79
386,25.2
387,-0.0352608525056684
388,0.0
425,0.0
450,0.0
451,0.0
452,-1.7001329776207728
453,0.0
490,0.0
515,0.0
516,0.0
542,0.0
592,4757161.800332031
632,3123193.6185519984
686,1.0
687,1.0
688,2.0
2,21, 1,21, 0, 5,20.00,30.00,Monday
250,21.69198339624761
251,5812167.207515262
336,0.0
385,21.45666666666668
386,25.200000000000017
387,-0.045932137331262196
388,0.0
425,0.0
450,0.0
451,0.0
452,-1.6936405086403499
453,0.0
490,0.0
515,0.0
516,0.0
542,0.0
592,2544269.025761378
632,3170534.281966187
686,0.5491334516691634
687,0.5000000000000004
688,1.1666666666666674
2,21, 1,21, 0, 5,30.00,40.00,Monday
250,22.080135232660375
251,5615446.476456809
336,0.0
385,22.12333333333335
386,25.200000000000017
387,-0.05437121658284096
388,0.0
425,0.0
450,0.0
451,0.0
452,-1.6791403678890848
453,0.0
490,0.0
515,0.0
516,0.0
542,0.0
592,3304824.737509182
632,2286395.6321171136
686,0.708172161335098
687,0.6666666666666672
688,1.6666666666666679
2,21, 1,21, 0, 5,40.00,50.00,Monday
250,22.318429215049388
251,6857048.4958699625
336,0.0
385,22.79
386,25.2
387,-0.06177692123705564
388,0.0
425,0.0
450,0.0
451,0.0
452,-1.6539584084256531
453,0.0
490,0.0
515,0.0
516,0.0
542,0.0
592,4733689.254567345
632,2671950.7035738276
686,1.0
687,1.0
688,2.0
2,21, 1,21, 0, 5,50.00,60.00,Monday
250,22.745362413828516
251,7910058.283348681
336,0.0
385,22.79
386,25.2
387,-0.06587668110478684
388,0.0
425,0.0
450,0.0
451,0.0
452,-1.625461403223708
453,0.0
490,0.0
515,0.0
516,0.0
542,0.0
592,4727867.7897103485
632,3046916.013312957
686,1.0
687,1.0
688,2.0
2,21, 1,21, 0, 6, 0.00,10.00,Monday
250,21.69350473940141
251,5783595.969612505
336,0.0
385,21.456666666666667
386,25.199999999999996
387,-0.07536635609754519
388,0.0
425,0.0
450,0.0
451,0.0
452,-1.602531119083531
453,0.0
490,0.0
515,0.0
516,0.0
542,0.0
592,2525981.6490867445
632,3159717.449264405
686,0.5479779318271559
687,0.5
688,1.1666666666666667
2,21, 1,21, 0, 6,10.00,20.00,Monday
250,22.081290248098178
251,5671200.878924431
336,0.0
385,22.12333333333333
386,25.199999999999996
387,-0.09129769054303483
388,0.0
425,0.0
450,0.0
451,0.0
452,-1.5871236774368578
453,0.0
490,0.0
515,0.0
516,0.0
542,0.0
592,3304167.222947654
632,2337647.3442591177
686,0.7127355109353843
687,0.6666666666666667
688,1.6666666666666667
2,21, 1,21, 0, 6,20.00,30.00,Monday
250,22.320244380622476
251,6994172.988670024
336,0.0
385,22.79
386,25.2
387,-0.1162696740277285
388,0.0
425,0.0
450,0.0
451,0.0
452,-1.5814866905334057
453,0.0
490,0.0
515,0.0
516,0.0
542,0.0
592,4714638.107628727
632,2827513.124774251
686,1.0
687,1.0
688,2.0
2,21, 1,21, 0, 6,30.00,40.00,Monday
250,22.745630630121617
251,8129160.608708296
336,0.0
385,22.79
386,25.2
387,-0.1424694838678396
388,0.0
425,0.0
450,0.0
451,0.0
452,-1.5899711720654706
453,0.0
490,0.0
515,0.0
516,0.0
542,0.0
592,4711561.195732996
632,3281872.5461428384
686,1.0
687,1.0
688,2.0
2,21, 1,21, 0, 6,40.00,50.00,Monday
250,21.681948708739547
251,6002706.039932902
336,0.0
385,21.45666666666664
386,25.199999999999967
387,-0.1683711692099174
388,0.0
425,0.0
450,0.0
451,0.0
452,-1.6100349809377226
453,0.0
490,0.0
515,0.0
516,0.0
542,0.0
592,2555788.9207967883
632,3352711.3696332094
686,0.5592834520855616
687,0.49999999999999933
688,1.166666666666665
2,21, 1,21, 0, 6,50.00,60.00,Monday
250,22.085230129652537
251,5907939.705534128
336,0.0
385,22.12333333333335
386,25.200000000000017
387,-0.19829815271075524
388,0.0
425,0.0
450,0.0
451,0.0
452,-1.6387772677085255
453,0.0
490,0.0
515,0.0
516,0.0
542,0.0
592,3357932.387162531
632,2501927.8394174427
686,0.7321864539623402
687,0.6666666666666672
688,1.6666666666666679
2,21, 1,21, 0, 7, 0.00,10.00,Monday
250,22.324675773509963
251,7206604.386728385
336,0.0
385,22.79
386,25.2
387,-0.24109743613665313
388,0.0
425,0.0
450,0.0
451,0.0
452,-1.6913423123794469
453,0.0
490,0.0
515,0.0
516,0.0
542,0.0
592,4724687.795291363
632,3025157.8243495803
686,1.0
687,1.0
688,2.0
2,21, 1,21, 0, 7,10.00,20.00,Monday
250,22.746104249510793
251,8302889.765317697
336,0.0
385,22.79
386,25.2
387,-0.2873670082399944
388,0.0
425,0.0
450,0.0
451,0.0
452,-1.7732747807956408
453,0.0
490,0.0
515,0.0
516,0.0
542,0.0
592,4745312.46219713
632,3420684.801005928
686,1.0
687,1.0
688,2.0
2,21, 1,21, 0, 7,20.00,30.00,Monday
250,21.674760589509923
251,6138306.064653012
336,0.0
385,21.45666666666668
386,25.200000000000017
387,-0.335706373046768
388,0.0
425,0.0
450,0.0
451,0.0
452,-1.8896421050124865
453,0.0
490,0.0
515,0.0
516,0.0
542,0.0
592,2609123.3689775313
632,3437431.0235483376
686,0.5654168831965098
687,0.5000000000000004
688,1.1666666666666674
2,21, 1,21, 0, 7,30.00,40.00,Monday
250,22.086876051625005
251,6025077.150329085
336,0.0
385,22.12333333333335
386,25.200000000000017
387,-0.3944256972345752
388,0.0
425,0.0
450,0.0
451,0.0
452,-2.0475396186402732
453,0.0
490,0.0
515,0.0
516,0.0
542,0.0
592,3447755.2975594904
632,2521204.7024613763
686,0.7409836749687919
687,0.6666666666666672
688,1.6666666666666679
2,21, 1,21, 0, 7,40.00,50.00,Monday
250,22.326447338004574
251,7269553.110620053
336,0.0
385,22.79
386,25.2
387,-0.47437566117589913
388,0.0
425,0.0
450,0.0
451,0.0
452,-2.2694826181395245
453,0.0
490,0.0
515,0.0
516,0.0
542,0.0
592,4807275.869741335
632,3003012.190230221
686,1.0
687,1.0
688,2.0
2,21, 1,21, 0, 7,50.00,60.00,Monday
250,22.746287781655496
251,8370204.636596486
336,0.0
385,22.79
386,25.2
387,-0.5524771112752681
388,0.0
425,0.0
450,0.0
451,0.0
452,-2.4967705891152274
453,0.0
490,0.0
515,0.0
516,0.0
542,0.0
592,4824016.772348575
632,3408789.9277779395
686,1.0
687,1.0
688,2.0
2,21, 1,21, 0, 8, 0.00,10.00,Monday
250,21.692148705676086
251,5808399.36076003
336,0.0
385,21.456666666666667
386,25.199999999999996
387,-0.6163708344532691
388,0.0
425,0.0
450,0.0
451,0.0
452,-2.7012830996405404
453,0.0
490,0.0
515,0.0
516,0.0
542,0.0
592,2588717.3168541007
632,3122300.7328712917
686,0.5487474961883397
687,0.5
688,1.1666666666666667
2,21, 1,21, 0, 8,10.00,20.00,Monday
250,22.079261550174497
251,5579568.161795208
336,0.0
385,22.12333333333333
386,25.199999999999996
387,-0.6730982182139553
388,0.0
425,0.0
450,0.0
451,0.0
452,-2.8377218204323853
453,0.0
490,0.0
515,0.0
516,0.0
542,0.0
592,3360294.9858636907
632,2199723.9740069616
686,0.7037643265094136
687,0.6666666666666667
688,1.6666666666666667
2,21, 1,21, 0, 8,20.00,30.00,Monday
250,22.31890318464652
251,6813975.363139522
336,0.0
385,22.79
386,25.2
387,-0.7292146985490836
388,0.0
425,0.0
450,0.0
451,0.0
452,-2.8791155086052695
453,0.0
490,0.0
515,0.0
516,0.0
542,0.0
592,4858019.661136018
632,2506022.047339952
686,1.0
687,1.0
688,2.0
2,21, 1,21, 0, 8,30.00,40.00,Monday
250,22.745485449410303
251,7828192.194458492
336,0.0
385,22.79
386,25.2
387,-0.7639201368811286
388,0.0
425,0.0
450,0.0
451,0.0
452,-2.788943615221994
453,0.0
490,0.0
515,0.0
516,0.0
542,0.0
592,4866104.45708723
632,2826621.5722224833
686,1.0
687,1.0
688,2.0
2,21, 1,21, 0, 8,40.00,50.00,Monday
250,21.705175562079088
251,5554063.891147568
336,0.0
385,21.45666666666664
386,25.199999999999967
387,-0.7747010566136288
388,0.0
425,0.0
450,0.0
451,0.0
452,-2.5769028403954706
453,0.0
490,0.0
515,0.0
516,0.0
542,0.0
592,2532605.7124994616
632,2923028.0507598626
686,0.5355215998417827
687,0.47587301069174026
688,1.166666666666665
2,21, 1,21, 0, 8,50.00,60.00,Monday
250,22.074472338058
251,5285225.62612133
336,0.0
385,22.12333333333335
386,25.200000000000017
387,-0.7699137655322457
388,0.0
425,0.0
450,0.0
451,0.0
452,-2.2620565752925152
453,0.0
490,0.0
515,0.0
516,0.0
542,0.0
592,3310334.889684403
632,1977485.4504109814
686,0.6813110875450311
687,0.6666666666666672
688,1.6666666666666679
2,21, 1,21, 0, 9, 0.00,10.00,Monday
250,22.7201634830419
251,7036578.568052747
336,0.0
385,22.79
386,25.2
387,-0.7446934910042784
388,0.0
425,0.0
450,0.0
451,0.0
452,-1.8479269224472663
453,0.0
490,0.0
515,0.0
516,0.0
542,0.0
592,4904786.76522975
632,2060048.3326500715
686,1.0
687,1.0
688,2.0
2,21, 1,21, 0, 9,10.00,20.00,Monday
250,21.72661518090694
251,5088835.290518213
336,0.0
385,21.456666666666667
386,25.2
387,-0.7005603018123808
388,0.0
425,0.0
450,0.0
451,0.0
452,-1.373601925799986
453,0.0
490,0.0
515,0.0
516,0.0
542,0.0
592,2290491.7350685406
632,2711404.998077206
686,0.5114751693314248
687,0.34168739019074257
688,1.1666666666666665
2,21, 1,21, 0, 9,20.00,30.00,Monday
250,22.100604241197264
251,4871332.121116212
336,0.0
385,22.123333333333324
386,25.19999999999999
387,-0.6395292851655124
388,0.0
425,0.0
450,0.0
451,0.0
452,-0.8274057484771079
453,0.0
490,0.0
515,0.0
516,0.0
542,0.0
592,3267455.6581630195
632,1619582.7094406374
686,0.6666666666666664
687,0.6478828074635293
688,1.3333333333333328
2,21, 1,21, 0, 9,30.00,40.00,Monday
250,21.733911053200437
251,4819210.30659723
336,0.0
385,21.589999999999993
386,25.19999999999999
387,-0.5690291286511037
388,0.0
425,0.0
450,0.0
451,0.0
452,-0.2482967645335562
453,0.0
490,0.0
515,0.0
516,0.0
542,0.0
592,2295478.251061556
632,2574681.560252062
686,0.48715727793505476
687,0.3999999999999997
688,0.9999999999999993
2,21, 1,21, 0, 9,40.00,50.00,Monday
250,22.05574237561619
251,6515090.312311723
336,0.0
385,22.12333333333335
386,25.200000000000017
387,-0.49949145443524656
388,0.0
425,0.0
450,0.0
451,0.0
452,0.34800637135668877
453,0.0
490,0.0
515,0.0
516,0.0
542,0.0
592,3668269.371924581
632,2890812.4411303536
686,0.888258269298303
687,0.3378812295567342
688,1.666666666666668
2,21, 1,21, 0, 9,50.00,60.00,Monday
250,22.159128213861674
251,4789073.074328912
336,0.0
385,22.12333333333335
386,25.200000000000017
387,-0.3917672738315661
388,0.0
425,0.0
450,0.0
451,0.0
452,1.0894884484561334
453,0.0
490,0.0
515,0.0
516,0.0
542,0.0
592,3328141.7702047164
632,1417961.3972878652
686,0.6666666666666672
687,0.6666666666666672
688,1.3333333333333344
2,21, 1,21, 0,10, 0.00,10.00,Monday
250,21.75753424950898
251,4625366.304462143
336,0.0
385,21.590000000000003
386,25.2
387,-0.3147409278627151
388,0.0
425,0.0
450,0.0
451,0.0
452,1.5604463391745917
453,0.0
490,0.0
515,0.0
516,0.0
542,0.0
592,2266427.94376444
632,2405046.7138378117
686,0.47042791185719124
687,0.4
688,1.0
2,21, 1,21, 0,10,10.00,20.00,Monday
250,22.054037083466312
251,6284868.98714145
336,0.0
385,22.12333333333333
386,25.199999999999996
387,-0.22655947414578093
388,0.0
425,0.0
450,0.0
451,0.0
452,2.068910903451557
453,0.0
490,0.0
515,0.0
516,0.0
542,0.0
592,3538700.855696439
632,2805820.8112267107
686,0.8376842260476816
687,0.33333333333333337
688,1.3333333333333333
2,21, 1,21, 0,10,20.00,30.00,Monday
250,22.179693451839587
251,4616338.930667169
336,0.0
385,22.123333333333324
386,25.19999999999999
387,-0.09009196922407323
388,0.0
425,0.0
450,0.0
451,0.0
452,2.755076272933125
453,0.0
490,0.0
515,0.0
516,0.0
542,0.0
592,3394874.0141506875
632,1178853.0752992937
686,0.6666666666666664
687,0.6666666666666664
688,1.3333333333333328
2,21, 1,21, 0,10,30.00,40.00,Monday
250,21.780000565343613
251,4428388.208004713
336,0.0
385,21.589999999999993
386,25.19999999999999
387,0.008584693355877058
388,0.0
425,0.0
450,0.0
451,0.0
452,3.2731020856811988
453,0.0
490,0.0
515,0.0
516,0.0
542,0.0
592,2250832.474219492
632,2219570.727736786
686,0.4540499547451041
687,0.3999999999999997
688,0.9999999999999993
2,21, 1,21, 0,10,40.00,50.00,Monday
250,22.051044451410537
251,5962803.711676324
336,0.0
385,22.12333333333335
386,25.200000000000017
387,0.12427209750250535
388,0.0
425,0.0
450,0.0
451,0.0
452,3.8897828353610424
453,0.0
490,0.0
515,0.0
516,0.0
542,0.0
592,3353207.511569237
632,2691428.164895063
686,0.7695601961055728
687,0.3333333333333336
688,1.3333333333333344
2,21, 1,21, 0,10,50.00,60.00,Monday
250,22.210127870796004
251,4363874.108354611
336,0.0
385,22.12333333333335
386,25.200000000000017
387,0.31261169238583314
388,0.0
425,0.0
450,0.0
451,0.0
452,4.776896531255144
453,0.0
490,0.0
515,0.0
516,0.0
542,0.0
592,3461588.3221302833
632,860207.1013557299
686,0.6666666666666672
687,0.6666666666666672
688,1.3333333333333344
2,21, 1,21, 0,11, 0.00,10.00,Monday
250,21.81140602554168
251,4149334.8517531124
336,0.0
385,21.590000000000003
386,25.2
387,0.4495719662060985
388,0.0
425,0.0
450,0.0
451,0.0
452,5.479012380320394
453,0.0
490,0.0
515,0.0
516,0.0
542,0.0
592,2116972.225779541
632,2074246.3207484754
686,0.4316495470233196
687,0.3379795879763005
688,1.0
2,21, 1,21, 0,11,10.00,20.00,Monday
250,22.047565173251996
251,5589612.036696222
336,0.0
385,22.12333333333333
386,25.199999999999996
387,0.6076272317277801
388,0.0
425,0.0
450,0.0
451,0.0
452,6.280054081713567
453,0.0
490,0.0
515,0.0
516,0.0
542,0.0
592,3121064.395970222
632,2575279.719218123
686,0.6964393900563858
687,0.33333333333333337
688,1.3333333333333333
2,21, 1,21, 0,11,20.00,30.00,Monday
250,21.77821577131894
251,5144642.310925556
336,0.0
385,21.79
386,25.2
387,0.7841568012579184
388,0.0
425,0.0
450,0.0
451,0.0
452,7.148130536867582
453,0.0
490,0.0
515,0.0
516,0.0
542,0.0
592,3106278.76835908
632,2112040.8056403333
686,0.6269511757327022
687,0.5
688,1.25
2,21, 1,21, 0,11,30.00,40.00,Monday
250,21.906868358581736
251,4946661.08958001
336,0.0
385,21.79
386,25.2
387,1.054718204956436
388,0.0
425,0.0
450,0.0
451,0.0
452,8.264083519122048
453,0.0
490,0.0
515,0.0
516,0.0
542,0.0
592,2966408.54963251
632,1999486.9820195627
686,0.6025948075438384
687,0.4589947301586077
688,1.25
2,21, 1,21, 0,11,40.00,50.00,Monday
250,21.914753248406356
251,4830976.0214653425
336,0.0
385,21.79
386,25.2
387,1.298916585187881
388,0.0
425,0.0
450,0.0
451,0.0
452,9.155829387641656
453,0.0
490,0.0
515,0.0
516,0.0
542,0.0
592,2866869.209102367
632,1986173.9539152798
686,0.5933917246399247
687,0.40655285150204235
688,1.25
2,21, 1,21, 0,11,50.00,60.00,Monday
250,22.04087272338207
251,5108682.100291356
336,0.0
385,22.12333333333335
386,25.200000000000017
387,1.4827292216669394
388,0.0
425,0.0
450,0.0
451,0.0
452,9.81544437108679
453,0.0
490,0.0
515,0.0
516,0.0
542,0.0
592,2725375.0587855782
632,2540243.2928991313
686,0.5823624795372231
687,0.3333333333333336
688,1.3333333333333344
2,21, 1,21, 0,12, 0.00,10.00,Monday
250,21.79450169374323
251,4779940.457226756
336,0.0
385,21.79
386,25.2
387,1.666010053236139
388,0.0
425,0.0
450,0.0
451,0.0
452,10.395121828665978
453,0.0
490,0.0
515,0.0
516,0.0
542,0.0
592,3029215.973512055
632,1820212.9701079146
686,0.5972033982292537
687,0.5
688,1.25
2,21, 1,21, 0,12,10.00,20.00,Monday
250,22.043865270375036
251,5111264.1463742675
336,0.0
385,22.12333333333333
386,25.199999999999996
387,1.8567046025379796
388,0.0
425,0.0
450,0.0
451,0.0
452,10.891753517004123
453,0.0
490,0.0
515,0.0
516,0.0
542,0.0
592,2851840.9690612946
632,2397232.582426438
686,0.6129859746447442
687,0.33333333333333337
688,1.3333333333333333
2,21, 1,21, 0,12,20.00,30.00,Monday
250,21.802361331500673
251,4699589.956572915
336,0.0
385,21.79
386,25.2
387,2.0401087390912243
388,0.0
425,0.0
450,0.0
451,0.0
452,11.275775416586317
453,0.0
490,0.0
515,0.0
516,0.0
542,0.0
592,2984992.155411316
632,1782418.8703793178
686,0.5907353396236248
687,0.4805353445134489
688,1.25
2,21, 1,21, 0,12,30.00,40.00,Monday
250,22.0430733610579
251,5043286.577560354
336,0.0
385,22.12333333333335
386,25.200000000000017
387,2.214769722586922
388,0.0
425,0.0
450,0.0
451,0.0
452,11.54860654631102
453,0.0
490,0.0
515,0.0
516,0.0
542,0.0
592,2810593.2798492014
632,2374858.330304142
686,0.60029706365413
687,0.3333333333333336
688,1.3333333333333344
2,21, 1,21, 0,12,40.00,50.00,Monday
250,21.80361038621851
251,4661691.659875155
336,0.0
385,21.79
386,25.2
387,2.3686304290607385
388,0.0
425,0.0
450,0.0
451,0.0
452,11.674395052166812
453,0.0
490,0.0
515,0.0
516,0.0
542,0.0
592,2961487.7791697886
632,1768684.6386182385
686,0.5873307990766932
687,0.46750075561505505
688,1.25
2,21, 1,21, 0,12,50.00,60.00,Monday
250,22.042671540110284
251,5007803.295430609
336,0.0
385,22.12333333333335
386,25.200000000000017
387,2.5053341115635455
388,0.0
425,0.0
450,0.0
451,0.0
452,11.67370043461105
453,0.0
490,0.0
515,0.0
516,0.0
542,0.0
592,2794559.649811864
632,2357289.666997567
686,0.5941620786860047
687,0.3333333333333336
688,1.3333333333333344
2,21, 1,21, 0,13, 0.00,10.00,Monday
250,21.80440457353271
251,4636051.54544462
336,0.0
385,21.79
386,25.2
387,2.620687936584221
388,0.0
425,0.0
450,0.0
451,0.0
452,11.597008008540211
453,0.0
490,0.0
515,0.0
516,0.0
542,0.0
592,2944849.3591177706
632,1759991.8064391986
686,0.5850845551325113
687,0.46053374996973195
688,1.25
2,21, 1,21, 0,13,10.00,20.00,Monday
250,22.041929238893065
251,4930151.838360218
336,0.0
385,22.12333333333333
386,25.199999999999996
387,2.7232008526913702
388,0.0
425,0.0
450,0.0
451,0.0
452,11.513914871582037
453,0.0
490,0.0
515,0.0
516,0.0
542,0.0
592,2745117.6330468403
632,2333161.97146847
686,0.5824242540222511
687,0.33333333333333337
688,1.3333333333333333
2,21, 1,21, 0,13,20.00,30.00,Monday
250,21.810842683382038
251,4518297.183684595
336,0.0
385,21.79
386,25.2
387,2.8124139017948013
388,0.0
425,0.0
450,0.0
451,0.0
452,11.455230857206091
453,0.0
490,0.0
515,0.0
516,0.0
542,0.0
592,2844516.872348222
632,1743774.9037368817
686,0.5763437107644691
687,0.4168380952322339
688,1.25
2,21, 1,21, 0,13,30.00,40.00,Monday
250,22.040621554240076
251,4801548.804399261
336,0.0
385,22.12333333333335
386,25.200000000000017
387,2.896562389527545
388,0.0
425,0.0
450,0.0
451,0.0
452,11.419476931986205
453,0.0
490,0.0
515,0.0
516,0.0
542,0.0
592,2658135.9701029663
632,2299685.0054043564
686,0.5609680700925795
687,0.3333333333333336
688,1.3333333333333344
2,21, 1,21, 0,13,40.00,50.00,Monday
250,21.816557017880772
251,4407144.573464527
336,0.0
385,21.79
386,25.2
387,2.9749844201330062
388,0.0
425,0.0
450,0.0
451,0.0
452,11.399876318722171
453,0.0
490,0.0
515,0.0
516,0.0
542,0.0
592,2750915.5661979113
632,1727630.8162437426
686,0.5680233130508549
687,0.3765717122982942
688,1.25
2,21, 1,21, 0,13,50.00,60.00,Monday
250,22.039360086420942
251,4680723.009223521
336,0.0
385,22.12333333333335
386,25.200000000000017
387,3.0519349390634956
388,0.0
425,0.0
450,0.0
451,0.0
452,11.386795539862256
453,0.0
490,0.0
515,0.0
516,0.0
542,0.0
592,2576652.1824317016
632,2268065.2039605216
686,0.5408711805595331
687,0.3333333333333336
688,1.3333333333333344
2,21, 1,21, 0,14, 0.00,10.00,Monday
250,21.823103817749043
251,4284553.085124936
336,0.0
385,21.79
386,25.2
387,3.1267105478338486
388,0.0
425,0.0
450,0.0
451,0.0
452,11.344645250684085
453,0.0
490,0.0
515,0.0
516,0.0
542,0.0
592,2650089.7744347155
632,1707846.9614252665
686,0.5586929210447901
687,0.32831984341053877
688,1.25
2,21, 1,21, 0,14,10.00,20.00,Monday
250,22.038148702931785
251,4570046.359107516
336,0.0
385,22.12333333333333
386,25.199999999999996
387,3.1999240038495858
388,0.0
425,0.0
450,0.0
451,0.0
452,11.239356729816187
453,0.0
490,0.0
515,0.0
516,0.0
542,0.0
592,2509377.5146229947
632,2232763.156341133
686,0.520578985312354
687,0.33333333333333337
688,1.3333333333333333
2,21, 1,21, 0,14,20.00,30.00,Monday
250,21.825932825344864
251,4226294.185685032
336,0.0
385,21.79
386,25.2
387,3.266231725560047
388,0.0
425,0.0
450,0.0
451,0.0
452,11.070398618443818
453,0.0
490,0.0
515,0.0
516,0.0
542,0.0
592,2607880.3733902797
632,1693138.4597128886
686,0.5540639985400466
687,0.3031253200105548
688,1.25
2,21, 1,21, 0,14,30.00,40.00,Monday
250,22.03760145596413
251,4525858.837980393
336,0.0
385,22.12333333333335
386,25.200000000000017
387,3.3214338382263495
388,0.0
425,0.0
450,0.0
451,0.0
452,10.812696954413273
453,0.0
490,0.0
515,0.0
516,0.0
542,0.0
592,2488034.4149024994
632,2213015.179104629
686,0.5122848684217922
687,0.3333333333333336
688,1.3333333333333344