Program Version,EnergyPlus, Version 24.1.0-9d7789a3ac, YMD=2025.04.05 15:39
1,5,Environment Title[],Latitude[deg],Longitude[deg],Time Zone[],Elevation[m]
2,8,Day of Simulation[],Month[],Day of Month[],DST Indicator[1=yes 0=no],Hour[],StartMinute[],EndMinute[],DayType
3,5,Cumulative Day of Simulation[],Month[],Day of Month[],DST Indicator[1=yes 0=no],DayType  ! When Daily Meters Requested
4,2,Cumulative Days of Simulation[],Month[]  ! When Monthly Meters Requested
5,1,Cumulative Days of Simulation[] ! When Run Period Meters Requested
6,1,Calendar Year of Simulation[] ! When Annual Meters Requested
11,9,Electricity:Facility [J] !Monthly [Value,Min,Day,Hour,Minute,Max,Day,Hour,Minute]
23,9,Electricity:Building [J] !Monthly [Value,Min,Day,Hour,Minute,Max,Day,Hour,Minute]
59,9,InteriorLights:Electricity [J] !Monthly [Value,Min,Day,Hour,Minute,Max,Day,Hour,Minute]
521,9,Electricity:HVAC [J] !Monthly [Value,Min,Day,Hour,Minute,Max,Day,Hour,Minute]
637,9,NaturalGas:Facility [J] !Monthly [Value,Min,Day,Hour,Minute,Max,Day,Hour,Minute]
649,9,NaturalGas:HVAC [J] !Monthly [Value,Min,Day,Hour,Minute,Max,Day,Hour,Minute]
13,11,Electricity:Facility [J] !RunPeriod [Value,Min,Month,Day,Hour,Minute,Max,Month,Day,Hour,Minute]
25,11,Electricity:Building [J] !RunPeriod [Value,Min,Month,Day,Hour,Minute,Max,Month,Day,Hour,Minute]
61,11,InteriorLights:Electricity [J] !RunPeriod [Value,Min,Month,Day,Hour,Minute,Max,Month,Day,Hour,Minute]
523,11,Electricity:HVAC [J] !RunPeriod [Value,Min,Month,Day,Hour,Minute,Max,Month,Day,Hour,Minute]
639,11,NaturalGas:Facility [J] !RunPeriod [Value,Min,Month,Day,Hour,Minute,Max,Month,Day,Hour,Minute]
651,11,NaturalGas:HVAC [J] !RunPeriod [Value,Min,Month,Day,Hour,Minute,Max,Month,Day,Hour,Minute]
End of Data Dictionary
1,RUN PERIOD 1,  41.98, -87.92,  -6.00, 201.00
4,31, 1
11,7221026064.478065,175020.73236374845,16,24,50,3343446.66827725,28,14,40
23,1817314112.345812,96763.01887699378,11,20,60,1017760.8646803005,31,13,60
59,927115937.2000129,28667.777897340453, 1, 1,10,573355.557946809, 1, 8,10
521,5403711952.132265,0.0,11,13,30,2386496.501308714,27,22,30
637,11928528546.678898,0.0, 1, 9,10,18018640.07232063,31, 7,40
649,11928528546.678898,0.0, 1, 9,10,18018640.07232063,31, 7,40
4,59, 2
11,5793491366.663086,165423.8502866596,27,19,10,-99999999999999.0,28,14,40
23,1601753445.8606288,99999999999999.0,11,20,60,1018591.1655744242, 4, 9,60
59,810495416.7136252,99999999999999.0, 1, 1,10,-99999999999999.0, 1, 8,10
521,4191737920.8024635,99999999999999.0,11,13,30,-99999999999999.0,27,22,30
637,9968653257.681976,99999999999999.0, 1, 9,10,18393561.111949522, 3, 7,40
649,9968653257.681976,99999999999999.0, 1, 9,10,18393561.111949522, 3, 7,40
4,90, 3
11,5581939942.062329,86685.7852918693,31,16,60,-99999999999999.0,28,14,40
23,1689049672.064947,86685.7852918693,31,16,60,1026482.89497511,18, 9,60
59,857625243.5768588,99999999999999.0, 1, 1,10,-99999999999999.0, 1, 8,10
521,3892890269.9973955,99999999999999.0,11,13,30,-99999999999999.0,27,22,30
637,7224369076.600046,99999999999999.0, 1, 9,10,-99999999999999.0, 3, 7,40
649,7224369076.600046,99999999999999.0, 1, 9,10,-99999999999999.0, 3, 7,40
4,120, 4
11,3518641023.9856243,28667.777897340453, 5, 1,50,-99999999999999.0,28,14,40
23,1635967220.4779327,28667.777897340453, 4,24,60,-99999999999999.0,18, 9,60
59,888242430.3712184,99999999999999.0, 1, 1,10,-99999999999999.0, 1, 8,10
521,1882673803.5076926,99999999999999.0,11,13,30,-99999999999999.0,27,22,30
637,2419780368.640002,99999999999999.0, 1, 9,10,-99999999999999.0, 3, 7,40
649,2419780368.640002,99999999999999.0, 1, 9,10,-99999999999999.0, 3, 7,40
4,151, 5
11,2912600141.757195,99999999999999.0, 5, 1,50,-99999999999999.0,28,14,40
23,1631626042.9706578,99999999999999.0, 4,24,60,-99999999999999.0,18, 9,60
59,927115937.2000171,99999999999999.0, 1, 1,10,-99999999999999.0, 1, 8,10
521,1280974098.78656,99999999999999.0,11,13,30,-99999999999999.0,27,22,30
637,430862842.3224368,99999999999999.0, 1, 9,10,-99999999999999.0, 3, 7,40
649,430862842.3224368,99999999999999.0, 1, 9,10,-99999999999999.0, 3, 7,40
4,181, 6
11,3070520194.724362,99999999999999.0, 5, 1,50,-99999999999999.0,28,14,40
23,1386665566.424782,99999999999999.0, 4,24,60,-99999999999999.0,18, 9,60
59,818751736.7480634,99999999999999.0, 1, 1,10,-99999999999999.0, 1, 8,10
521,1683854628.2996144,99999999999999.0,11,13,30,-99999999999999.0,27,22,30
637,9746089.199637236,99999999999999.0, 1, 9,10,-99999999999999.0, 3, 7,40
649,9746089.199637236,99999999999999.0, 1, 9,10,-99999999999999.0, 3, 7,40
4,212, 7
11,3989598373.5961466,99999999999999.0, 5, 1,50,-99999999999999.0,28,14,40
23,1494952709.3429291,99999999999999.0, 4,24,60,-99999999999999.0,18, 9,60
59,927115937.2000129,99999999999999.0, 1, 1,10,-99999999999999.0, 1, 8,10
521,2494645664.253248,99999999999999.0,11,13,30,-99999999999999.0,27,22,30
637,0.0,99999999999999.0, 1, 9,10,-99999999999999.0, 3, 7,40
649,0.0,99999999999999.0, 1, 9,10,-99999999999999.0, 3, 7,40
4,243, 8
11,3495008567.747311,99999999999999.0, 5, 1,50,-99999999999999.0,28,14,40
23,1471103099.0677228,99999999999999.0, 4,24,60,-99999999999999.0,18, 9,60
59,892370590.3884422,99999999999999.0, 1, 1,10,-99999999999999.0, 1, 8,10
521,2023905468.6796026,99999999999999.0,11,13,30,-99999999999999.0,27,22,30
637,826954.1525099941,99999999999999.0, 1, 9,10,-99999999999999.0, 3, 7,40
649,826954.1525099941,99999999999999.0, 1, 9,10,-99999999999999.0, 3, 7,40
4,273, 9
11,2732246514.9480524,99999999999999.0, 5, 1,50,-99999999999999.0,28,14,40
23,1460476869.4214814,99999999999999.0, 4,24,60,-99999999999999.0,18, 9,60
59,853497083.559641,99999999999999.0, 1, 1,10,-99999999999999.0, 1, 8,10
521,1271769645.5265815,99999999999999.0,11,13,30,-99999999999999.0,27,22,30
637,11883319.58070483,99999999999999.0, 1, 9,10,-99999999999999.0, 3, 7,40
649,11883319.58070483,99999999999999.0, 1, 9,10,-99999999999999.0, 3, 7,40
4,304,10
11,2908567325.9681745,99999999999999.0, 5, 1,50,-99999999999999.0,28,14,40
23,1670479170.2693872,99999999999999.0, 4,24,60,-99999999999999.0,18, 9,60
59,927115937.2000129,99999999999999.0, 1, 1,10,-99999999999999.0, 1, 8,10
521,1238088155.6987865,99999999999999.0,11,13,30,-99999999999999.0,27,22,30
637,1029590249.8779824,99999999999999.0, 1, 9,10,-99999999999999.0, 3, 7,40
649,1029590249.8779824,99999999999999.0, 1, 9,10,-99999999999999.0, 3, 7,40
4,334,11
11,4852783858.394972,99999999999999.0, 5, 1,50,-99999999999999.0,28,14,40
23,1631084031.3972983,99999999999999.0, 4,24,60,-99999999999999.0,18, 9,60
59,853497083.5596392,99999999999999.0, 1, 1,10,-99999999999999.0, 1, 8,10
521,3221699826.997679,99999999999999.0,11,13,30,-99999999999999.0,27,22,30
637,5635865777.275951,99999999999999.0, 1, 9,10,-99999999999999.0, 3, 7,40
649,5635865777.275951,99999999999999.0, 1, 9,10,-99999999999999.0, 3, 7,40
4,365,12
11,5876454556.6649275,99999999999999.0, 5, 1,50,-99999999999999.0,28,14,40
23,1718942605.5204468,99999999999999.0, 4,24,60,-99999999999999.0,18, 9,60
59,892370590.3884355,99999999999999.0, 1, 1,10,-99999999999999.0, 1, 8,10
521,4157511951.1445055,99999999999999.0,11,13,30,-99999999999999.0,27,22,30
637,7767800100.0268135,99999999999999.0, 1, 9,10,-99999999999999.0, 3, 7,40
649,7767800100.0268135,99999999999999.0, 1, 9,10,-99999999999999.0, 3, 7,40
5,365
13,51952877930.98984,28667.777897340453, 4, 5, 1,50,3343446.66827725, 1,28,14,40
25,19209414545.163673,28667.777897340453, 4, 4,24,60,1026482.89497511, 3,18, 9,60
61,10575313924.099766,28667.777897340453, 1, 1, 1,10,573355.557946809, 1, 1, 8,10
523,32743463385.8263,0.0, 1,11,13,30,2386496.501308714, 1,27,22,30
639,46427906582.036736,0.0, 1, 1, 9,10,18393561.111949522, 2, 3, 7,40
651,46427906582.036736,0.0, 1, 1, 9,10,18393561.111949522, 2, 3, 7,40
End of Data
 Number of Records Written=          78
