Program Version,EnergyPlus, Version 24.2.0-94a887817b, YMD=2025.02.04 17:21
1,5,Environment Title[],Latitude[deg],Longitude[deg],Time Zone[],Elevation[m]
2,8,Day of Simulation[],Month[],Day of Month[],DST Indicator[1=yes 0=no],Hour[],StartMinute[],EndMinute[],DayType
3,5,Cumulative Day of Simulation[],Month[],Day of Month[],DST Indicator[1=yes 0=no],DayType  ! When Daily Meters Requested
4,2,Cumulative Days of Simulation[],Month[]  ! When Monthly Meters Requested
5,1,Cumulative Days of Simulation[] ! When Run Period Meters Requested
6,1,Calendar Year of Simulation[] ! When Annual Meters Requested
11,9,Electricity:Facility [J] !Monthly [Value,Min,Day,Hour,Minute,Max,Day,Hour,Minute]
23,9,Electricity:Building [J] !Monthly [Value,Min,Day,Hour,Minute,Max,Day,Hour,Minute]
59,9,InteriorLights:Electricity [J] !Monthly [Value,Min,Day,Hour,Minute,Max,Day,Hour,Minute]
521,9,Electricity:HVAC [J] !Monthly [Value,Min,Day,Hour,Minute,Max,Day,Hour,Minute]
637,9,NaturalGas:Facility [J] !Monthly [Value,Min,Day,Hour,Minute,Max,Day,Hour,Minute]
649,9,NaturalGas:HVAC [J] !Monthly [Value,Min,Day,Hour,Minute,Max,Day,Hour,Minute]
13,11,Electricity:Facility [J] !RunPeriod [Value,Min,Month,Day,Hour,Minute,Max,Month,Day,Hour,Minute]
25,11,Electricity:Building [J] !RunPeriod [Value,Min,Month,Day,Hour,Minute,Max,Month,Day,Hour,Minute]
61,11,InteriorLights:Electricity [J] !RunPeriod [Value,Min,Month,Day,Hour,Minute,Max,Month,Day,Hour,Minute]
523,11,Electricity:HVAC [J] !RunPeriod [Value,Min,Month,Day,Hour,Minute,Max,Month,Day,Hour,Minute]
639,11,NaturalGas:Facility [J] !RunPeriod [Value,Min,Month,Day,Hour,Minute,Max,Month,Day,Hour,Minute]
651,11,NaturalGas:HVAC [J] !RunPeriod [Value,Min,Month,Day,Hour,Minute,Max,Month,Day,Hour,Minute]
End of Data Dictionary
1,YEARSIMULATION,  41.98, -87.92,  -6.00, 201.00
4,31, 1
11,9718628171.830763,390498.7798373359,11,19,20,3514163.4705803622,23,13,60
23,1865584684.5485888,110012.05997452399,11,20,40,1021473.1401827072,31,14,20
59,919145611.0785183,28421.323781030693, 1, 1,10,568426.4756206138, 1, 8,10
521,7853043487.282192,0.0,11,14,50,2578831.881540702,27,19,30
637,17712866208.895733,0.0, 1, 8,30,21034932.195602816,31, 7,30
649,17712866208.895733,0.0, 1, 8,30,21034932.195602816,31, 7,30
4,59, 2
11,8108578319.21823,356725.23844107625,11,15,10,3538318.5600539795, 2,16,60
23,1646053809.6770315,99999999999999.0,11,20,40,-99999999999999.0,31,14,20
59,803527665.9372827,99999999999999.0, 1, 1,10,-99999999999999.0, 1, 8,10
521,6462524509.541227,99999999999999.0,11,14,50,2616155.20760285, 5, 1,60
637,14529625988.913517,99999999999999.0, 1, 8,30,22081231.70813486, 3, 7,60
649,14529625988.913517,99999999999999.0, 1, 8,30,22081231.70813486, 3, 7,60
4,90, 3
11,8352135305.197071,97720.34747803496,31,16,50,-99999999999999.0, 2,16,60
23,1788769943.6481872,94606.91535526594,31,16,60,-99999999999999.0,31,14,20
59,884698966.655903,99999999999999.0, 1, 1,10,-99999999999999.0, 1, 8,10
521,6563365361.548907,99999999999999.0,11,14,50,-99999999999999.0, 5, 1,60
637,10801504559.987667,99999999999999.0, 1, 8,30,-99999999999999.0, 3, 7,60
649,10801504559.987667,99999999999999.0, 1, 8,30,-99999999999999.0, 3, 7,60
4,120, 4
11,5558596764.613878,28421.323781030693,12,19,10,-99999999999999.0, 2,16,60
23,1610744560.6694613,28421.323781030693,11,19,10,-99999999999999.0,31,14,20
59,846159651.6088324,99999999999999.0, 1, 1,10,-99999999999999.0, 1, 8,10
521,3947852203.9443927,99999999999999.0,11,14,50,-99999999999999.0, 5, 1,60
637,4555963931.085409,99999999999999.0, 1, 8,30,-99999999999999.0, 3, 7,60
649,4555963931.085409,99999999999999.0, 1, 8,30,-99999999999999.0, 3, 7,60
4,151, 5
11,4280422877.4742002,99999999999999.0,12,19,10,-99999999999999.0, 2,16,60
23,1632361325.7640636,99999999999999.0,11,19,10,-99999999999999.0,31,14,20
59,919145611.0785183,99999999999999.0, 1, 1,10,-99999999999999.0, 1, 8,10
521,2648061551.7101145,99999999999999.0,11,14,50,-99999999999999.0, 5, 1,60
637,1422339499.9785297,99999999999999.0, 1, 8,30,-99999999999999.0, 3, 7,60
649,1422339499.9785297,99999999999999.0, 1, 8,30,-99999999999999.0, 3, 7,60
4,181, 6
11,3626748395.131777,99999999999999.0,12,19,10,-99999999999999.0, 2,16,60
23,1421951097.3430674,99999999999999.0,11,19,10,-99999999999999.0,31,14,20
59,846159651.6088344,99999999999999.0, 1, 1,10,-99999999999999.0, 1, 8,10
521,2204797297.7887063,99999999999999.0,11,14,50,-99999999999999.0, 5, 1,60
637,203404344.59123504,99999999999999.0, 1, 8,30,-99999999999999.0, 3, 7,60
649,203404344.59123504,99999999999999.0, 1, 8,30,-99999999999999.0, 3, 7,60
4,212, 7
11,3947147545.1370754,99999999999999.0,12,19,10,-99999999999999.0, 2,16,60
23,1412762238.813475,99999999999999.0,11,19,10,-99999999999999.0,31,14,20
59,884698966.6559095,99999999999999.0, 1, 1,10,-99999999999999.0, 1, 8,10
521,2534385306.3235607,99999999999999.0,11,14,50,-99999999999999.0, 5, 1,60
637,38437820.102571644,99999999999999.0, 1, 8,30,-99999999999999.0, 3, 7,60
649,38437820.102571644,99999999999999.0, 1, 8,30,-99999999999999.0, 3, 7,60
4,243, 8
11,3752961250.104799,99999999999999.0,12,19,10,-99999999999999.0, 2,16,60
23,1493243979.55252,99999999999999.0,11,19,10,-99999999999999.0,31,14,20
59,919145611.0785142,99999999999999.0, 1, 1,10,-99999999999999.0, 1, 8,10
521,2259717270.552257,99999999999999.0,11,14,50,-99999999999999.0, 5, 1,60
637,80271796.4439519,99999999999999.0, 1, 8,30,-99999999999999.0, 3, 7,60
649,80271796.4439519,99999999999999.0, 1, 8,30,-99999999999999.0, 3, 7,60
4,273, 9
11,3399032633.9724708,99999999999999.0,12,19,10,-99999999999999.0, 2,16,60
23,1398546885.6798294,99999999999999.0,11,19,10,-99999999999999.0,31,14,20
59,811713007.1862237,99999999999999.0, 1, 1,10,-99999999999999.0, 1, 8,10
521,2000485748.2926497,99999999999999.0,11,14,50,-99999999999999.0, 5, 1,60
637,275063428.0956829,99999999999999.0, 1, 8,30,-99999999999999.0, 3, 7,60
649,275063428.0956829,99999999999999.0, 1, 8,30,-99999999999999.0, 3, 7,60
4,304,10
11,4635011902.424355,99999999999999.0,12,19,10,-99999999999999.0, 2,16,60
23,1689363840.4366055,99999999999999.0,11,19,10,-99999999999999.0,31,14,20
59,919145611.0785183,99999999999999.0, 1, 1,10,-99999999999999.0, 1, 8,10
521,2945648061.9877477,99999999999999.0,11,14,50,-99999999999999.0, 5, 1,60
637,2692441752.4169736,99999999999999.0, 1, 8,30,-99999999999999.0, 3, 7,60
649,2692441752.4169736,99999999999999.0, 1, 8,30,-99999999999999.0, 3, 7,60
4,334,11
11,7099883291.87845,99999999999999.0,12,19,10,-99999999999999.0, 2,16,60
23,1724906233.6537435,99999999999999.0,11,19,10,-99999999999999.0,31,14,20
59,880606296.031437,99999999999999.0, 1, 1,10,-99999999999999.0, 1, 8,10
521,5374977058.224705,99999999999999.0,11,14,50,-99999999999999.0, 5, 1,60
637,9243447720.596447,99999999999999.0, 1, 8,30,-99999999999999.0, 3, 7,60
649,9243447720.596447,99999999999999.0, 1, 8,30,-99999999999999.0, 3, 7,60
4,365,12
11,8450095762.638986,99999999999999.0,12,19,10,-99999999999999.0, 2,16,60
23,1711898072.7971563,99999999999999.0,11,19,10,-99999999999999.0,31,14,20
59,850252322.2333009,99999999999999.0, 1, 1,10,-99999999999999.0, 1, 8,10
521,6738197689.841847,99999999999999.0,11,14,50,-99999999999999.0, 5, 1,60
637,11101741257.629559,99999999999999.0, 1, 8,30,-99999999999999.0, 3, 7,60
649,11101741257.629559,99999999999999.0, 1, 8,30,-99999999999999.0, 3, 7,60
5,365
13,70929242219.62277,28421.323781030693, 4,12,19,10,3538318.5600539795, 2, 2,16,60
25,19396186672.58554,28421.323781030693, 4,11,19,10,1021473.1401827072, 1,31,14,20
61,10484398972.234215,28421.323781030693, 1, 1, 1,10,568426.4756206138, 1, 1, 8,10
523,51533055547.03803,0.0, 1,11,14,50,2616155.20760285, 2, 5, 1,60
639,72657108308.737,0.0, 1, 1, 8,30,22081231.70813486, 2, 3, 7,60
651,72657108308.737,0.0, 1, 1, 8,30,22081231.70813486, 2, 3, 7,60
End of Data
 Number of Records Written=          78
