Program Version,EnergyPlus, Version 24.2.0-94a887817b, YMD=2025.02.04 15:38
1,5,Environment Title[],Latitude[deg],Longitude[deg],Time Zone[],Elevation[m]
2,8,Day of Simulation[],Month[],Day of Month[],DST Indicator[1=yes 0=no],Hour[],StartMinute[],EndMinute[],DayType
3,5,Cumulative Day of Simulation[],Month[],Day of Month[],DST Indicator[1=yes 0=no],DayType  ! When Daily Report Variables Requested
4,2,Cumulative Days of Simulation[],Month[]  ! When Monthly Report Variables Requested
5,1,Cumulative Days of Simulation[] ! When Run Period Report Variables Requested
6,1,Calendar Year of Simulation[] ! When Annual Report Variables Requested
250,1,LIVING ZONE,Zone Air Temperature [C] !TimeStep,REPORTSCH
251,1,LIVING ZONE,Zone Air System Sensible Heating Energy [J] !TimeStep,REPORTSCH
336,1,LIVING ZONE,Zone Air System Sensible Cooling Energy [J] !TimeStep,REPORTSCH
385,1,LIVING ZONE,Zone Thermostat Heating Setpoint Temperature [C] !TimeStep,REPORTSCH
386,1,LIVING ZONE,Zone Thermostat Cooling Setpoint Temperature [C] !TimeStep,REPORTSCH
387,1,GARAGE ZONE,Zone Air Temperature [C] !TimeStep,REPORTSCH
388,1,GARAGE ZONE,Zone Air System Sensible Heating Energy [J] !TimeStep,REPORTSCH
425,1,GARAGE ZONE,Zone Air System Sensible Cooling Energy [J] !TimeStep,REPORTSCH
450,1,GARAGE ZONE,Zone Thermostat Heating Setpoint Temperature [C] !TimeStep,REPORTSCH
451,1,GARAGE ZONE,Zone Thermostat Cooling Setpoint Temperature [C] !TimeStep,REPORTSCH
452,1,ATTIC ZONE,Zone Air Temperature [C] !TimeStep,REPORTSCH
453,1,ATTIC ZONE,Zone Air System Sensible Heating Energy [J] !TimeStep,REPORTSCH
490,1,ATTIC ZONE,Zone Air System Sensible Cooling Energy [J] !TimeStep,REPORTSCH
515,1,ATTIC ZONE,Zone Thermostat Heating Setpoint Temperature [C] !TimeStep,REPORTSCH
516,1,ATTIC ZONE,Zone Thermostat Cooling Setpoint Temperature [C] !TimeStep,REPORTSCH
542,1,ACDXCOIL 1,Cooling Coil Total Cooling Energy [J] !TimeStep,REPORTSCH
592,1,HEAT PUMP DX HEATING COIL 1,Heating Coil Heating Energy [J] !TimeStep,REPORTSCH
632,1,SUPP HEATING COIL 1,Heating Coil Heating Energy [J] !TimeStep,REPORTSCH
686,1,TWOSPEED HEAT PUMP 1,Unitary System DX Coil Cycling Ratio [] !TimeStep,REPORTSCH
687,1,TWOSPEED HEAT PUMP 1,Unitary System DX Coil Speed Ratio [] !TimeStep,REPORTSCH
688,1,TWOSPEED HEAT PUMP 1,Unitary System DX Coil Speed Level [] !TimeStep,REPORTSCH
End of Data Dictionary
1,RUN PERIOD 1,  41.98, -87.92,  -6.00, 201.00
2,21, 1,21, 0, 1, 0.00,10.00,Monday
250,-0.8386819532864515
251,38098122.87967617
336,0.0
385,19.919589813118947
386,27.780690809452334
387,-0.9477519877136806
388,0.0
425,0.0
450,0.0
451,0.0
452,-1.9751428724670095
453,0.0
490,0.0
515,0.0
516,0.0
542,0.0
592,4839743.985079641
632,33000000.0
686,1.0
687,1.0
688,2.0
2,21, 1,21, 0, 1,10.00,20.00,Monday
250,-0.8388319254061396
251,38082773.83657567
336,0.0
385,19.919589813118947
386,27.780690809452334
387,-0.9561121344573918
388,0.0
425,0.0
450,0.0
451,0.0
452,-1.956996733109106
453,0.0
490,0.0
515,0.0
516,0.0
542,0.0
592,4823801.676011795
632,33000000.0
686,1.0
687,1.0
688,2.0
2,21, 1,21, 0, 1,20.00,30.00,Monday
250,-0.8390205533421775
251,38066851.13683837
336,0.0
385,19.919589813118947
386,27.780690809452334
387,-0.965707982404803
388,0.0
425,0.0
450,0.0
451,0.0
452,-1.953918466993387
453,0.0
490,0.0
515,0.0
516,0.0
542,0.0
592,4807858.162905219
632,33000000.0
686,1.0
687,1.0
688,2.0
2,21, 1,21, 0, 1,30.00,40.00,Monday
250,-0.8392047927867848
251,38050904.06137173
336,0.0
385,19.919589813118947
386,27.780690809452334
387,-0.9767442471246123
388,0.0
425,0.0
450,0.0
451,0.0
452,-1.9667934457450864
453,0.0
490,0.0
515,0.0
516,0.0
542,0.0
592,4791913.445623511
632,33000000.0
686,1.0
687,1.0
688,2.0
2,21, 1,21, 0, 1,40.00,50.00,Monday
250,-0.8393904323955732
251,38034958.89791039
336,0.0
385,19.919589813118947
386,27.780690809452334
387,-0.9893782012915643
388,0.0
425,0.0
450,0.0
451,0.0
452,-1.994000414132639
453,0.0
490,0.0
515,0.0
516,0.0
542,0.0
592,4775967.524030241
632,33000000.0
686,1.0
687,1.0
688,2.0
2,21, 1,21, 0, 1,50.00,60.00,Monday
250,-0.8395766445947063
251,38019012.08449564
336,0.0
385,19.919589813118947
386,27.780690809452334
387,-1.0037986194328585
388,0.0
425,0.0
450,0.0
451,0.0
452,-2.0340105654642215
453,0.0
490,0.0
515,0.0
516,0.0
542,0.0
592,4760020.397988958
632,33000000.0
686,1.0
687,1.0
688,2.0
2,21, 1,21, 0, 2, 0.00,10.00,Monday
250,-0.8396534216090614
251,38018953.16563068
336,0.0
385,19.919589813118947
386,27.780690809452334
387,-1.0193228154257579
388,0.0
425,0.0
450,0.0
451,0.0
452,-2.0807781627466078
453,0.0
490,0.0
515,0.0
516,0.0
542,0.0
592,4760020.397988958
632,33000000.0
686,1.0
687,1.0
688,2.0
2,21, 1,21, 0, 2,10.00,20.00,Monday
250,-0.8397276410417863
251,38018951.788569614
336,0.0
385,19.919589813118947
386,27.780690809452334
387,-1.0350075892023574
388,0.0
425,0.0
450,0.0
451,0.0
452,-2.123512169668707
453,0.0
490,0.0
515,0.0
516,0.0
542,0.0
592,4760020.397988959
632,33000000.0
686,1.0
687,1.0
688,2.0
2,21, 1,21, 0, 2,20.00,30.00,Monday
250,-0.8398016557691887
251,38018951.67834257
336,0.0
385,19.919589813118947
386,27.780690809452334
387,-1.0502991132804227
388,0.0
425,0.0
450,0.0
451,0.0
452,-2.1549825358080077
453,0.0
490,0.0
515,0.0
516,0.0
542,0.0
592,4760020.397988956
632,33000000.0
686,1.0
687,1.0
688,2.0
2,21, 1,21, 0, 2,30.00,40.00,Monday
250,-0.8398742432181868
251,38018950.90985438
336,0.0
385,19.919589813118947
386,27.780690809452334
387,-1.0648759985682386
388,0.0
425,0.0
450,0.0
451,0.0
452,-2.1743656890921845
453,0.0
490,0.0
515,0.0
516,0.0
542,0.0
592,4760020.397988958
632,33000000.0
686,1.0
687,1.0
688,2.0
2,21, 1,21, 0, 2,40.00,50.00,Monday
250,-0.8399457460276432
251,38018950.3258515
336,0.0
385,19.919589813118947
386,27.780690809452334
387,-1.0785978176653437
388,0.0
425,0.0
450,0.0
451,0.0
452,-2.1845062705607665
453,0.0
490,0.0
515,0.0
516,0.0
542,0.0
592,4760020.397988959
632,33000000.0
686,1.0
687,1.0
688,2.0
2,21, 1,21, 0, 2,50.00,60.00,Monday
250,-0.8400159805147653
251,38018949.6429481
336,0.0
385,19.919589813118947
386,27.780690809452334
387,-1.091427205584526
388,0.0
425,0.0
450,0.0
451,0.0
452,-2.1885530267358098
453,0.0
490,0.0
515,0.0
516,0.0
542,0.0
592,4760020.397988958
632,33000000.0
686,1.0
687,1.0
688,2.0
2,21, 1,21, 0, 3, 0.00,10.00,Monday
250,-0.7576796265815072
251,37977117.92117298
336,0.0
385,19.919589813118947
386,27.780690809452334
387,-1.092974690278529
388,0.0
425,0.0
450,0.0
451,0.0
452,-2.1810733559752027
453,0.0
490,0.0
515,0.0
516,0.0
542,0.0
592,4762558.894114006
632,33000000.0
686,1.0
687,1.0
688,2.0
2,21, 1,21, 0, 3,10.00,20.00,Monday
250,-0.6741234758294442
251,37978888.85230975
336,0.0
385,19.919589813118947
386,27.780690809452334
387,-1.0819267866307343
388,0.0
425,0.0
450,0.0
451,0.0
452,-2.1560913246381257
453,0.0
490,0.0
515,0.0
516,0.0
542,0.0
592,4764988.4357309695
632,33000000.0
686,1.0
687,1.0
688,2.0
2,21, 1,21, 0, 3,20.00,30.00,Monday
250,-0.5909954635501002
251,37981437.334751345
336,0.0
385,19.919589813118947
386,27.780690809452334
387,-1.0626909874495645
388,0.0
425,0.0
450,0.0
451,0.0
452,-2.1121590519914073
453,0.0
490,0.0
515,0.0
516,0.0
542,0.0
592,4767308.250738335
632,33000000.0
686,1.0
687,1.0
688,2.0
2,21, 1,21, 0, 3,30.00,40.00,Monday
250,-0.5078611047696654
251,37968293.98267388
336,0.0
385,19.919589813118947
386,27.780690809452334
387,-1.0390624120021348
388,0.0
425,0.0
450,0.0
451,0.0
452,-2.052409651503305
453,0.0
490,0.0
515,0.0
516,0.0
542,0.0
592,4769517.689516205
632,32984652.493681483
686,1.0
687,1.0
688,2.0
2,21, 1,21, 0, 3,40.00,50.00,Monday
250,-0.4249061929350713
251,37925216.75153127
336,0.0
385,19.919589813118947
386,27.780690809452334
387,-1.0123460660009986
388,0.0
425,0.0
450,0.0
451,0.0
452,-1.981327924522005
453,0.0
490,0.0
515,0.0
516,0.0
542,0.0
592,4771616.115684973
632,32939382.082000643
686,1.0
687,1.0
688,2.0
2,21, 1,21, 0, 3,50.00,60.00,Monday
250,-0.3419390581170333
251,37882139.739371374
336,0.0
385,19.919589813118947
386,27.780690809452334
387,-0.9822917624238734
388,0.0
425,0.0
450,0.0
451,0.0
452,-1.902532060553637
453,0.0
490,0.0
515,0.0
516,0.0
542,0.0
592,4773602.736238396
632,32894326.92166453
686,1.0
687,1.0
688,2.0
2,21, 1,21, 0, 4, 0.00,10.00,Monday
250,-0.3413426911158192
251,37883431.497471094
336,0.0
385,19.919589813118947
386,27.780690809452334
387,-0.9595606007507663
388,0.0
425,0.0
450,0.0
451,0.0
452,-1.8263108947789086
453,0.0
490,0.0
515,0.0
516,0.0
542,0.0
592,4773428.982371633
632,32851432.26931434
686,1.0
687,1.0
688,2.0
2,21, 1,21, 0, 4,10.00,20.00,Monday
250,-0.34167148316920753
251,37883663.906998575
336,0.0
385,19.919589813118947
386,27.780690809452334
387,-0.9469684787965287
388,0.0
425,0.0
450,0.0
451,0.0
452,-1.7617047548238411
453,0.0
490,0.0
515,0.0
516,0.0
542,0.0
592,4773255.169447958
632,32851340.232612025
686,1.0
687,1.0
688,2.0
2,21, 1,21, 0, 4,20.00,30.00,Monday
250,-0.3415470585825971
251,37883628.750801265
336,0.0
385,19.919589813118947
386,27.780690809452334
387,-0.940991841774843
388,0.0
425,0.0
450,0.0
451,0.0
452,-1.7123177015257371
453,0.0
490,0.0
515,0.0
516,0.0
542,0.0
592,4773081.297437259
632,32851723.035756133
686,1.0
687,1.0
688,2.0
2,21, 1,21, 0, 4,30.00,40.00,Monday
250,-0.3415188328869809
251,37883654.012094356
336,0.0
385,19.919589813118947
386,27.780690809452334
387,-0.9377525463783187
388,0.0
425,0.0
450,0.0
451,0.0
452,-1.6764894985394352
453,0.0
490,0.0
515,0.0
516,0.0
542,0.0
592,4772907.3663094025
632,32851870.418655075
686,1.0
687,1.0
688,2.0
2,21, 1,21, 0, 4,40.00,50.00,Monday
250,-0.3414964096271114
251,37883680.690014906
336,0.0
385,19.919589813118947
386,27.780690809452334
387,-0.9354643911575599
388,0.0
425,0.0
450,0.0
451,0.0
452,-1.650549300379476
453,0.0
490,0.0
515,0.0
516,0.0
542,0.0
592,4772733.376034233
632,32852067.961859994
686,1.0
687,1.0
688,2.0
2,21, 1,21, 0, 4,50.00,60.00,Monday
250,-0.3414735382030963
251,37883707.034490615
336,0.0
385,19.919589813118947
386,27.780690809452334
387,-0.9339513950614886
388,0.0
425,0.0
450,0.0
451,0.0
452,-1.6314392937534268
453,0.0
490,0.0
515,0.0
516,0.0
542,0.0
592,4772559.326581575
632,32852268.597167816
686,1.0
687,1.0
688,2.0
2,21, 1,21, 0, 5, 0.00,10.00,Monday
250,-0.34145206723864785
251,37883734.16555242
336,0.0
385,19.919589813118947
386,27.780690809452334
387,-0.9332711445623431
388,0.0
425,0.0
450,0.0
451,0.0
452,-1.6165441847265045
453,0.0
490,0.0
515,0.0
516,0.0
542,0.0
592,4759720.858689581
632,32865133.441889912
686,1.0
687,1.0
688,2.0
2,21, 1,21, 0, 5,10.00,20.00,Monday
250,-0.34142238641483885
251,37885032.321073614
336,0.0
385,19.919589813118947
386,27.780690809452334
387,-0.9332883442542194
388,0.0
425,0.0
450,0.0
451,0.0
452,-1.6035530763113208
453,0.0
490,0.0
515,0.0
516,0.0
542,0.0
592,4746877.262331866
632,32879279.61590008
686,1.0
687,1.0
688,2.0
2,21, 1,21, 0, 5,20.00,30.00,Monday
250,-0.3413926538291945
251,37886350.172691934
336,0.0
385,19.919589813118947
386,27.780690809452334
387,-0.9337731817431435
388,0.0
425,0.0
450,0.0
451,0.0
452,-1.5910644583349631
453,0.0
490,0.0
515,0.0
516,0.0
542,0.0
592,4734028.534436011
632,32893446.223856356
686,1.0
687,1.0
688,2.0
2,21, 1,21, 0, 5,30.00,40.00,Monday
250,-0.34136307960106926
251,37887661.612610266
336,0.0
385,19.919589813118947
386,27.780690809452334
387,-0.9345216067164944
388,0.0
425,0.0
450,0.0
451,0.0
452,-1.5786454258997031
453,0.0
490,0.0
515,0.0
516,0.0
542,0.0
592,4721174.671927155
632,32907611.441549186
686,1.0
687,1.0
688,2.0
2,21, 1,21, 0, 5,40.00,50.00,Monday
250,-0.3413334500133894
251,37888974.960710004
336,0.0
385,19.919589813118947
386,27.780690809452334
387,-0.9353974648658301
388,0.0
425,0.0
450,0.0
451,0.0
452,-1.566365233866656
453,0.0
490,0.0
515,0.0
516,0.0
542,0.0
592,4708315.671727969
632,32921783.820226133
686,1.0
687,1.0
688,2.0
2,21, 1,21, 0, 5,50.00,60.00,Monday
250,-0.34130369381479514
251,37890288.855550945
336,0.0
385,19.919589813118947
386,27.780690809452334
387,-0.9363216114502042
388,0.0
425,0.0
450,0.0
451,0.0
452,-1.554375077601034
453,0.0
490,0.0
515,0.0
516,0.0
542,0.0
592,4695451.530758674
632,32935961.92479724
686,1.0
687,1.0
688,2.0
2,21, 1,21, 0, 6, 0.00,10.00,Monday
250,-0.3412725869155092
251,37891602.53630746
336,0.0
385,19.919589813118947
386,27.780690809452334
387,-0.9373808783574507
388,0.0
425,0.0
450,0.0
451,0.0
452,-1.543372140487621
453,0.0
490,0.0
515,0.0
516,0.0
542,0.0
592,4695264.082255858
632,32937463.782218017
686,1.0
687,1.0
688,2.0
2,21, 1,21, 0, 6,10.00,20.00,Monday
250,-0.34124992797023423
251,37891644.11269887
336,0.0
385,19.919589813118947
386,27.780690809452334
387,-0.9386586545986246
388,0.0
425,0.0
450,0.0
451,0.0
452,-1.5341706017111754
453,0.0
490,0.0
515,0.0
516,0.0
542,0.0
592,4695076.569900008
632,32937688.320218813
686,1.0
687,1.0
688,2.0
2,21, 1,21, 0, 6,20.00,30.00,Monday
250,-0.3412273189807093
251,37891666.50211281
336,0.0
385,19.919589813118947
386,27.780690809452334
387,-0.9401490148802266
388,0.0
425,0.0
450,0.0
451,0.0
452,-1.527094990381549
453,0.0
490,0.0
515,0.0
516,0.0
542,0.0
592,4694888.993658494
632,32937898.258975063
686,1.0
687,1.0
688,2.0
2,21, 1,21, 0, 6,30.00,40.00,Monday
250,-0.34120425519564856
251,37891695.69470225
336,0.0
385,19.919589813118947
386,27.780690809452334
387,-0.9418096996067047
388,0.0
425,0.0
450,0.0
451,0.0
452,-1.5219369078696687
453,0.0
490,0.0
515,0.0
516,0.0
542,0.0
592,4694701.353498661
632,32938115.336728882
686,1.0
687,1.0
688,2.0
2,21, 1,21, 0, 6,40.00,50.00,Monday
250,-0.34118104247637193
251,37891723.40947337
336,0.0
385,19.919589813118947
386,27.780690809452334
387,-0.9436086669542307
388,0.0
425,0.0
450,0.0
451,0.0
452,-1.5182475898474423
453,0.0
490,0.0
515,0.0
516,0.0
542,0.0
592,4694513.649387832
632,32938330.83585262
686,1.0
687,1.0
688,2.0
2,21, 1,21, 0, 6,50.00,60.00,Monday
250,-0.3411575436396432
251,37891750.89761796
336,0.0
385,19.919589813118947
386,27.780690809452334
387,-0.945528724739525
388,0.0
425,0.0
450,0.0
451,0.0
452,-1.5156077058430002
453,0.0
490,0.0
515,0.0
516,0.0
542,0.0
592,4694325.881293308
632,32938546.246232253
686,1.0
687,1.0
688,2.0
2,21, 1,21, 0, 7, 0.00,10.00,Monday
250,-0.34175041288646507
251,37892110.44395971
336,0.0
385,19.919589813118947
386,27.780690809452334
387,-0.9499910956047816
388,0.0
425,0.0
450,0.0
451,0.0
452,-1.5188852750083799
453,0.0
490,0.0
515,0.0
516,0.0
542,0.0
592,4723573.583255435
632,32909326.06181796
686,1.0
687,1.0
688,2.0
2,21, 1,21, 0, 7,10.00,20.00,Monday
250,-0.3417289800316764
251,37889195.461401604
336,0.0
385,19.919589813118947
386,27.780690809452334
387,-0.9591686684836135
388,0.0
425,0.0
450,0.0
451,0.0
452,-1.537555144689476
453,0.0
490,0.0
515,0.0
516,0.0
542,0.0
592,4752837.186047653
632,32877478.391474925
686,1.0
687,1.0
688,2.0
2,21, 1,21, 0, 7,20.00,30.00,Monday
250,-0.3416928434896594
251,37886226.67240054
336,0.0
385,19.919589813118947
386,27.780690809452334
387,-0.9733025198667299
388,0.0
425,0.0
450,0.0
451,0.0
452,-1.5769860207472848
453,0.0
490,0.0
515,0.0
516,0.0
542,0.0
592,4782116.702651945
632,32845238.004416768
686,1.0
687,1.0
688,2.0
2,21, 1,21, 0, 7,30.00,40.00,Monday
250,-0.34165976524696967
251,37883274.15253112
336,0.0
385,19.919589813118947
386,27.780690809452334
387,-0.9914382224085494
388,0.0
425,0.0
450,0.0
451,0.0
452,-1.6347911918161666
453,0.0
490,0.0
515,0.0
516,0.0
542,0.0
592,4811412.146064443
632,32812988.392546486
686,1.0
687,1.0
688,2.0
2,21, 1,21, 0, 7,40.00,50.00,Monday
250,-0.3416254571142895
251,37880316.12878809
336,0.0
385,19.919589813118947
386,27.780690809452334
387,-1.0124973971008713
388,0.0
425,0.0
450,0.0
451,0.0
452,-1.704715814828061
453,0.0
490,0.0
515,0.0
516,0.0
542,0.0
592,4840723.529295459
632,32780719.646509495
686,1.0
687,1.0
688,2.0
2,21, 1,21, 0, 7,50.00,60.00,Monday
250,-0.34159068291506306
251,37877356.064711735
336,0.0
385,19.919589813118947
386,27.780690809452334
387,-1.035733269556865
388,0.0
425,0.0
450,0.0
451,0.0
452,-1.7810683534207257
453,0.0
490,0.0
515,0.0
516,0.0
542,0.0
592,4870050.865369484
632,32748432.495890815
686,1.0
687,1.0
688,2.0
2,21, 1,21, 0, 8, 0.00,10.00,Monday
250,-0.1413404638830349
251,37766591.33132747
336,0.0
385,19.919589813118947
386,27.780690809452334
387,-1.0318535057058469
388,0.0
425,0.0
450,0.0
451,0.0
452,-1.8400161583345325
453,0.0
490,0.0
515,0.0
516,0.0
542,0.0
592,4889730.300311493
632,32725791.439554796
686,1.0
687,1.0
688,2.0
2,21, 1,21, 0, 8,10.00,20.00,Monday
250,0.05899479915332453
251,37661041.79117317
336,0.0
385,19.919589813118947
386,27.780690809452334
387,-0.990342214326525
388,0.0
425,0.0
450,0.0
451,0.0
452,-1.8311583009376786
453,0.0
490,0.0
515,0.0
516,0.0
542,0.0
592,4909380.719869504
632,32600643.910363823
686,1.0
687,1.0
688,2.0
2,21, 1,21, 0, 8,20.00,30.00,Monday
250,0.25808270548605095
251,37556242.06398823
336,0.0
385,19.919589813118947
386,27.780690809452334
387,-0.9193496119758563
388,0.0
425,0.0
450,0.0
451,0.0
452,-1.7237238487313569
453,0.0
490,0.0
515,0.0
516,0.0
542,0.0
592,4929009.6156952735
632,32475550.484162692
686,1.0
687,1.0
688,2.0
2,21, 1,21, 0, 8,30.00,40.00,Monday
250,0.4575112406925589
251,37451228.96706367
336,0.0
385,19.919589813118947
386,27.780690809452334
387,-0.8290980335772996
388,0.0
425,0.0
450,0.0
451,0.0
452,-1.5280834005927717
453,0.0
490,0.0
515,0.0
516,0.0
542,0.0
592,4952863.646772657
632,32346873.610479087
686,1.0
687,1.0
688,2.0
2,21, 1,21, 0, 8,40.00,50.00,Monday
250,0.6570028272706131
251,37345773.80793297
336,0.0
385,19.919589813118947
386,27.780690809452334
387,-0.7275395534202043
388,0.0
425,0.0
450,0.0
451,0.0
452,-1.2526174064226294
453,0.0
490,0.0
515,0.0
516,0.0
542,0.0
592,4977062.298687914
632,32217259.44690656
686,1.0
687,1.0
688,2.0
2,21, 1,21, 0, 8,50.00,60.00,Monday
250,0.8569755113243971
251,37240994.72008136
336,0.0
385,19.919589813118947
386,27.780690809452334
387,-0.6316839025883627
388,0.0
425,0.0
450,0.0
451,0.0
452,-0.9397108909435633
453,0.0
490,0.0
515,0.0
516,0.0
542,0.0
592,5001395.306277513
632,32035050.331384957
686,1.0
687,1.0
688,2.0
2,21, 1,21, 0, 9, 0.00,10.00,Monday
250,1.1229124333970013
251,37101732.738308415
336,0.0
385,19.919589813118947
386,27.780690809452334
387,-0.4933270210406837
388,0.0
425,0.0
450,0.0
451,0.0
452,-0.4603384824167198
453,0.0
490,0.0
515,0.0
516,0.0
542,0.0
592,5029363.153609448
632,31884458.443291403
686,1.0
687,1.0
688,2.0
2,21, 1,21, 0, 9,10.00,20.00,Monday
250,1.3887422284491615
251,36961570.789737366
336,0.0
385,19.919589813118947
386,27.780690809452334
387,-0.3425726563860667
388,0.0
425,0.0
450,0.0
451,0.0
452,0.06388470697328709
453,0.0
490,0.0
515,0.0
516,0.0
542,0.0
592,5057356.862312016
632,31716280.614091396
686,1.0
687,1.0
688,2.0
2,21, 1,21, 0, 9,20.00,30.00,Monday
250,1.654666545960447
251,36821353.801700264
336,0.0
385,19.919589813118947
386,27.780690809452334
387,-0.18266726608300893
388,0.0
425,0.0
450,0.0
451,0.0
452,0.6285876106518125
453,0.0
490,0.0
515,0.0
516,0.0
542,0.0
592,5085392.284952975
632,31548054.246318184
686,1.0
687,1.0
688,2.0
2,21, 1,21, 0, 9,30.00,40.00,Monday
250,1.9205415165791289
251,36681161.26045486
336,0.0
385,19.919589813118947
386,27.780690809452334
387,-0.012901944963469338
388,0.0
425,0.0
450,0.0
451,0.0
452,1.223223191172612
453,0.0
490,0.0
515,0.0
516,0.0
542,0.0
592,5113485.892141593
632,31379756.055042
686,1.0
687,1.0
688,2.0
2,21, 1,21, 0, 9,40.00,50.00,Monday
250,2.1866026295109973
251,36539871.194475815
336,0.0
385,19.91958981311896
386,27.780690809452356
387,0.13229088593727317
388,0.0
425,0.0
450,0.0
451,0.0
452,1.7249073968124882
453,0.0
490,0.0
515,0.0
516,0.0
542,0.0
592,5141654.529350725
632,31187112.820293732
686,1.0000000000000009
687,1.0000000000000009
688,2.0000000000000018
2,21, 1,21, 0, 9,50.00,60.00,Monday
250,2.452779672454616
251,36398982.41606983
336,0.0
385,19.919589813118947
386,27.780690809452334
387,0.2844568345730129
388,0.0
425,0.0
450,0.0
451,0.0
452,2.265393809570549
453,0.0
490,0.0
515,0.0
516,0.0
542,0.0
592,5169915.672059793
632,31042542.379478924
686,1.0
687,1.0
688,2.0
2,21, 1,21, 0,10, 0.00,10.00,Monday
250,2.9166494842055313
251,36152852.69864452
336,0.0
385,19.919589813118947
386,27.780690809452338
387,0.47494734534982785
388,0.0
425,0.0
450,0.0
451,0.0
452,2.8246761782440606
453,0.0
490,0.0
515,0.0
516,0.0
542,0.0
592,5241404.10703412
632,30735912.733011447
686,1.0
687,1.0
688,2.0
2,21, 1,21, 0,10,10.00,20.00,Monday
250,3.3812644173717157
251,35906946.906700686
336,0.0
385,19.919589813118947
386,27.780690809452334
387,0.7659958603045665
388,0.0
425,0.0
450,0.0
451,0.0
452,3.5795689059452096
453,0.0
490,0.0
515,0.0
516,0.0
542,0.0
592,5315291.857316207
632,30415186.963568524
686,1.0
687,1.0
688,2.0
2,21, 1,21, 0,10,20.00,30.00,Monday
250,3.846077331479976
251,35659664.03534176
336,0.0
385,19.91958981311894
386,27.780690809452324
387,1.046370497443564
388,0.0
425,0.0
450,0.0
451,0.0
452,4.268462897766705
453,0.0
490,0.0
515,0.0
516,0.0
542,0.0
592,5391793.298050374
632,30091480.587864332
686,0.9999999999999996
687,0.9999999999999996
688,1.9999999999999991
2,21, 1,21, 0,10,30.00,40.00,Monday
250,4.311011511316774
251,35412181.920185775
336,0.0
385,19.919589813118954
386,27.780690809452345
387,1.3281250699622502
388,0.0
425,0.0
450,0.0
451,0.0
452,4.970401122003508
453,0.0
490,0.0
515,0.0
516,0.0
542,0.0
592,5471132.199313744
632,29764725.96267582
686,1.0000000000000004
687,1.0000000000000004
688,2.000000000000001
2,21, 1,21, 0,10,40.00,50.00,Monday
250,4.776117958625334
251,35164466.15365027
336,0.0
385,19.91958981311896
386,27.780690809452356
387,1.6182526403407262
388,0.0
425,0.0
450,0.0
451,0.0
452,5.734509662188471
453,0.0
490,0.0
515,0.0
516,0.0
542,0.0
592,5553542.375759331
632,29434677.823834814
686,1.0000000000000009
687,1.0000000000000009
688,2.0000000000000018
2,21, 1,21, 0,10,50.00,60.00,Monday
250,5.241233648171599
251,34916597.83216039
336,0.0
385,19.91958981311896
386,27.780690809452356
387,1.9184665491827375
388,0.0
425,0.0
450,0.0
451,0.0
452,6.563553225484339
453,0.0
490,0.0
515,0.0
516,0.0
542,0.0
592,5639267.778995938
632,29101134.85060847
686,1.0000000000000009
687,1.0000000000000009
688,2.0000000000000018
2,21, 1,21, 0,11, 0.00,10.00,Monday
250,5.524697282061673
251,34765758.520511016
336,0.0
385,19.919589813118947
386,27.780690809452338
387,2.2049663433453195
388,0.0
425,0.0
450,0.0
451,0.0
452,7.418768969888667
453,0.0
490,0.0
515,0.0
516,0.0
542,0.0
592,5689519.861596227
632,28867675.009340655
686,1.0
687,1.0
688,2.0
2,21, 1,21, 0,11,10.00,20.00,Monday
250,5.807600223004997
251,34615164.262851804
336,0.0
385,19.919589813118947
386,27.780690809452334
387,2.4747308906035137
388,0.0
425,0.0
450,0.0
451,0.0
452,8.269283725522431
453,0.0
490,0.0
515,0.0
516,0.0
542,0.0
592,5740969.350869596
632,28665546.39915912
686,1.0
687,1.0
688,2.0
2,21, 1,21, 0,11,20.00,30.00,Monday
250,6.090550111002848
251,34464495.10269553
336,0.0
385,19.91958981311894
386,27.780690809452324
387,2.7468890764124625
388,0.0
425,0.0
450,0.0
451,0.0
452,9.115880960814435
453,0.0
490,0.0
515,0.0
516,0.0
542,0.0
592,5793671.095282218
632,28462200.586859234
686,0.9999999999999996
687,0.9999999999999996
688,1.9999999999999991
2,21, 1,21, 0,11,30.00,40.00,Monday
250,6.373300449284396
251,34313880.67851483
336,0.0
385,19.919589813118954
386,27.780690809452345
387,3.0242229381934207
388,0.0
425,0.0
450,0.0
451,0.0
452,9.937694622229046
453,0.0
490,0.0
515,0.0
516,0.0
542,0.0
592,5847681.427966583
632,28257557.41640133
686,1.0000000000000004
687,1.0000000000000004
688,2.000000000000001
2,21, 1,21, 0,11,40.00,50.00,Monday
250,6.655964951900637
251,34163258.55506414
336,0.0
385,19.91958981311896
386,27.780690809452356
387,3.3033310449285427
388,0.0
425,0.0
450,0.0
451,0.0
452,10.68324930822901
453,0.0
490,0.0
515,0.0
516,0.0
542,0.0
592,5903058.082199926
632,28051561.160491906
686,1.0000000000000009
687,1.0000000000000009
688,2.0000000000000018
2,21, 1,21, 0,11,50.00,60.00,Monday
250,6.938513315738913
251,34012643.5947593
336,0.0
385,19.91958981311896
386,27.780690809452356
387,3.580361067464798
388,0.0
425,0.0
450,0.0
451,0.0
452,11.3190791724282
453,0.0
490,0.0
515,0.0
516,0.0
542,0.0
592,5959860.237244541
632,27844141.60898131
686,1.0000000000000009
687,1.0000000000000009
688,2.0000000000000018
2,21, 1,21, 0,12, 0.00,10.00,Monday
250,7.205188162504548
251,33870525.23463761
336,0.0
385,19.919589813118947
386,27.780690809452334
387,3.820368738920991
388,0.0
425,0.0
450,0.0
451,0.0
452,11.818188958412662
453,0.0
490,0.0
515,0.0
516,0.0
542,0.0
592,5991096.197635707
632,27693099.43921657
686,1.0
687,1.0
688,2.0
2,21, 1,21, 0,12,10.00,20.00,Monday
250,7.470665689061551
251,33732530.71212034
336,0.0
385,19.919589813118947
386,27.780690809452334
387,4.112763636981449
388,0.0
425,0.0
450,0.0
451,0.0
452,12.382179837017269
453,0.0
490,0.0
515,0.0
516,0.0
542,0.0
592,7572016.881221028
632,25972364.513438243
686,1.0
687,1.0
688,2.0
2,21, 1,21, 0,12,20.00,30.00,Monday
250,7.7367379947833665
251,33592493.817774996
336,0.0
385,19.919589813118947
386,27.780690809452334
387,4.381888927082894
388,0.0
425,0.0
450,0.0
451,0.0
452,12.897105997451117
453,0.0
490,0.0
515,0.0
516,0.0
542,0.0
592,7609409.155487608
632,25795088.797558703
686,1.0
687,1.0
688,2.0
2,21, 1,21, 0,12,30.00,40.00,Monday
250,8.002739170100867
251,33452496.45884931
336,0.0
385,19.919589813118947
386,27.780690809452334
387,4.640711716254701
388,0.0
425,0.0
450,0.0
451,0.0
452,13.388969245412166
453,0.0
490,0.0
515,0.0
516,0.0
542,0.0
592,7646583.592010486
632,25617897.721633047
686,1.0
687,1.0
688,2.0
2,21, 1,21, 0,12,40.00,50.00,Monday
250,8.26871447586117
251,33312512.751190625
336,0.0
385,19.919589813118947
386,27.780690809452334
387,4.895145017997898
388,0.0
425,0.0
450,0.0
451,0.0
452,13.831071177751864
453,0.0
490,0.0
515,0.0
516,0.0
542,0.0
592,7683540.190789655
632,25440950.62083175
686,1.0
687,1.0
688,2.0
2,21, 1,21, 0,12,50.00,60.00,Monday
250,8.534682169784658
251,33172532.36623191
336,0.0
385,19.919589813118947
386,27.780690809452334
387,5.144097513009384
388,0.0
425,0.0
450,0.0
451,0.0
452,14.198843948935767
453,0.0
490,0.0
515,0.0
516,0.0
542,0.0
592,7720278.951825122
632,25264229.901168406
686,1.0
687,1.0
688,2.0
2,21, 1,21, 0,13, 0.00,10.00,Monday
250,8.717691072849295
251,33073840.642227657
336,0.0
385,19.919589813118947
386,27.780690809452334
387,5.376491904980533
388,0.0
425,0.0
450,0.0
451,0.0
452,14.490074604856964
453,0.0
490,0.0
515,0.0
516,0.0
542,0.0
592,7745410.487127082
632,25166558.83761336
686,1.0
687,1.0
688,2.0
2,21, 1,21, 0,13,10.00,20.00,Monday
250,8.900356093395615
251,32979328.50423622
336,0.0
385,19.919589813118947
386,27.780690809452334
387,5.595288854344237
388,0.0
425,0.0
450,0.0
451,0.0
452,14.719336241898528
453,0.0
490,0.0
515,0.0
516,0.0
542,0.0
592,7770439.060057996
632,25048593.83930814
686,1.0
687,1.0
688,2.0
2,21, 1,21, 0,13,20.00,30.00,Monday
250,9.083473826833485
251,32884669.712909922
336,0.0
385,19.919589813118947
386,27.780690809452334
387,5.800200925590304
388,0.0
425,0.0
450,0.0
451,0.0
452,14.902525773853318
453,0.0
490,0.0
515,0.0
516,0.0
542,0.0
592,7795364.670617863
632,24929266.364541702
686,1.0
687,1.0
688,2.0
2,21, 1,21, 0,13,30.00,40.00,Monday
250,9.266456186395908
251,32790114.041195553
336,0.0
385,19.919589813118947
386,27.780690809452334
387,5.995247927735519
388,0.0
425,0.0
450,0.0
451,0.0
452,15.051398645053439
453,0.0
490,0.0
515,0.0
516,0.0
542,0.0
592,7820187.318806681
632,24809827.69190298
686,1.0
687,1.0
688,2.0
2,21, 1,21, 0,13,40.00,50.00,Monday
250,9.449443610341659
251,32695589.13098026
336,0.0
385,19.919589813118947
386,27.780690809452334
387,6.184180314591672
388,0.0
425,0.0
450,0.0
451,0.0
452,15.170733941391386
453,0.0
490,0.0
515,0.0
516,0.0
542,0.0
592,7844907.00462445
632,24690598.73500481
686,1.0
687,1.0
688,2.0
2,21, 1,21, 0,13,50.00,60.00,Monday
250,9.632425183922644
251,32601100.547879435
336,0.0
385,19.919589813118947
386,27.780690809452334
387,6.368298039003612
388,0.0
425,0.0
450,0.0
451,0.0
452,15.264162879996505
453,0.0
490,0.0
515,0.0
516,0.0
542,0.0
592,7869523.728071173
632,24571503.35264903
686,1.0
687,1.0
688,2.0
2,21, 1,21, 0,14, 0.00,10.00,Monday
250,9.83235431237766
251,32497491.652473036
336,0.0
385,19.919589813118947
386,27.780690809452334
387,6.550440142252743
388,0.0
425,0.0
450,0.0
451,0.0
452,15.32028237932044
453,0.0
490,0.0
515,0.0
516,0.0
542,0.0
592,7896260.907308879
632,24450324.18302385
686,1.0
687,1.0
688,2.0
2,21, 1,21, 0,14,10.00,20.00,Monday
250,10.031949919096208
251,32393665.210455094
336,0.0
385,19.919589813118947
386,27.780690809452334
387,6.730738372830912
388,0.0
425,0.0
450,0.0
451,0.0
452,15.3207720451539
453,0.0
490,0.0
515,0.0
516,0.0
542,0.0
592,7922875.552815753
632,24319716.19634875
686,1.0
687,1.0
688,2.0
2,21, 1,21, 0,14,20.00,30.00,Monday
250,10.231442063384382
251,32289909.099189214
336,0.0
385,19.919589813118947
386,27.780690809452334
387,6.907034866250156
388,0.0
425,0.0
450,0.0
451,0.0
452,15.265164084055519
453,0.0
490,0.0
515,0.0
516,0.0
542,0.0
592,7949367.664591794
632,24189425.455651175
686,1.0
687,1.0
688,2.0
2,21, 1,21, 0,14,30.00,40.00,Monday
250,10.4308644260113
251,32186215.41245263
336,0.0
385,19.919589813118947
386,27.780690809452334
387,7.073377193072619
388,0.0
425,0.0
450,0.0
451,0.0
452,15.142933119029573
453,0.0
490,0.0
515,0.0
516,0.0
542,0.0
592,7975737.242637003
632,24059338.02988927
686,1.0
687,1.0
688,2.0
2,21, 1,21, 0,14,40.00,50.00,Monday
250,10.630224683091898
251,32082577.301287014
336,0.0
385,19.919589813118947
386,27.780690809452334
387,7.226071613462079
388,0.0
425,0.0
450,0.0
451,0.0
452,14.934357921042716
453,0.0
490,0.0
515,0.0
516,0.0
542,0.0
592,8001984.286951372
632,23929433.01685776
686,1.0
687,1.0
688,2.0
2,21, 1,21, 0,14,50.00,60.00,Monday
250,10.82954079649372
251,31978985.535788476
336,0.0
385,19.919589813118947
386,27.780690809452334
387,7.36540837937789
388,0.0
425,0.0
450,0.0
451,0.0
452,14.642476250753615
453,0.0
490,0.0
515,0.0
516,0.0
542,0.0
592,8028108.797534915
632,23799706.750301763
686,1.0
687,1.0
688,2.0
2,21, 1,21, 0,15, 0.00,10.00,Monday
250,11.095349157132777
251,31840206.1398409
336,0.0
385,19.919589813118947
386,27.780690809452334
387,7.486389507736731
388,0.0
425,0.0
450,0.0