Program Version,EnergyPlus, Version 24.1.0-9d7789a3ac, YMD=2024.06.19 21:16
1,5,Environment Title[],Latitude[deg],Longitude[deg],Time Zone[],Elevation[m]
2,8,Day of Simulation[],Month[],Day of Month[],DST Indicator[1=yes 0=no],Hour[],StartMinute[],EndMinute[],DayType
3,5,Cumulative Day of Simulation[],Month[],Day of Month[],DST Indicator[1=yes 0=no],DayType  ! When Daily Report Variables Requested
4,2,Cumulative Days of Simulation[],Month[]  ! When Monthly Report Variables Requested
5,1,Cumulative Days of Simulation[] ! When Run Period Report Variables Requested
6,1,Calendar Year of Simulation[] ! When Annual Report Variables Requested
250,1,LIVING ZONE,Zone Air Temperature [C] !TimeStep,REPORTSCH
251,1,LIVING ZONE,Zone Air System Sensible Heating Energy [J] !TimeStep,REPORTSCH
336,1,LIVING ZONE,Zone Air System Sensible Cooling Energy [J] !TimeStep,REPORTSCH
385,1,LIVING ZONE,Zone Thermostat Heating Setpoint Temperature [C] !TimeStep,REPORTSCH
386,1,LIVING ZONE,Zone Thermostat Cooling Setpoint Temperature [C] !TimeStep,REPORTSCH
387,1,GARAGE ZONE,Zone Air Temperature [C] !TimeStep,REPORTSCH
388,1,GARAGE ZONE,Zone Air System Sensible Heating Energy [J] !TimeStep,REPORTSCH
425,1,GARAGE ZONE,Zone Air System Sensible Cooling Energy [J] !TimeStep,REPORTSCH
450,1,GARAGE ZONE,Zone Thermostat Heating Setpoint Temperature [C] !TimeStep,REPORTSCH
451,1,GARAGE ZONE,Zone Thermostat Cooling Setpoint Temperature [C] !TimeStep,REPORTSCH
452,1,ATTIC ZONE,Zone Air Temperature [C] !TimeStep,REPORTSCH
453,1,ATTIC ZONE,Zone Air System Sensible Heating Energy [J] !TimeStep,REPORTSCH
490,1,ATTIC ZONE,Zone Air System Sensible Cooling Energy [J] !TimeStep,REPORTSCH
515,1,ATTIC ZONE,Zone Thermostat Heating Setpoint Temperature [C] !TimeStep,REPORTSCH
516,1,ATTIC ZONE,Zone Thermostat Cooling Setpoint Temperature [C] !TimeStep,REPORTSCH
542,1,ACDXCOIL 1,Cooling Coil Total Cooling Energy [J] !TimeStep,REPORTSCH
592,1,HEAT PUMP DX HEATING COIL 1,Heating Coil Heating Energy [J] !TimeStep,REPORTSCH
632,1,SUPP HEATING COIL 1,Heating Coil Heating Energy [J] !TimeStep,REPORTSCH
686,1,TWOSPEED HEAT PUMP 1,Unitary System DX Coil Cycling Ratio [] !TimeStep,REPORTSCH
687,1,TWOSPEED HEAT PUMP 1,Unitary System DX Coil Speed Ratio [] !TimeStep,REPORTSCH
688,1,TWOSPEED HEAT PUMP 1,Unitary System DX Coil Speed Level [] !TimeStep
End of Data Dictionary
1,CHICAGO_IL_USA ANNUAL HEATING 99% DESIGN CONDITIONS DB,  41.98, -87.92,  -6.00, 201.00
2,1, 1,21, 0, 1, 0.00,10.00,WinterDesignDay
250,19.57767864954763
251,14685473.10803376
336,0.0
385,19.83558839277754
386,27.852076378573976
387,-17.611420712440964
388,0.0
425,0.0
450,0.0
451,0.0
452,-18.294324003689262
453,0.0
490,0.0
515,0.0
516,0.0
542,0.0
592,0.0
632,14350202.045380685
686,1.0
687,1.0
688,2.0
2,1, 1,21, 0, 1,10.00,20.00,WinterDesignDay
250,19.874124684284382
251,13429417.186964784
336,0.0
385,19.83558839277754
386,27.852076378573976
387,-17.61143201739217
388,0.0
425,0.0
450,0.0
451,0.0
452,-18.294444001672886
453,0.0
490,0.0
515,0.0
516,0.0
542,0.0
592,0.0
632,13021496.492521424
686,1.0
687,1.0
688,2.0
2,1, 1,21, 0, 1,20.00,30.00,WinterDesignDay
250,20.112674297663073
251,14473944.83901312
336,0.0
385,20.50225505944421
386,27.852076378573976
387,-17.611335137463495
388,0.0
425,0.0
450,0.0
451,0.0
452,-18.29440284719745
453,0.0
490,0.0
515,0.0
516,0.0
542,0.0
592,0.0
632,14948982.139144003
686,1.0
687,1.0
688,2.0
2,1, 1,21, 0, 1,30.00,40.00,WinterDesignDay
250,20.46735119924776
251,15518247.897152893
336,0.0
385,20.50225505944421
386,27.852076378573976
387,-17.611325579870076
388,0.0
425,0.0
450,0.0
451,0.0
452,-18.294257943517643
453,0.0
490,0.0
515,0.0
516,0.0
542,0.0
592,0.0
632,15361280.797448406
686,1.0
687,1.0
688,2.0
2,1, 1,21, 0, 1,40.00,50.00,WinterDesignDay
250,19.577678647643978
251,14685473.14075024
336,0.0
385,19.835588392777513
386,27.852076378573933
387,-17.611425588446657
388,0.0
425,0.0
450,0.0
451,0.0
452,-18.29432446744239
453,0.0
490,0.0
515,0.0
516,0.0
542,0.0
592,0.0
632,14350202.077602644
686,0.9999999999999986
687,0.9999999999999986
688,1.9999999999999971
2,1, 1,21, 0, 1,50.00,60.00,WinterDesignDay
250,19.874124684186565
251,13429417.22703037
336,0.0
385,19.83558839277756
386,27.852076378573997
387,-17.611436832597647
388,0.0
425,0.0
450,0.0
451,0.0
452,-18.294444459463065
453,0.0
490,0.0
515,0.0
516,0.0
542,0.0
592,0.0
632,13021496.53291337
686,1.0000000000000009
687,1.0000000000000009
688,2.0000000000000018
2,1, 1,21, 0, 2, 0.00,10.00,WinterDesignDay
250,20.11267429792358
251,14473944.878807418
336,0.0
385,20.50225505944421
386,27.852076378573976
387,-17.611339879621205
388,0.0
425,0.0
450,0.0
451,0.0
452,-18.294403297985628
453,0.0
490,0.0
515,0.0
516,0.0
542,0.0
592,0.0
632,14948982.179119527
686,1.0
687,1.0
688,2.0
2,1, 1,21, 0, 2,10.00,20.00,WinterDesignDay
250,20.46735119928743
251,15518247.937447045
336,0.0
385,20.50225505944421
386,27.852076378573976
387,-17.611330258301333
388,0.0
425,0.0
450,0.0
451,0.0
452,-18.294258388418967
453,0.0
490,0.0
515,0.0
516,0.0
542,0.0
592,0.0
632,15361280.837676482
686,1.0
687,1.0
688,2.0
2,1, 1,21, 0, 2,20.00,30.00,WinterDesignDay
250,19.577678645838667
251,14685473.17177787
336,0.0
385,19.83558839277756
386,27.852076378573994
387,-17.611430212760396
388,0.0
425,0.0
450,0.0
451,0.0
452,-18.294324907268756
453,0.0
490,0.0
515,0.0
516,0.0
542,0.0
592,0.0
632,14350202.108161278
686,1.0000000000000007
687,1.0000000000000007
688,2.0000000000000013
2,1, 1,21, 0, 2,30.00,40.00,WinterDesignDay
250,19.87412468409378
251,13429417.265027726
336,0.0
385,19.83558839277756
386,27.852076378573997
387,-17.61144139924958
388,0.0
425,0.0
450,0.0
451,0.0
452,-18.29444489363394
453,0.0
490,0.0
515,0.0
516,0.0
542,0.0
592,0.0
632,13021496.571220245
686,1.0000000000000009
687,1.0000000000000009
688,2.0000000000000018
2,1, 1,21, 0, 2,40.00,50.00,WinterDesignDay
250,20.11267429817064
251,14473944.916547563
336,0.0
385,20.50225505944421
386,27.852076378573976
387,-17.61134437699588
388,0.0
425,0.0
450,0.0
451,0.0
452,-18.294403725515664
453,0.0
490,0.0
515,0.0
516,0.0
542,0.0
592,0.0
632,14948982.21703154
686,1.0
687,1.0
688,2.0
2,1, 1,21, 0, 2,50.00,60.00,WinterDesignDay
250,20.467351199325055
251,15518247.975661203
336,0.0
385,20.50225505944421
386,27.852076378573976
387,-17.61133469523896
388,0.0
425,0.0
450,0.0
451,0.0
452,-18.294258810365662
453,0.0
490,0.0
515,0.0
516,0.0
542,0.0
592,0.0
632,15361280.875827968
686,1.0
687,1.0
688,2.0
2,1, 1,21, 0, 3, 0.00,10.00,WinterDesignDay
250,19.57767864412648
251,14685473.201203868
336,0.0
385,19.83558839277754
386,27.852076378573976
387,-17.61143459837382
388,0.0
425,0.0
450,0.0
451,0.0
452,-18.294325324402088
453,0.0
490,0.0
515,0.0
516,0.0
542,0.0
592,0.0
632,14350202.137142494
686,1.0
687,1.0
688,2.0
2,1, 1,21, 0, 3,10.00,20.00,WinterDesignDay
250,19.874124684005768
251,13429417.30106363
336,0.0
385,19.83558839277754
386,27.852076378573976
387,-17.61144573017741
388,0.0
425,0.0
450,0.0
451,0.0
452,-18.294445305403492
453,0.0
490,0.0
515,0.0
516,0.0
542,0.0
592,0.0
632,13021496.607549686
686,1.0
687,1.0
688,2.0
2,1, 1,21, 0, 3,20.00,30.00,WinterDesignDay
250,20.112674298404944
251,14473944.952339452
336,0.0
385,20.50225505944421
386,27.852076378573976
387,-17.611348642222417
388,0.0
425,0.0
450,0.0
451,0.0
452,-18.29440413098691
453,0.0
490,0.0
515,0.0
516,0.0
542,0.0
592,0.0
632,14948982.252986424
686,1.0
687,1.0
688,2.0
2,1, 1,21, 0, 3,30.00,40.00,WinterDesignDay
250,20.467351199360742
251,15518248.01190263
336,0.0
385,20.50225505944421
386,27.852076378573976
387,-17.611338903148003
388,0.0
425,0.0
450,0.0
451,0.0
452,-18.294259210541462
453,0.0
490,0.0
515,0.0
516,0.0
542,0.0
592,0.0
632,15361280.912009962
686,1.0
687,1.0
688,2.0
2,1, 1,21, 0, 3,40.00,50.00,WinterDesignDay
250,19.577678642502665
251,14685473.229110884
336,0.0
385,19.835588392777513
386,27.852076378573933
387,-17.61143875760792
388,0.0
425,0.0
450,0.0
451,0.0
452,-18.294325720012697
453,0.0
490,0.0
515,0.0
516,0.0
542,0.0
592,0.0
632,14350202.164627682
686,0.9999999999999986
687,0.9999999999999986
688,1.9999999999999971
2,1, 1,21, 0, 3,50.00,60.00,WinterDesignDay
250,19.874124683922336
251,13429417.335239397
336,0.0
385,19.83558839277756
386,27.852076378573997
387,-17.611449837548648
388,0.0
425,0.0
450,0.0
451,0.0
452,-18.294445695927013
453,0.0
490,0.0
515,0.0
516,0.0
542,0.0
592,0.0
632,13021496.642003842
686,1.0000000000000009
687,1.0000000000000009
688,2.0000000000000018
2,1, 1,21, 0, 4, 0.00,10.00,WinterDesignDay
250,20.112674298627155
251,14473944.986283747
336,0.0
385,20.50225505944421
386,27.852076378573976
387,-17.611352687283205
388,0.0
425,0.0
450,0.0
451,0.0
452,-18.294404515536982
453,0.0
490,0.0
515,0.0
516,0.0
542,0.0
592,0.0
632,14948982.287085302
686,1.0
687,1.0
688,2.0
2,1, 1,21, 0, 4,10.00,20.00,WinterDesignDay
250,20.467351199394578
251,15518248.04627325
336,0.0
385,20.50225505944421
386,27.852076378573976
387,-17.61134289384937
388,0.0
425,0.0
450,0.0
451,0.0
452,-18.294259590069167
453,0.0
490,0.0
515,0.0
516,0.0
542,0.0
592,0.0
632,15361280.946324214
686,1.0
687,1.0
688,2.0
2,1, 1,21, 0, 4,20.00,30.00,WinterDesignDay
250,19.577678640962752
251,14685473.25557722
336,0.0
385,19.83558839277756
386,27.852076378573994
387,-17.61144270214665
388,0.0
425,0.0
450,0.0
451,0.0
452,-18.294326095210657
453,0.0
490,0.0
515,0.0
516,0.0
542,0.0
592,0.0
632,14350202.19069397
686,1.0000000000000007
687,1.0000000000000007
688,2.0000000000000013
2,1, 1,21, 0, 4,30.00,40.00,WinterDesignDay
250,19.87412468384319
251,13429417.367650809
336,0.0
385,19.83558839277756
386,27.852076378573997
387,-17.611453732901552
388,0.0
425,0.0
450,0.0
451,0.0
452,-18.294446066300203
453,0.0
490,0.0
515,0.0
516,0.0
542,0.0
592,0.0
632,13021496.674679268
686,1.0000000000000009
687,1.0000000000000009
688,2.0000000000000018
2,1, 1,21, 0, 4,40.00,50.00,WinterDesignDay
250,20.11267429883789
251,14473945.018475816
336,0.0
385,20.50225505944421
386,27.852076378573976
387,-17.611356523542216
388,0.0
425,0.0
450,0.0
451,0.0
452,-18.294404880244855
453,0.0
490,0.0
515,0.0
516,0.0
542,0.0
592,0.0
632,14948982.319423968
686,1.0
687,1.0
688,2.0
2,1, 1,21, 0, 4,50.00,60.00,WinterDesignDay
250,20.467351199426673
251,15518248.078869704
336,0.0
385,20.50225505944421
386,27.852076378573976
387,-17.611346678554945
388,0.0
425,0.0
450,0.0
451,0.0
452,-18.29425995001367
453,0.0
490,0.0
515,0.0
516,0.0
542,0.0
592,0.0
632,15361280.978867212
686,1.0
687,1.0
688,2.0
2,1, 1,21, 0, 5, 0.00,10.00,WinterDesignDay
250,19.57767863950227
251,14685473.280677423
336,0.0
385,19.83558839277754
386,27.852076378573976
387,-17.611446443072005
388,0.0
425,0.0
450,0.0
451,0.0
452,-18.29432645104862
453,0.0
490,0.0
515,0.0
516,0.0
542,0.0
592,0.0
632,14350202.215414774
686,1.0
687,1.0
688,2.0
2,1, 1,21, 0, 5,10.00,20.00,WinterDesignDay
250,19.874124683768116
251,13429417.398389213
336,0.0
385,19.83558839277754
386,27.852076378573976
387,-17.611457427179634
388,0.0
425,0.0
450,0.0
451,0.0
452,-18.29444641756229
453,0.0
490,0.0
515,0.0
516,0.0
542,0.0
592,0.0
632,13021496.705668058
686,1.0
687,1.0
688,2.0
2,1, 1,21, 0, 5,20.00,30.00,WinterDesignDay
250,20.112674299037753
251,14473945.04900605
336,0.0
385,20.50225505944421
386,27.852076378573976
387,-17.61136016177672
388,0.0
425,0.0
450,0.0
451,0.0
452,-18.294405226133893
453,0.0
490,0.0
515,0.0
516,0.0
542,0.0
592,0.0
632,14948982.350093244
686,1.0
687,1.0
688,2.0
2,1, 1,21, 0, 5,30.00,40.00,WinterDesignDay
250,20.46735119945711
251,15518248.109783377
336,0.0
385,20.50225505944421
386,27.852076378573976
387,-17.611350267897222
388,0.0
425,0.0
450,0.0
451,0.0
452,-18.29426029138498
453,0.0
490,0.0
515,0.0
516,0.0
542,0.0
592,0.0
632,15361281.009730186
686,1.0
687,1.0
688,2.0
2,1, 1,21, 0, 5,40.00,50.00,WinterDesignDay
250,19.577678638117163
251,14685473.304481868
336,0.0
385,19.835588392777513
386,27.852076378573933
387,-17.61144999089399
388,0.0
425,0.0
450,0.0
451,0.0
452,-18.29432678852516
453,0.0
490,0.0
515,0.0
516,0.0
542,0.0
592,0.0
632,14350202.238859411
686,0.9999999999999986
687,0.9999999999999986
688,1.9999999999999971
2,1, 1,21, 0, 5,50.00,60.00,WinterDesignDay
250,19.874124683696948
251,13429417.427540848
336,0.0
385,19.83558839277756
386,27.852076378573997
387,-17.611460930762018
388,0.0
425,0.0
450,0.0
451,0.0
452,-18.294446750699052
453,0.0
490,0.0
515,0.0
516,0.0
542,0.0
592,0.0
632,13021496.735057157
686,1.0000000000000009
687,1.0000000000000009
688,2.0000000000000018
2,1, 1,21, 0, 6, 0.00,10.00,WinterDesignDay
250,20.112674299227297
251,14473945.077960346
336,0.0
385,20.50225505944421
386,27.852076378573976
387,-17.61136361220801
388,0.0
425,0.0
450,0.0
451,0.0
452,-18.29440555417476
453,0.0
490,0.0
515,0.0
516,0.0
542,0.0
592,0.0
632,14948982.3791794
686,1.0
687,1.0
688,2.0
2,1, 1,21, 0, 6,10.00,20.00,WinterDesignDay
250,20.467351199485975
251,15518248.139101379
336,0.0
385,20.50225505944421
386,27.852076378573976
387,-17.611353671959712
388,0.0
425,0.0
450,0.0
451,0.0
452,-18.294260615141127
453,0.0
490,0.0
515,0.0
516,0.0
542,0.0
592,0.0
632,15361281.039000109
686,1.0
687,1.0
688,2.0
2,1, 1,21, 0, 6,20.00,30.00,WinterDesignDay
250,19.577678636803626
251,14685473.327057593
336,0.0
385,19.83558839277756
386,27.852076378573994
387,-17.611453355579656
388,0.0
425,0.0
450,0.0
451,0.0
452,-18.294327108587456
453,0.0
490,0.0
515,0.0
516,0.0
542,0.0
592,0.0
632,14350202.26109389
686,1.0000000000000007
687,1.0000000000000007
688,2.0000000000000013
2,1, 1,21, 0, 6,30.00,40.00,WinterDesignDay
250,19.87412468362944
251,13429417.455187704
336,0.0
385,19.83558839277756
386,27.852076378573997
387,-17.61146425349182
388,0.0
425,0.0
450,0.0
451,0.0
452,-18.294447066645358
453,0.0
490,0.0
515,0.0
516,0.0
542,0.0
592,0.0
632,13021496.762929214
686,1.0000000000000009
687,1.0000000000000009
688,2.0000000000000018
2,1, 1,21, 0, 6,40.00,50.00,WinterDesignDay
250,20.11267429940706
251,14473945.105420012
336,0.0
385,20.50225505944421
386,27.852076378573976
387,-17.611366884530177
388,0.0
425,0.0
450,0.0
451,0.0
452,-18.294405865288066
453,0.0
490,0.0
515,0.0
516,0.0
542,0.0
592,0.0
632,14948982.406764114
686,1.0
687,1.0
688,2.0
2,1, 1,21, 0, 6,50.00,60.00,WinterDesignDay
250,20.467351199513352
251,15518248.166905843
336,0.0
385,20.50225505944421
386,27.852076378573976
387,-17.61135690030676
388,0.0
425,0.0
450,0.0
451,0.0
452,-18.294260922190706
453,0.0
490,0.0
515,0.0
516,0.0
542,0.0
592,0.0
632,15361281.066758972
686,1.0
687,1.0
688,2.0
2,1, 1,21, 0, 7, 0.00,10.00,WinterDesignDay
250,19.57767863555785
251,14685473.3484678
336,0.0
385,19.83558839277754
386,27.852076378573976
387,-17.61145654658229
388,0.0
425,0.0
450,0.0
451,0.0
452,-18.294327412133637
453,0.0
490,0.0
515,0.0
516,0.0
542,0.0
592,0.0
632,14350202.282180477
686,1.0
687,1.0
688,2.0
2,1, 1,21, 0, 7,10.00,20.00,WinterDesignDay
250,19.874124683565398
251,13429417.481407365
336,0.0
385,19.83558839277754
386,27.852076378573976
387,-17.61146740470439
388,0.0
425,0.0
450,0.0
451,0.0
452,-18.294447366287926
453,0.0
490,0.0
515,0.0
516,0.0
542,0.0
592,0.0
632,13021496.789362453
686,1.0
687,1.0
688,2.0
2,1, 1,21, 0, 7,20.00,30.00,WinterDesignDay
250,20.112674299577545
251,14473945.131462168
336,0.0
385,20.50225505944421
386,27.852076378573976
387,-17.611369987937344
388,0.0
425,0.0
450,0.0
451,0.0
452,-18.294406160347002
453,0.0
490,0.0
515,0.0
516,0.0
542,0.0
592,0.0
632,14948982.432924872
686,1.0
687,1.0
688,2.0
2,1, 1,21, 0, 7,30.00,40.00,WinterDesignDay
250,20.467351199539312
251,15518248.193275155
336,0.0
385,20.50225505944421
386,27.852076378573976
387,-17.6113599620083
388,0.0
425,0.0
450,0.0
451,0.0
452,-18.294261213395515
453,0.0
490,0.0
515,0.0
516,0.0
542,0.0
592,0.0
632,15361281.093085041
686,1.0
687,1.0
688,2.0
2,1, 1,21, 0, 7,40.00,50.00,WinterDesignDay
250,19.577678634376355
251,14685473.368772987
336,0.0
385,19.835588392777513
386,27.852076378573933
387,-17.61145957286658
388,0.0
425,0.0
450,0.0
451,0.0
452,-18.294327700015725
453,0.0
490,0.0
515,0.0
516,0.0
542,0.0
592,0.0
632,14350202.30217874
686,0.9999999999999986
687,0.9999999999999986
688,1.9999999999999971
2,1, 1,21, 0, 7,50.00,60.00,WinterDesignDay
250,19.874124683504697
251,13429417.5062736
336,0.0
385,19.83558839277756
386,27.852076378573997
387,-17.61147039325228
388,0.0
425,0.0
450,0.0
451,0.0
452,-18.294447650467827
453,0.0
490,0.0
515,0.0
516,0.0
542,0.0
592,0.0
632,13021496.81443124
686,1.0000000000000009
687,1.0000000000000009
688,2.0000000000000018
2,1, 1,21, 0, 8, 0.00,10.00,WinterDesignDay
250,20.112674299739222
251,14473945.156160003
336,0.0
385,20.50225505944421
386,27.852076378573976
387,-17.61137293114723
388,0.0
425,0.0
450,0.0
451,0.0
452,-18.294406440179714
453,0.0
490,0.0
515,0.0
516,0.0
542,0.0
592,0.0
632,14948982.457735179
686,1.0
687,1.0
688,2.0
2,1, 1,21, 0, 8,10.00,20.00,WinterDesignDay
250,20.467351199563932
251,15518248.218283216
336,0.0
385,20.50225505944421
386,27.852076378573976
387,-17.611362865665566
388,0.0
425,0.0
450,0.0
451,0.0
452,-18.294261489572904
453,0.0
490,0.0
515,0.0
516,0.0
542,0.0
592,0.0
632,15361281.118052091
686,1.0
687,1.0
688,2.0
2,1, 1,21, 0, 8,20.00,30.00,WinterDesignDay
250,19.57767863325592
251,14685473.388029888
336,0.0
385,19.83558839277756
386,27.852076378573994
387,-17.611462442935313
388,0.0
425,0.0
450,0.0
451,0.0
452,-18.29432797304184
453,0.0
490,0.0
515,0.0
516,0.0
542,0.0
592,0.0
632,14350202.32114457
686,1.0000000000000007
687,1.0000000000000007
688,2.0000000000000013
2,1, 1,21, 0, 8,30.00,40.00,WinterDesignDay
250,19.874124683447107
251,13429417.529856183
336,0.0
385,19.83558839277756
386,27.852076378573997
387,-17.61147322753238
388,0.0
425,0.0
450,0.0
451,0.0
452,-18.294447919982684
453,0.0
490,0.0
515,0.0
516,0.0
542,0.0
592,0.0
632,13021496.838205919
686,1.0000000000000009
687,1.0000000000000009
688,2.0000000000000018
2,1, 1,21, 0, 8,40.00,50.00,WinterDesignDay
250,20.112674299892557
251,14473945.17958294
336,0.0
385,20.50225505944421
386,27.852076378573976
387,-17.611375722429337
388,0.0
425,0.0
450,0.0
451,0.0
452,-18.294406705571685
453,0.0
490,0.0
515,0.0
516,0.0
542,0.0
592,0.0
632,14948982.481264785
686,1.0
687,1.0
688,2.0
2,1, 1,21, 0, 8,50.00,60.00,WinterDesignDay
250,20.467351199587284
251,15518248.242000356
336,0.0
385,20.50225505944421
386,27.852076378573976
387,-17.611365619436395
388,0.0
425,0.0
450,0.0
451,0.0
452,-18.294261751498105
453,0.0
490,0.0
515,0.0
516,0.0
542,0.0
592,0.0
632,15361281.141730336
686,1.0
687,1.0
688,2.0
2,1, 1,21, 0, 9, 0.00,10.00,WinterDesignDay
250,19.577678632193276
251,14685473.406292712
336,0.0
385,19.83558839277754
386,27.852076378573976
387,-17.611465164851353
388,0.0
425,0.0
450,0.0
451,0.0
452,-18.294328231978263
453,0.0
490,0.0
515,0.0
516,0.0
542,0.0
592,0.0
632,14350202.339131344
686,1.0
687,1.0
688,2.0
2,1, 1,21, 0, 9,10.00,20.00,WinterDesignDay
250,19.87412468339248
251,13429417.552221399
336,0.0
385,19.83558839277754
386,27.852076378573976
387,-17.611475915507523
388,0.0
425,0.0
450,0.0
451,0.0
452,-18.294448175589032
453,0.0
490,0.0
515,0.0
516,0.0
542,0.0
592,0.0
632,13021496.860753316
686,1.0
687,1.0
688,2.0
2,1, 1,21, 0, 9,20.00,30.00,WinterDesignDay
250,20.112674300037973
251,14473945.201796772
336,0.0
385,20.50225505944421
386,27.852076378573976
387,-17.61137836962652
388,0.0
425,0.0
450,0.0
451,0.0
452,-18.294406957267892
453,0.0
490,0.0
515,0.0
516,0.0
542,0.0
592,0.0
632,14948982.503579777
686,1.0
687,1.0
688,2.0
2,1, 1,21, 0, 9,30.00,40.00,WinterDesignDay
250,20.46735119960943
251,15518248.264493141
336,0.0
385,20.50225505944421
386,27.852076378573976
387,-17.61136823105872
388,0.0
425,0.0
450,0.0
451,0.0
452,-18.294261999906382
453,0.0
490,0.0
515,0.0
516,0.0
542,0.0
592,0.0
632,15361281.164186232
686,1.0
687,1.0
688,2.0
2,1, 1,21, 0, 9,40.00,50.00,WinterDesignDay
250,19.577678631185464
251,14685473.423612885
336,0.0
385,19.835588392777513
386,27.852076378573933
387,-17.61146774626264
388,0.0
425,0.0
450,0.0
451,0.0
452,-18.294328477551925
453,0.0
490,0.0
515,0.0
516,0.0
542,0.0
592,0.0
632,14350202.35618972
686,0.9999999999999986
687,0.9999999999999986
688,1.9999999999999971
2,1, 1,21, 0, 9,50.00,60.00,WinterDesignDay
250,19.8741246833407
251,13429417.573432123
336,0.0
385,19.83558839277756
386,27.852076378573997
387,-17.611478464729018
388,0.0
425,0.0
450,0.0
451,0.0
452,-18.294448418004475
453,0.0
490,0.0
515,0.0
516,0.0
542,0.0
592,0.0
632,13021496.882136818
686,1.0000000000000009
687,1.0000000000000009
688,2.0000000000000018
2,1, 1,21, 0,10, 0.00,10.00,WinterDesignDay
250,20.112674300175886
251,14473945.222863918
336,0.0
385,20.50225505944421
386,27.852076378573976
387,-17.6113808801742
388,0.0
425,0.0
450,0.0
451,0.0
452,-18.294407195974905
453,0.0
490,0.0
515,0.0
516,0.0
542,0.0
592,0.0
632,14948982.524742864
686,1.0
687,1.0
688,2.0
2,1, 1,21, 0,10,10.00,20.00,WinterDesignDay
250,20.467351199630432
251,15518248.285824902
336,0.0
385,20.50225505944421
386,27.852076378573976
387,-17.611370707867888
388,0.0
425,0.0
450,0.0
451,0.0
452,-18.294262235495072
453,0.0
490,0.0
515,0.0
516,0.0
542,0.0
592,0.0
632,15361281.185483012
686,1.0
687,1.0
688,2.0
2,1, 1,21, 0,10,20.00,30.00,WinterDesignDay
250,19.577678630229745
251,14685473.4400389
336,0.0
385,19.83558839277756
386,27.852076378573994
387,-17.611470194420733
388,0.0
425,0.0
450,0.0
451,0.0
452,-18.29432871045228
453,0.0
490,0.0
515,0.0
516,0.0
542,0.0
592,0.0
632,14350202.372367445
686,1.0000000000000007
687,1.0000000000000007
688,2.0000000000000013
2,1, 1,21, 0,10,30.00,40.00,WinterDesignDay
250,19.874124683291583
251,13429417.593547858
336,0.0
385,19.83558839277756
386,27.852076378573997
387,-17.6114808823597
388,0.0
425,0.0
450,0.0
451,0.0
452,-18.294448647909476
453,0.0
490,0.0
515,0.0
516,0.0
542,0.0
592,0.0
632,13021496.90241641
686,1.0000000000000009
687,1.0000000000000009
688,2.0000000000000018
2,1, 1,21, 0,10,40.00,50.00,WinterDesignDay
250,20.112674300306683
251,14473945.242843442
336,0.0
385,20.50225505944421
386,27.852076378573976
387,-17.611383261127795
388,0.0
425,0.0
450,0.0
451,0.0
452,-18.294407422362845
453,0.0
490,0.0
515,0.0
516,0.0
542,0.0
592,0.0
632,14948982.544813378
686,1.0
687,1.0
688,2.0
2,1, 1,21, 0,10,50.00,60.00,WinterDesignDay
250,20.46735119965035
251,15518248.306055354
336,0.0
385,20.50225505944421
386,27.852076378573976
387,-17.61137305682429
388,0.0
425,0.0
450,0.0
451,0.0
452,-18.294262458925566
453,0.0
490,0.0
515,0.0
516,0.0
542,0.0
592,0.0
632,15361281.20568028
686,1.0
687,1.0
688,2.0
2,1, 1,21, 0,11, 0.00,10.00,WinterDesignDay
250,19.577678629323312
251,14685473.455616986
336,0.0
385,19.83558839277754
386,27.852076378573976
387,-17.6114725162047
388,0.0
425,0.0
450,0.0
451,0.0
452,-18.294328931333073
453,0.0
490,0.0
515,0.0
516,0.0
542,0.0
592,0.0
632,14350202.387710065
686,1.0
687,1.0
688,2.0
2,1, 1,21, 0,11,10.00,20.00,WinterDesignDay
250,19.874124683244982
251,13429417.612625288
336,0.0
385,19.83558839277754
386,27.852076378573976
387,-17.61148317519188
388,0.0
425,0.0
450,0.0
451,0.0
452,-18.294448865949516
453,0.0
490,0.0
515,0.0
516,0.0
542,0.0
592,0.0
632,13021496.92164924
686,1.0
687,1.0
688,2.0
2,1, 1,21, 0,11,20.00,30.00,WinterDesignDay
250,20.112674300430726
251,14473945.261791721
336,0.0
385,20.50225505944421
386,27.852076378573976
387,-17.611385519176444
388,0.0
425,0.0
450,0.0
451,0.0
452,-18.29440763706731
453,0.0
490,0.0
515,0.0
516,0.0
542,0.0
592,0.0
632,14948982.563847944
686,1.0
687,1.0
688,2.0
2,1, 1,21, 0,11,30.00,40.00,WinterDesignDay
250,20.46735119966924
251,15518248.325241674
336,0.0
385,20.50225505944421
386,27.852076378573976
387,-17.61137528452785
388,0.0
425,0.0
450,0.0
451,0.0
452,-18.29426267082517
453,0.0
490,0.0
515,0.0
516,0.0
542,0.0
592,0.0
632,15361281.224835139
686,1.0
687,1.0
688,2.0
2,1, 1,21, 0,11,40.00,50.00,WinterDesignDay
250,19.577678628463655
251,14685473.470390975
336,0.0
385,19.835588392777513
386,27.852076378573933
387,-17.611474718138375
388,0.0
425,0.0
450,0.0
451,0.0
452,-18.294329140814504
453,0.0
490,0.0
515,0.0
516,0.0
542,0.0
592,0.0
632,14350202.402260737
686,0.9999999999999986
687,0.9999999999999986
688,1.9999999999999971
2,1, 1,21, 0,11,50.00,60.00,WinterDesignDay
250,19.87412468320082
251,13429417.630717907
336,0.0
385,19.83558839277756
386,27.852076378573997
387,-17.611485349667955
388,0.0
425,0.0
450,0.0
451,0.0
452,-18.29444907273681
453,0.0
490,0.0
515,0.0
516,0.0
542,0.0
592,0.0
632,13021496.939889241
686,1.0000000000000009
687,1.0000000000000009
688,2.0000000000000018
2,1, 1,21, 0,12, 0.00,10.00,WinterDesignDay
250,20.112674300548363
251,14473945.279761812
336,0.0
385,20.50225505944421
386,27.852076378573976
387,-17.611387660663873
388,0.0
425,0.0
450,0.0
451,0.0
452,-18.29440784069113
453,0.0
490,0.0
515,0.0
516,0.0
542,0.0
592,0.0
632,14948982.581899872
686,1.0
687,1.0
688,2.0
2,1, 1,21, 0,12,10.00,20.00,WinterDesignDay
250,20.467351199687158
251,15518248.343437454
336,0.0
385,20.50225505944421
386,27.852076378573976
387,-17.611377397235955
388,0.0
425,0.0
450,0.0
451,0.0
452,-18.29426287178883
453,0.0
490,0.0
515,0.0
516,0.0
542,0.0
592,0.0
632,15361281.243001077
686,1.0
687,1.0
688,2.0
2,1, 1,21, 0,12,20.00,30.00,WinterDesignDay
250,19.577678627648442
251,14685473.48440225
336,0.0
385,19.83558839277756
386,27.852076378573994
387,-17.611476806407055
388,0.0
425,0.0
450,0.0
451,0.0
452,-18.294329339484808
453,0.0
490,0.0
515,0.0
516,0.0
542,0.0
592,0.0
632,14350202.416060228
686,1.0000000000000007
687,1.0000000000000007
688,2.0000000000000013
2,1, 1,21, 0,12,30.00,40.00,WinterDesignDay
250,19.87412468315892
251,13429417.647876497
336,0.0
385,19.83558839277756
386,27.852076378573997
387,-17.611487411896718
388,0.0
425,0.0
450,0.0
451,0.0
452,-18.294449268851917
453,0.0
490,0.0
515,0.0
516,0.0
542,0.0
592,0.0
632,13021496.957187595
686,1.0000000000000009
687,1.0000000000000009
688,2.0000000000000018
2,1, 1,21, 0,12,40.00,50.00,WinterDesignDay
250,20.11267430065993
251,14473945.296804281
336,0.0
385,20.50225505944421
386,27.852076378573976
387,-17.61138969160709
388,0.0
425,0.0
450,0.0
451,0.0
452,-18.29440803380601
453,0.0
490,0.0
515,0.0
516,0.0
542,0.0
592,0.0
632,14948982.59901995
686,1.0
687,1.0
688,2.0
2,1, 1,21, 0,12,50.00,60.00,WinterDesignDay
250,20.467351199704147
251,15518248.360694
336,0.0
385,20.50225505944421
386,27.852076378573976
387,-17.611379400885554
388,0.0
425,0.0
450,0.0
451,0.0
452,-18.294263062380807
453,0.0
490,0.0
515,0.0
516,0.0
542,0.0
592,0.0
632,15361281.260229323
686,1.0
687,1.0
688,2.0
2,1, 1,21, 0,13, 0.00,10.00,WinterDesignDay
250,19.577678626875255
251,14685473.497690303
336,0.0
385,19.83558839277754
386,27.852076378573976
387,-17.611478786878507
388,0.0
425,0.0
450,0.0
451,0.0
452,-18.29432952790169
453,0.0
490,0.0
515,0.0
516,0.0
542,0.0
592,0.0
632,14350202.429147426
686,1.0
687,1.0
688,2.0
2,1, 1,21, 0,13,10.00,20.00,WinterDesignDay
250,19.874124683119167
251,13429417.664149478
336,0.0
385,19.83558839277754
386,27.852076378573976
387,-17.61148936767192
388,0.0
425,0.0
450,0.0
451,0.0
452,-18.294449454845488
453,0.0
490,0.0
515,0.0
516,0.0
542,0.0
592,0.0
632,13021496.973593129
686,1.0
687,1.0
688,2.0
2,1, 1,21, 0,13,20.00,30.00,WinterDesignDay
250,20.11267430076574
251,14473945.312967066
336,0.0
385,20.50225505944421
386,27.852076378573976
387,-17.611391617711632
388,0.0
425,0.0
450,0.0
451,0.0
452,-18.29440821695418
453,0.0
490,0.0
515,0.0
516,0.0
542,0.0
592,0.0
632,14948982.615256347
686,1.0
687,1.0
688,2.0
2,1, 1,21, 0,13,30.00,40.00,WinterDesignDay
250,20.46735119972026
251,15518248.377059758
336,0.0
385,20.50225505944421
386,27.852076378573976
387,-17.611381301105695
388,0.0
425,0.0
450,0.0
451,0.0
452,-18.29426324313623
453,0.0
490,0.0
515,0.0
516,0.0
542,0.0
592,0.0
632,15361281.276568241
686,1.0
687,1.0
688,2.0
2,1, 1,21, 0,13,40.00,50.00,WinterDesignDay
250,19.577678626141967
251,14685473.510292416
336,0.0
385,19.835588392777513
386,27.852076378573933
387,-17.61148066511714
388,0.0
425,0.0
450,0.0
451,0.0
452,-18.294329706594233
453,0.0
490,0.0
515,0.0
516,0.0
542,0.0
592,0.0
632,14350202.441559054
686,0.9999999999999986
687,0.9999999999999986
688,1.9999999999999971
2,1, 1,21, 0,13,50.00,60.00,WinterDesignDay
250,19.874124683081497
251,13429417.679582344
336,0.0
385,19.83558839277756
386,27.852076378573997
387,-17.611491222489605
388,0.0
425,0.0
450,0.0
451,0.0
452,-18.294449631239818
453,0.0
490,0.0
515,0.0
516,0.0
542,0.0
592,0.0
632,13021496.989151713
686,1.0000000000000009
687,1.0000000000000009
688,2.0000000000000018
2,1, 1,21, 0,14, 0.00,10.00,WinterDesignDay
250,20.112674300866082
251,14473945.328295488
336,0.0
385,20.50225505944421
386,27.852076378573976
387,-17.611393444390256
388,0.0
425,0.0
450,0.0
451,0.0
452,-18.294408390649927
453,0.0
490,0.0
515,0.0
516,0.0
542,0.0
592,0.0
632,14948982.630654573
686,1.0
687,1.0
688,2.0
2,1, 1,21, 0,14,10.00,20.00,WinterDesignDay
250,20.467351199735543
251,15518248.392580692
336,0.0
385,20.50225505944421
386,27.852076378573976
387,-17.611383103235898
388,0.0
425,0.0
450,0.0
451,0.0
452,-18.2942634145627
453,0.0
490,0.0
515,0.0
516,0.0
542,0.0
592,0.0
632,15361281.292063722
686,1.0
687,1.0
688,2.0
2,1, 1,21, 0,14,20.00,30.00,WinterDesignDay
250,19.577678625446595
251,14685473.52224398
336,0.0
385,19.83558839277756
386,27.852076378573994
387,-17.611482446400558
388,0.0
425,0.0
450,0.0
451,0.0
452,-18.29432987606432
453,0.0
490,0.0
515,0.0
516,0.0
542,0.0
592,0.0
632,14350202.453329965
686,1.0000000000000007
687,1.0000000000000007
688,2.0000000000000013
2,1, 1,21, 0,14,30.00,40.00,WinterDesignDay
250,19.87412468304576
251,13429417.694218583
336,0.0
385,19.83558839277756
386,27.852076378573997
387,-17.611492981560726
388,0.0
425,0.0
450,0.0
451,0.0
452,-18.2944497985302
453,0.0
490,0.0
515,0.0
516,0.0
542,0.0
592,0.0
632,13021497.003907174
686,1.0000000000000009
687,1.0000000000000009
688,2.0000000000000018
2,1, 1,21, 0,14,40.00,50.00,WinterDesignDay
250,20.11267430096125
251,14473945.342832584
336,0.0
385,20.50225505944421
386,27.852076378573976
387,-17.611395176774487
388,0.0
425,0.0
450,0.0
451,0.0
452,-18.294408555380993
453,0.0
490,0.0
515,0.0
516,0.0
542,0.0
592,0.0
632,14948982.645257868
686,1.0
687,1.0
688,2.0