Program Version,EnergyPlus, Version 24.2.0-94a887817b, YMD=2025.02.04 15:37
1,5,Environment Title[],Latitude[deg],Longitude[deg],Time Zone[],Elevation[m]
2,8,Day of Simulation[],Month[],Day of Month[],DST Indicator[1=yes 0=no],Hour[],StartMinute[],EndMinute[],DayType
3,5,Cumulative Day of Simulation[],Month[],Day of Month[],DST Indicator[1=yes 0=no],DayType  ! When Daily Meters Requested
4,2,Cumulative Days of Simulation[],Month[]  ! When Monthly Meters Requested
5,1,Cumulative Days of Simulation[] ! When Run Period Meters Requested
6,1,Calendar Year of Simulation[] ! When Annual Meters Requested
11,9,Electricity:Facility [J] !Monthly [Value,Min,Day,Hour,Minute,Max,Day,Hour,Minute]
23,9,Electricity:Building [J] !Monthly [Value,Min,Day,Hour,Minute,Max,Day,Hour,Minute]
59,9,InteriorLights:Electricity [J] !Monthly [Value,Min,Day,Hour,Minute,Max,Day,Hour,Minute]
521,9,Electricity:HVAC [J] !Monthly [Value,Min,Day,Hour,Minute,Max,Day,Hour,Minute]
637,9,NaturalGas:Facility [J] !Monthly [Value,Min,Day,Hour,Minute,Max,Day,Hour,Minute]
649,9,NaturalGas:HVAC [J] !Monthly [Value,Min,Day,Hour,Minute,Max,Day,Hour,Minute]
13,11,Electricity:Facility [J] !RunPeriod [Value,Min,Month,Day,Hour,Minute,Max,Month,Day,Hour,Minute]
25,11,Electricity:Building [J] !RunPeriod [Value,Min,Month,Day,Hour,Minute,Max,Month,Day,Hour,Minute]
61,11,InteriorLights:Electricity [J] !RunPeriod [Value,Min,Month,Day,Hour,Minute,Max,Month,Day,Hour,Minute]
523,11,Electricity:HVAC [J] !RunPeriod [Value,Min,Month,Day,Hour,Minute,Max,Month,Day,Hour,Minute]
639,11,NaturalGas:Facility [J] !RunPeriod [Value,Min,Month,Day,Hour,Minute,Max,Month,Day,Hour,Minute]
651,11,NaturalGas:HVAC [J] !RunPeriod [Value,Min,Month,Day,Hour,Minute,Max,Month,Day,Hour,Minute]
End of Data Dictionary
1,RUN PERIOD 1,  41.98, -87.92,  -6.00, 201.00
4,31, 1
11,9820674053.296923,408891.4285714286, 5, 6,50,2977751.465916148,16,13,60
23,981623952.0659481,30000.0, 1, 1,10,608278.2261347234, 1, 9,10
59,970200000.0,30000.0, 1, 1,10,600000.0, 1, 8,10
521,8839050101.230986,378891.4285714286, 5, 6,50,2369473.239781425,16,13,60
637,178640665456.3363,28069686.350178633,21,16,10,41250000.0, 1, 1,20
649,178640665456.3363,28069686.350178633,21,16,10,41250000.0, 1, 1,20
4,59, 2
11,9354469992.425533,99999999999999.0, 5, 6,50,3019212.9061792702,22,15,30
23,858093871.361689,99999999999999.0, 1, 1,10,-99999999999999.0, 1, 9,10
59,848160000.0,99999999999999.0, 1, 1,10,-99999999999999.0, 1, 8,10
521,8496376121.063895,99999999999999.0, 5, 6,50,2410934.680044547,22,15,30
637,157935978964.6474,26387430.5272771,23,12,10,-99999999999999.0, 1, 1,20
649,157935978964.6474,26387430.5272771,23,12,10,-99999999999999.0, 1, 1,20
4,90, 3
11,10986661023.24813,99999999999999.0, 5, 6,50,3256358.840108989,27,15,40
23,907973330.7428635,99999999999999.0, 1, 1,10,-99999999999999.0, 1, 9,10
59,897480000.0,99999999999999.0, 1, 1,10,-99999999999999.0, 1, 8,10
521,10078687692.505253,0.0,27,15,50,2648080.6139742653,27,15,40
637,161809719583.51453,0.0,27,15,50,-99999999999999.0, 1, 1,20
649,161809719583.51453,0.0,27,15,50,-99999999999999.0, 1, 1,20
4,120, 4
11,9817885513.7668,30000.0,11,19,10,-99999999999999.0,27,15,40
23,940497661.1592578,99999999999999.0, 1, 1,10,628185.5324198897,24,16,40
59,929520000.0,99999999999999.0, 1, 1,10,-99999999999999.0, 1, 8,10
521,8877387852.60765,99999999999999.0,27,15,50,-99999999999999.0,27,15,40
637,121249936909.27184,99999999999999.0,27,15,50,-99999999999999.0, 1, 1,20
649,121249936909.27184,99999999999999.0,27,15,50,-99999999999999.0, 1, 1,20
4,151, 5
11,9498953569.939314,99999999999999.0,11,19,10,3271315.3783257827,13,14,10
23,982621271.4644408,99999999999999.0, 1, 1,10,653535.844677223,13,14,10
59,970200000.0,99999999999999.0, 1, 1,10,-99999999999999.0, 1, 8,10
521,8516332298.474874,99999999999999.0,27,15,50,2648430.5086424435,20,11,60
637,94941016291.4711,99999999999999.0,27,15,50,-99999999999999.0, 1, 1,20
649,94941016291.4711,99999999999999.0,27,15,50,-99999999999999.0, 1, 1,20
4,181, 6
11,7652640315.587141,99999999999999.0,11,19,10,-99999999999999.0,13,14,10
23,867137748.9405949,99999999999999.0, 1, 1,10,-99999999999999.0,13,14,10
59,856800000.0,99999999999999.0, 1, 1,10,-99999999999999.0, 1, 8,10
521,6785502566.646588,99999999999999.0,27,15,50,2651677.980442775,24,17,60
637,44853618295.614975,99999999999999.0,27,15,50,-99999999999999.0, 1, 1,20
649,44853618295.614975,99999999999999.0,27,15,50,-99999999999999.0, 1, 1,20
4,212, 7
11,7196765156.302684,99999999999999.0,11,19,10,-99999999999999.0,13,14,10
23,981925033.3148917,99999999999999.0, 1, 1,10,-99999999999999.0,13,14,10
59,970200000.0,99999999999999.0, 1, 1,10,-99999999999999.0, 1, 8,10
521,6214840122.987825,99999999999999.0,27,15,50,-99999999999999.0,24,17,60
637,18468130059.80672,99999999999999.0,27,15,50,-99999999999999.0, 1, 1,20
649,18468130059.80672,99999999999999.0,27,15,50,-99999999999999.0, 1, 1,20
4,243, 8
11,6416396737.281014,99999999999999.0,11,19,10,-99999999999999.0,13,14,10
23,945102072.803958,99999999999999.0, 1, 1,10,-99999999999999.0,13,14,10
59,933840000.0,99999999999999.0, 1, 1,10,-99999999999999.0, 1, 8,10
521,5471294664.477149,99999999999999.0,27,15,50,-99999999999999.0,24,17,60
637,31769777653.669388,99999999999999.0,27,15,50,-99999999999999.0, 1, 1,20
649,31769777653.669388,99999999999999.0,27,15,50,-99999999999999.0, 1, 1,20
4,273, 9
11,8259846024.643808,99999999999999.0,11,19,10,-99999999999999.0,13,14,10
23,903901653.0037551,99999999999999.0, 1, 1,10,-99999999999999.0,13,14,10
59,893160000.0,99999999999999.0, 1, 1,10,-99999999999999.0, 1, 8,10
521,7355944371.640077,99999999999999.0,27,15,50,2651702.4826968415,25,16,50
637,70351376577.8836,99999999999999.0,27,15,50,-99999999999999.0, 1, 1,20
649,70351376577.8836,99999999999999.0,27,15,50,-99999999999999.0, 1, 1,20
4,304,10
11,10738467118.673136,99999999999999.0,11,19,10,-99999999999999.0,13,14,10
23,981847496.9080875,99999999999999.0, 1, 1,10,-99999999999999.0,13,14,10
59,970200000.0,99999999999999.0, 1, 1,10,-99999999999999.0, 1, 8,10
521,9756619621.765135,99999999999999.0,27,15,50,-99999999999999.0,25,16,50
637,128958079642.26622,99999999999999.0,27,15,50,-99999999999999.0, 1, 1,20
649,128958079642.26622,99999999999999.0,27,15,50,-99999999999999.0, 1, 1,20
4,334,11
11,10485979177.270853,99999999999999.0,11,19,10,-99999999999999.0,13,14,10
23,903590564.9297756,99999999999999.0, 1, 1,10,-99999999999999.0,13,14,10
59,893160000.0,99999999999999.0, 1, 1,10,-99999999999999.0, 1, 8,10
521,9582388612.341084,99999999999999.0,27,15,50,-99999999999999.0,25,16,50
637,147291030694.7365,99999999999999.0,27,15,50,-99999999999999.0, 1, 1,20
649,147291030694.7365,99999999999999.0,27,15,50,-99999999999999.0, 1, 1,20
4,365,12
11,10433717878.881655,99999999999999.0,11,19,10,-99999999999999.0,13,14,10
23,944767258.497862,99999999999999.0, 1, 1,10,-99999999999999.0,13,14,10
59,933840000.0,99999999999999.0, 1, 1,10,-99999999999999.0, 1, 8,10
521,9488950620.383821,99999999999999.0,27,15,50,-99999999999999.0,25,16,50
637,179449509509.72394,99999999999999.0,27,15,50,-99999999999999.0, 1, 1,20
649,179449509509.72394,99999999999999.0,27,15,50,-99999999999999.0, 1, 1,20
5,365
13,110662456561.32498,30000.0, 4,11,19,10,3271315.3783257827, 5,13,14,10
25,11199081915.192505,30000.0, 1, 1, 1,10,653535.844677223, 5,13,14,10
61,11066760000.0,30000.0, 1, 1, 1,10,600000.0, 1, 1, 8,10
523,99463374646.12978,0.0, 3,27,15,50,2651702.4826968415, 9,25,16,50
639,1335718839638.9465,0.0, 3,27,15,50,41250000.0, 1, 1, 1,20
651,1335718839638.9465,0.0, 3,27,15,50,41250000.0, 1, 1, 1,20
1,RUN PERIOD 2,  41.98, -87.92,  -6.00, 201.00
4,1, 7
11,126782414.92548291,99999999999999.0,11,19,10,-99999999999999.0,13,14,10
23,41176693.56808346,99999999999999.0, 1, 1,10,-99999999999999.0,13,14,10
59,40680000.0,99999999999999.0, 1, 1,10,-99999999999999.0, 1, 8,10
521,85605721.35739954,99999999999999.0,27,15,50,-99999999999999.0,25,16,50
637,0.0,99999999999999.0,27,15,50,-99999999999999.0, 1, 1,20
649,0.0,99999999999999.0,27,15,50,-99999999999999.0, 1, 1,20
5,1
13,126782414.92548291,99999999999999.0, 4,11,19,10,-99999999999999.0, 5,13,14,10
25,41176693.56808346,99999999999999.0, 1, 1, 1,10,-99999999999999.0, 5,13,14,10
61,40680000.0,99999999999999.0, 1, 1, 1,10,-99999999999999.0, 1, 1, 8,10
523,85605721.35739954,99999999999999.0, 3,27,15,50,-99999999999999.0, 9,25,16,50
639,0.0,99999999999999.0, 3,27,15,50,-99999999999999.0, 1, 1, 1,20
651,0.0,99999999999999.0, 3,27,15,50,-99999999999999.0, 1, 1, 1,20
End of Data
 Number of Records Written=          90
