Program Version,EnergyPlus, Version 24.2.0-94a887817b, YMD=2025.02.04 15:40
1,5,Environment Title[],Latitude[deg],Longitude[deg],Time Zone[],Elevation[m]
2,8,Day of Simulation[],Month[],Day of Month[],DST Indicator[1=yes 0=no],Hour[],StartMinute[],EndMinute[],DayType
3,5,Cumulative Day of Simulation[],Month[],Day of Month[],DST Indicator[1=yes 0=no],DayType  ! When Daily Meters Requested
4,2,Cumulative Days of Simulation[],Month[]  ! When Monthly Meters Requested
5,1,Cumulative Days of Simulation[] ! When Run Period Meters Requested
6,1,Calendar Year of Simulation[] ! When Annual Meters Requested
11,9,Electricity:Facility [J] !Monthly [Value,Min,Day,Hour,Minute,Max,Day,Hour,Minute]
23,9,Electricity:Building [J] !Monthly [Value,Min,Day,Hour,Minute,Max,Day,Hour,Minute]
59,9,InteriorLights:Electricity [J] !Monthly [Value,Min,Day,Hour,Minute,Max,Day,Hour,Minute]
521,9,Electricity:HVAC [J] !Monthly [Value,Min,Day,Hour,Minute,Max,Day,Hour,Minute]
637,9,NaturalGas:Facility [J] !Monthly [Value,Min,Day,Hour,Minute,Max,Day,Hour,Minute]
649,9,NaturalGas:HVAC [J] !Monthly [Value,Min,Day,Hour,Minute,Max,Day,Hour,Minute]
13,11,Electricity:Facility [J] !RunPeriod [Value,Min,Month,Day,Hour,Minute,Max,Month,Day,Hour,Minute]
25,11,Electricity:Building [J] !RunPeriod [Value,Min,Month,Day,Hour,Minute,Max,Month,Day,Hour,Minute]
61,11,InteriorLights:Electricity [J] !RunPeriod [Value,Min,Month,Day,Hour,Minute,Max,Month,Day,Hour,Minute]
523,11,Electricity:HVAC [J] !RunPeriod [Value,Min,Month,Day,Hour,Minute,Max,Month,Day,Hour,Minute]
639,11,NaturalGas:Facility [J] !RunPeriod [Value,Min,Month,Day,Hour,Minute,Max,Month,Day,Hour,Minute]
651,11,NaturalGas:HVAC [J] !RunPeriod [Value,Min,Month,Day,Hour,Minute,Max,Month,Day,Hour,Minute]
End of Data Dictionary
1,RUN PERIOD 1,  41.98, -87.92,  -6.00, 201.00
4,31, 1
11,9813394510.408949,408891.4285714286, 5, 6,50,2972476.434837911,16,13,60
23,974344409.1779276,30000.0, 1, 1,10,603003.1950564864, 1, 9,10
59,970200000.0,30000.0, 1, 1,10,600000.0, 1, 8,10
521,8839050101.230986,378891.4285714286, 5, 6,50,2369473.239781425,16,13,60
637,178896543155.39136,28193384.195290823,21,16,10,41250000.0, 1, 1,10
649,178896543155.39136,28193384.195290823,21,16,10,41250000.0, 1, 1,10
4,59, 2
11,9348139955.131638,99999999999999.0, 5, 6,50,3013937.875101033,22,15,30
23,851763834.0677681,99999999999999.0, 1, 1,10,-99999999999999.0, 1, 9,10
59,848160000.0,99999999999999.0, 1, 1,10,-99999999999999.0, 1, 8,10
521,8496376121.063895,99999999999999.0, 5, 6,50,2410934.680044547,22,15,30
637,158253191076.15067,26506823.19697749,23,12,10,-99999999999999.0, 1, 1,10
649,158253191076.15067,26506823.19697749,23,12,10,-99999999999999.0, 1, 1,10
4,90, 3
11,10966486082.285004,99999999999999.0, 5, 6,50,3230418.988871095,27,15,20
23,901264025.7711544,99999999999999.0, 1, 1,10,-99999999999999.0, 1, 9,10
59,897480000.0,99999999999999.0, 1, 1,10,-99999999999999.0, 1, 8,10
521,10065222056.513788,0.0,27,15,30,2627415.7938146084,27,15,20
637,162248700432.662,0.0,27,15,30,-99999999999999.0, 1, 1,10
649,162248700432.662,0.0,27,15,30,-99999999999999.0, 1, 1,10
4,120, 4
11,9452106723.377605,30000.0,11,19,10,-99999999999999.0,27,15,20
23,933484217.4745413,99999999999999.0, 1, 1,10,-99999999999999.0, 1, 9,10
59,929520000.0,99999999999999.0, 1, 1,10,-99999999999999.0, 1, 8,10
521,8518622505.903006,99999999999999.0,27,15,30,-99999999999999.0,27,15,20
637,120230490057.60284,99999999999999.0,27,15,30,-99999999999999.0, 1, 1,10
649,120230490057.60284,99999999999999.0,27,15,30,-99999999999999.0, 1, 1,10
4,151, 5
11,8865296965.761358,99999999999999.0,11,19,10,-99999999999999.0,27,15,20
23,974668644.6592993,99999999999999.0, 1, 1,10,618902.920558173,28,13,10
59,970200000.0,99999999999999.0, 1, 1,10,-99999999999999.0, 1, 8,10
521,7890628321.101814,99999999999999.0,27,15,30,-99999999999999.0,27,15,20
637,92949568000.09174,99999999999999.0,27,15,30,-99999999999999.0, 1, 1,10
649,92949568000.09174,99999999999999.0,27,15,30,-99999999999999.0, 1, 1,10
4,181, 6
11,6287310664.738242,99999999999999.0,11,19,10,-99999999999999.0,27,15,20
23,860528339.0761214,99999999999999.0, 1, 1,10,-99999999999999.0,28,13,10
59,856800000.0,99999999999999.0, 1, 1,10,-99999999999999.0, 1, 8,10
521,5426782325.662077,99999999999999.0,27,15,30,-99999999999999.0,27,15,20
637,41941292002.30574,99999999999999.0,27,15,30,-99999999999999.0, 1, 1,10
649,41941292002.30574,99999999999999.0,27,15,30,-99999999999999.0, 1, 1,10
4,212, 7
11,5575552427.765144,99999999999999.0,11,19,10,-99999999999999.0,27,15,20
23,974616865.2239844,99999999999999.0, 1, 1,10,-99999999999999.0,28,13,10
59,970200000.0,99999999999999.0, 1, 1,10,-99999999999999.0, 1, 8,10
521,4600935562.541108,99999999999999.0,27,15,30,-99999999999999.0,27,15,20
637,15218644469.566055,99999999999999.0,27,15,30,-99999999999999.0, 1, 1,10
649,15218644469.566055,99999999999999.0,27,15,30,-99999999999999.0, 1, 1,10
4,243, 8
11,4980144227.380222,99999999999999.0,11,19,10,-99999999999999.0,27,15,20
23,938136511.053796,99999999999999.0, 1, 1,10,630351.3119463667, 6,11,60
59,933840000.0,99999999999999.0, 1, 1,10,-99999999999999.0, 1, 8,10
521,4042007716.326401,99999999999999.0,27,15,30,-99999999999999.0,27,15,20
637,28303933351.805016,99999999999999.0,27,15,30,-99999999999999.0, 1, 1,10
649,28303933351.805016,99999999999999.0,27,15,30,-99999999999999.0, 1, 1,10
4,273, 9
11,6989298826.540221,99999999999999.0,11,19,10,-99999999999999.0,27,15,20
23,897004657.5240155,99999999999999.0, 1, 1,10,-99999999999999.0, 6,11,60
59,893160000.0,99999999999999.0, 1, 1,10,-99999999999999.0, 1, 8,10
521,6092294169.016161,99999999999999.0,27,15,30,-99999999999999.0,27,15,20
637,64225799160.21428,99999999999999.0,27,15,30,-99999999999999.0, 1, 1,10
649,64225799160.21428,99999999999999.0,27,15,30,-99999999999999.0, 1, 1,10
4,304,10
11,10541848865.521736,99999999999999.0,11,19,10,-99999999999999.0,27,15,20
23,974394317.754949,99999999999999.0, 1, 1,10,-99999999999999.0, 6,11,60
59,970200000.0,99999999999999.0, 1, 1,10,-99999999999999.0, 1, 8,10
521,9567454547.766718,99999999999999.0,27,15,30,-99999999999999.0,27,15,20
637,128183548270.54659,99999999999999.0,27,15,30,-99999999999999.0, 1, 1,10
649,128183548270.54659,99999999999999.0,27,15,30,-99999999999999.0, 1, 1,10
4,334,11
11,10449922877.605406,99999999999999.0,11,19,10,-99999999999999.0,27,15,20
23,896944025.7711544,99999999999999.0, 1, 1,10,-99999999999999.0, 6,11,60
59,893160000.0,99999999999999.0, 1, 1,10,-99999999999999.0, 1, 8,10
521,9552978851.834211,99999999999999.0,27,15,30,-99999999999999.0,27,15,20
637,147467540258.01038,99999999999999.0,27,15,30,-99999999999999.0, 1, 1,10
649,147467540258.01038,99999999999999.0,27,15,30,-99999999999999.0, 1, 1,10
4,365,12
11,10426754837.85838,99999999999999.0,11,19,10,-99999999999999.0,27,15,20
23,937804217.474541,99999999999999.0, 1, 1,10,-99999999999999.0, 6,11,60
59,933840000.0,99999999999999.0, 1, 1,10,-99999999999999.0, 1, 8,10
521,9488950620.383821,99999999999999.0,27,15,30,-99999999999999.0,27,15,20
637,179724326890.0106,99999999999999.0,27,15,30,-99999999999999.0, 1, 1,10
649,179724326890.0106,99999999999999.0,27,15,30,-99999999999999.0, 1, 1,10
5,365
13,103696256964.36507,30000.0, 4,11,19,10,3230418.988871095, 3,27,15,20
25,11114954065.033356,30000.0, 1, 1, 1,10,630351.3119463667, 8, 6,11,60
61,11066760000.0,30000.0, 1, 1, 1,10,600000.0, 1, 1, 8,10
523,92581302899.3483,0.0, 3,27,15,30,2627415.7938146084, 3,27,15,20
639,1317643577124.362,0.0, 3,27,15,30,41250000.0, 1, 1, 1,10
651,1317643577124.362,0.0, 3,27,15,30,41250000.0, 1, 1, 1,10
1,RUN PERIOD 2,  41.98, -87.92,  -6.00, 201.00
4,1, 7
11,97370553.15596768,99999999999999.0,11,19,10,-99999999999999.0,27,15,20
23,40860191.70338916,99999999999999.0, 1, 1,10,-99999999999999.0, 6,11,60
59,40680000.0,99999999999999.0, 1, 1,10,-99999999999999.0, 1, 8,10
521,56510361.45257853,99999999999999.0,27,15,30,-99999999999999.0,27,15,20
637,0.0,99999999999999.0,27,15,30,-99999999999999.0, 1, 1,10
649,0.0,99999999999999.0,27,15,30,-99999999999999.0, 1, 1,10
5,1
13,97370553.15596768,99999999999999.0, 4,11,19,10,-99999999999999.0, 3,27,15,20
25,40860191.70338916,99999999999999.0, 1, 1, 1,10,-99999999999999.0, 8, 6,11,60
61,40680000.0,99999999999999.0, 1, 1, 1,10,-99999999999999.0, 1, 1, 8,10
523,56510361.45257853,99999999999999.0, 3,27,15,30,-99999999999999.0, 3,27,15,20
639,0.0,99999999999999.0, 3,27,15,30,-99999999999999.0, 1, 1, 1,10
651,0.0,99999999999999.0, 3,27,15,30,-99999999999999.0, 1, 1, 1,10
End of Data
 Number of Records Written=          90
