Program Version,EnergyPlus, Version 24.2.0-94a887817b, YMD=2025.02.04 15:40
1,5,Environment Title[],Latitude[deg],Longitude[deg],Time Zone[],Elevation[m]
2,8,Day of Simulation[],Month[],Day of Month[],DST Indicator[1=yes 0=no],Hour[],StartMinute[],EndMinute[],DayType
3,5,Cumulative Day of Simulation[],Month[],Day of Month[],DST Indicator[1=yes 0=no],DayType  ! When Daily Report Variables Requested
4,2,Cumulative Days of Simulation[],Month[]  ! When Monthly Report Variables Requested
5,1,Cumulative Days of Simulation[] ! When Run Period Report Variables Requested
6,1,Calendar Year of Simulation[] ! When Annual Report Variables Requested
250,1,LIVING ZONE,Zone Air Temperature [C] !TimeStep,REPORTSCH
251,1,LIVING ZONE,Zone Air System Sensible Heating Energy [J] !TimeStep,REPORTSCH
336,1,LIVING ZONE,Zone Air System Sensible Cooling Energy [J] !TimeStep,REPORTSCH
385,1,LIVING ZONE,Zone Thermostat Heating Setpoint Temperature [C] !TimeStep,REPORTSCH
386,1,LIVING ZONE,Zone Thermostat Cooling Setpoint Temperature [C] !TimeStep,REPORTSCH
387,1,GARAGE ZONE,Zone Air Temperature [C] !TimeStep,REPORTSCH
388,1,GARAGE ZONE,Zone Air System Sensible Heating Energy [J] !TimeStep,REPORTSCH
425,1,GARAGE ZONE,Zone Air System Sensible Cooling Energy [J] !TimeStep,REPORTSCH
450,1,GARAGE ZONE,Zone Thermostat Heating Setpoint Temperature [C] !TimeStep,REPORTSCH
451,1,GARAGE ZONE,Zone Thermostat Cooling Setpoint Temperature [C] !TimeStep,REPORTSCH
452,1,ATTIC ZONE,Zone Air Temperature [C] !TimeStep,REPORTSCH
453,1,ATTIC ZONE,Zone Air System Sensible Heating Energy [J] !TimeStep,REPORTSCH
490,1,ATTIC ZONE,Zone Air System Sensible Cooling Energy [J] !TimeStep,REPORTSCH
515,1,ATTIC ZONE,Zone Thermostat Heating Setpoint Temperature [C] !TimeStep,REPORTSCH
516,1,ATTIC ZONE,Zone Thermostat Cooling Setpoint Temperature [C] !TimeStep,REPORTSCH
542,1,ACDXCOIL 1,Cooling Coil Total Cooling Energy [J] !TimeStep,REPORTSCH
592,1,HEAT PUMP DX HEATING COIL 1,Heating Coil Heating Energy [J] !TimeStep,REPORTSCH
632,1,SUPP HEATING COIL 1,Heating Coil Heating Energy [J] !TimeStep,REPORTSCH
686,1,TWOSPEED HEAT PUMP 1,Unitary System DX Coil Cycling Ratio [] !TimeStep,REPORTSCH
687,1,TWOSPEED HEAT PUMP 1,Unitary System DX Coil Speed Ratio [] !TimeStep,REPORTSCH
688,1,TWOSPEED HEAT PUMP 1,Unitary System DX Coil Speed Level [] !TimeStep,REPORTSCH
End of Data Dictionary
1,RUN PERIOD 1,  41.98, -87.92,  -6.00, 201.00
2,21, 1,21, 0, 1, 0.00,10.00,Monday
250,-0.19423603755444702
251,37784870.37421086
336,0.0
385,19.196286159171507
386,28.336018050801016
387,-0.9338231726060178
388,0.0
425,0.0
450,0.0
451,0.0
452,-1.9601842666792353
453,0.0
490,0.0
515,0.0
516,0.0
542,0.0
592,4839743.9850796405
632,32688171.791624717
686,1.0
687,1.0
688,2.0
2,21, 1,21, 0, 1,10.00,20.00,Monday
250,-0.19426100782002403
251,37786465.0169874
336,0.0
385,19.196286159171507
386,28.336018050801016
387,-0.9422197105060096
388,0.0
425,0.0
450,0.0
451,0.0
452,-1.9420998211742724
453,0.0
490,0.0
515,0.0
516,0.0
542,0.0
592,4823801.676011796
632,32703758.47059208
686,1.0
687,1.0
688,2.0
2,21, 1,21, 0, 1,20.00,30.00,Monday
250,-0.1945500455161991
251,37788283.223770626
336,0.0
385,19.196286159171507
386,28.336018050801016
387,-0.9518398136260953
388,0.0
425,0.0
450,0.0
451,0.0
452,-1.9390006006997567
453,0.0
490,0.0
515,0.0
516,0.0
542,0.0
592,4807858.162905221
632,32721378.03277353
686,1.0
687,1.0
688,2.0
2,21, 1,21, 0, 1,30.00,40.00,Monday
250,-0.19477045551625527
251,37790037.78520726
336,0.0
385,19.196286159171507
386,28.336018050801016
387,-0.9628884482265767
388,0.0
425,0.0
450,0.0
451,0.0
452,-1.9518333861071022
453,0.0
490,0.0
515,0.0
516,0.0
542,0.0
592,4791913.445623511
632,32739114.251143835
686,1.0
687,1.0
688,2.0
2,21, 1,21, 0, 1,40.00,50.00,Monday
250,-0.19500024197161378
251,37791801.44625145
336,0.0
385,19.196286159171507
386,28.336018050801016
387,-0.9755233607014391
388,0.0
425,0.0
450,0.0
451,0.0
452,-1.9789865862024556
453,0.0
490,0.0
515,0.0
516,0.0
542,0.0
592,4775967.524030239
632,32756818.78050688
686,1.0
687,1.0
688,2.0
2,21, 1,21, 0, 1,50.00,60.00,Monday
250,-0.19523533779393398
251,37793569.183044896
336,0.0
385,19.196286159171507
386,28.336018050801016
387,-0.9899336234585736
388,0.0
425,0.0
450,0.0
451,0.0
452,-2.018920844949916
453,0.0
490,0.0
515,0.0
516,0.0
542,0.0
592,4760020.397988958
632,32774530.779371653
686,1.0
687,1.0
688,2.0
2,21, 1,21, 0, 2, 0.00,10.00,Monday
250,-0.1954550461268642
251,37795328.631556116
336,0.0
385,19.196286159171507
386,28.336018050801016
387,-1.0054435442549237
388,0.0
425,0.0
450,0.0
451,0.0
452,-2.0656021290545508
453,0.0
490,0.0
515,0.0
516,0.0
542,0.0
592,4760020.397988958
632,32776298.50747004
686,1.0
687,1.0
688,2.0
2,21, 1,21, 0, 2,10.00,20.00,Monday
250,-0.19570681930847136
251,37795523.608986564
336,0.0
385,19.196286159171507
386,28.336018050801016
387,-1.0211177900829762
388,0.0
425,0.0
450,0.0
451,0.0
452,-2.1082690308428598
453,0.0
490,0.0
515,0.0
516,0.0
542,0.0
592,4760020.397988958
632,32776476.22001559
686,1.0
687,1.0
688,2.0
2,21, 1,21, 0, 2,20.00,30.00,Monday
250,-0.19595927157138257
251,37795637.55323635
336,0.0
385,19.196286159171507
386,28.336018050801016
387,-1.0364063895715179
388,0.0
425,0.0
450,0.0
451,0.0
452,-2.139699219693646
453,0.0
490,0.0
515,0.0
516,0.0
542,0.0
592,4760020.397988958
632,32776589.798706207
686,1.0
687,1.0
688,2.0
2,21, 1,21, 0, 2,30.00,40.00,Monday
250,-0.1962060045573132
251,37795775.25952276
336,0.0
385,19.196286159171507
386,28.336018050801016
387,-1.050988537127779
388,0.0
425,0.0
450,0.0
451,0.0
452,-2.1590755120829788
453,0.0
490,0.0
515,0.0
516,0.0
542,0.0
592,4760020.397988959
632,32776730.584408067
686,1.0
687,1.0
688,2.0
2,21, 1,21, 0, 2,40.00,50.00,Monday
250,-0.19644906091649347
251,37795907.06875785
336,0.0
385,19.196286159171507
386,28.336018050801016
387,-1.0647231499256984
388,0.0
425,0.0
450,0.0
451,0.0
452,-2.169223195623025
453,0.0
490,0.0
515,0.0
516,0.0
542,0.0
592,4760020.397988958
632,32776864.373247724
686,1.0
687,1.0
688,2.0
2,21, 1,21, 0, 2,50.00,60.00,Monday
250,-0.19668776351160033
251,37796035.45073864
336,0.0
385,19.196286159171507
386,28.336018050801016
387,-1.0775720293300854
388,0.0
425,0.0
450,0.0
451,0.0
452,-2.173282974730185
453,0.0
490,0.0
515,0.0
516,0.0
542,0.0
592,4760020.397988958
632,32776995.09942823
686,1.0
687,1.0
688,2.0
2,21, 1,21, 0, 3, 0.00,10.00,Monday
250,-0.11677902939323767
251,37753010.14899132
336,0.0
385,19.196286159171507
386,28.336018050801016
387,-1.0791579300423957
388,0.0
425,0.0
450,0.0
451,0.0
452,-2.1658437817756644
453,0.0
490,0.0
515,0.0
516,0.0
542,0.0
592,4762558.894114005
632,32774585.123416282
686,1.0
687,1.0
688,2.0
2,21, 1,21, 0, 3,10.00,20.00,Monday
250,-0.03375878181250735
251,37709807.47281129
336,0.0
385,19.196286159171507
386,28.336018050801016
387,-1.0681923374760196
388,0.0
425,0.0
450,0.0
451,0.0
452,-2.1409331188406213
453,0.0
490,0.0
515,0.0
516,0.0
542,0.0
592,4764988.4357309695
632,32730630.014992137
686,1.0
687,1.0
688,2.0
2,21, 1,21, 0, 3,20.00,30.00,Monday
250,0.04790897599484989
251,37667416.36853106
336,0.0
385,19.196286159171507
386,28.336018050801016
387,-1.0491010399209415
388,0.0
425,0.0
450,0.0
451,0.0
452,-2.0970879251688834
453,0.0
490,0.0
515,0.0
516,0.0
542,0.0
592,4767308.250738335
632,32685192.693257526
686,1.0
687,1.0
688,2.0
2,21, 1,21, 0, 3,30.00,40.00,Monday
250,0.129874711942365
251,37624846.14197914
336,0.0
385,19.196286159171507
386,28.336018050801016
387,-1.0256851166936807
388,0.0
425,0.0
450,0.0
451,0.0
452,-2.037424502377567
453,0.0
490,0.0
515,0.0
516,0.0
542,0.0
592,4769517.689516207
632,32640575.31892426
686,1.0
687,1.0
688,2.0
2,21, 1,21, 0, 3,40.00,50.00,Monday
250,0.2119565927994711
251,37582223.66967502
336,0.0
385,19.196286159171507
386,28.336018050801016
387,-0.9992608730336852
388,0.0
425,0.0
450,0.0
451,0.0
452,-1.9664214479133808
453,0.0
490,0.0
515,0.0
516,0.0
542,0.0
592,4771616.115684973
632,32595918.82053647
686,1.0
687,1.0
688,2.0
2,21, 1,21, 0, 3,50.00,60.00,Monday
250,0.29407572234095913
251,37539588.79783739
336,0.0
385,19.196286159171507
386,28.336018050801016
387,-0.969655890654573
388,0.0
425,0.0
450,0.0
451,0.0
452,-1.8877013084529513
453,0.0
490,0.0
515,0.0
516,0.0
542,0.0
592,4773602.736238396
632,32551319.257941
686,1.0
687,1.0
688,2.0
2,21, 1,21, 0, 4, 0.00,10.00,Monday
250,0.29607506249619936
251,37540110.195685506
336,0.0
385,19.196286159171507
386,28.336018050801016
387,-0.9473325489129335
388,0.0
425,0.0
450,0.0
451,0.0
452,-1.81154608564095
453,0.0
490,0.0
515,0.0
516,0.0
542,0.0
592,4773428.98237163
632,32508866.55982812
686,1.0
687,1.0
688,2.0
2,21, 1,21, 0, 4,10.00,20.00,Monday
250,0.29500572578887996
251,37540781.03960947
336,0.0
385,19.196286159171507
386,28.336018050801016
387,-0.9348872489024613
388,0.0
425,0.0
450,0.0
451,0.0
452,-1.7469852339041945
453,0.0
490,0.0
515,0.0
516,0.0
542,0.0
592,4773255.169447958
632,32508058.532566555
686,1.0
687,1.0
688,2.0
2,21, 1,21, 0, 4,20.00,30.00,Monday
250,0.2953597214471574
251,37540607.75244344
336,0.0
385,19.196286159171507
386,28.336018050801016
387,-0.9288922745278814
388,0.0
425,0.0
450,0.0
451,0.0
452,-1.6976327717542858
453,0.0
490,0.0
515,0.0
516,0.0
542,0.0
592,4773081.29743726
632,32508825.676757317
686,1.0
687,1.0
688,2.0
2,21, 1,21, 0, 4,30.00,40.00,Monday
250,0.29547581132960216
251,37540588.1445001
336,0.0
385,19.196286159171507
386,28.336018050801016
387,-0.925643866345877
388,0.0
425,0.0
450,0.0
451,0.0
452,-1.6618488160824556
453,0.0
490,0.0
515,0.0
516,0.0
542,0.0
592,4772907.366309401
632,32508851.871851727
686,1.0
687,1.0
688,2.0
2,21, 1,21, 0, 4,40.00,50.00,Monday
250,0.29554000353007726
251,37540592.78422305
336,0.0
385,19.196286159171507
386,28.336018050801016
387,-0.9234145527273309
388,0.0
425,0.0
450,0.0
451,0.0
452,-1.6359699920783959
453,0.0
490,0.0
515,0.0
516,0.0
542,0.0
592,4772733.376034233
632,32509002.55148349
686,1.0
687,1.0
688,2.0
2,21, 1,21, 0, 4,50.00,60.00,Monday
250,0.29561204004779773
251,37540592.18149981
336,0.0
385,19.196286159171507
386,28.336018050801016
387,-0.922000464897771
388,0.0
425,0.0
450,0.0
451,0.0
452,-1.6169305596779517
453,0.0
490,0.0
515,0.0
516,0.0
542,0.0
592,4772559.326581573
632,32509180.222950775
686,1.0
687,1.0
688,2.0
2,21, 1,21, 0, 5, 0.00,10.00,Monday
250,0.2956806460840534
251,37540593.570374876
336,0.0
385,19.196286159171507
386,28.336018050801016
387,-0.9214224383182078
388,0.0
425,0.0
450,0.0
451,0.0
452,-1.6021105913200804
453,0.0
490,0.0
515,0.0
516,0.0
542,0.0
592,4759720.858689582
632,32522018.232206084
686,1.0
687,1.0
688,2.0
2,21, 1,21, 0, 5,10.00,20.00,Monday
250,0.29577658191669676
251,37541811.36065911
336,0.0
385,19.196286159171507
386,28.336018050801016
387,-0.9215297464558005
388,0.0
425,0.0
450,0.0
451,0.0
452,-1.589199978377009
453,0.0
490,0.0
515,0.0
516,0.0
542,0.0
592,4746877.262331866
632,32536094.339579467
686,1.0
687,1.0
688,2.0
2,21, 1,21, 0, 5,20.00,30.00,Monday
250,0.2958751543801687
251,37543091.64551317
336,0.0
385,19.196286159171507
386,28.336018050801016
387,-0.9220927286465294
388,0.0
425,0.0
450,0.0
451,0.0
452,-1.5767962833333131
453,0.0
490,0.0
515,0.0
516,0.0
542,0.0
592,4734028.534436011
632,32550224.77427093
686,1.0
687,1.0
688,2.0
2,21, 1,21, 0, 5,30.00,40.00,Monday
250,0.2959731676750556
251,37544351.874654144
336,0.0
385,19.196286159171507
386,28.336018050801016
387,-0.9229113349075365
388,0.0
425,0.0
450,0.0
451,0.0
452,-1.5644628886890186
453,0.0
490,0.0
515,0.0
516,0.0
542,0.0
592,4721174.671927155
632,32564338.566595234
686,1.0
687,1.0
688,2.0
2,21, 1,21, 0, 5,40.00,50.00,Monday
250,0.2960719225741978
251,37545615.27117746
336,0.0
385,19.196286159171507
386,28.336018050801016
387,-0.9238517887316716
388,0.0
425,0.0
450,0.0
451,0.0
452,-1.5522656392967287
453,0.0
490,0.0
515,0.0
516,0.0
542,0.0
592,4708315.671727969
632,32578461.364629865
686,1.0
687,1.0
688,2.0
2,21, 1,21, 0, 5,50.00,60.00,Monday
250,0.29617160010861826
251,37546879.53509796
336,0.0
385,19.196286159171507
386,28.336018050801016
387,-0.9248354954835911
388,0.0
425,0.0
450,0.0
451,0.0
452,-1.540354293540755
453,0.0
490,0.0
515,0.0
516,0.0
542,0.0
592,4695451.530758676
632,32592590.268376462
686,1.0
687,1.0
688,2.0
2,21, 1,21, 0, 6, 0.00,10.00,Monday
250,0.2962763951409367
251,37548141.45677642
336,0.0
385,19.196286159171507
386,28.336018050801016
387,-0.9259479310037032
388,0.0
425,0.0
450,0.0
451,0.0
452,-1.5294192595473088
453,0.0
490,0.0
515,0.0
516,0.0
542,0.0
592,4695264.08225586
632,32594042.397147056
686,1.0
687,1.0
688,2.0
2,21, 1,21, 0, 6,10.00,20.00,Monday
250,0.2963538416343135
251,37548185.856552765
336,0.0
385,19.196286159171507
386,28.336018050801016
387,-0.9272722395863143
388,0.0
425,0.0
450,0.0
451,0.0
452,-1.5202723216200593
453,0.0
490,0.0
515,0.0
516,0.0
542,0.0
592,4695076.569900009
632,32594259.577209204
686,1.0
687,1.0
688,2.0
2,21, 1,21, 0, 6,20.00,30.00,Monday
250,0.2964295600636574
251,37548167.70316409
336,0.0
385,19.196286159171507
386,28.336018050801016
387,-0.9288036001981609
388,0.0
425,0.0
450,0.0
451,0.0
452,-1.513252514143479
453,0.0
490,0.0
515,0.0
516,0.0
542,0.0
592,4694888.993658494
632,32594428.069207508
686,1.0
687,1.0
688,2.0
2,21, 1,21, 0, 6,30.00,40.00,Monday
250,0.2965074506250574
251,37548169.29655801
336,0.0
385,19.196286159171507
386,28.336018050801016
387,-0.9305005932850807
388,0.0
425,0.0
450,0.0
451,0.0
452,-1.508152176031851
453,0.0
490,0.0
515,0.0
516,0.0
542,0.0
592,4694701.353498662
632,32594618.47290175
686,1.0
687,1.0
688,2.0
2,21, 1,21, 0, 6,40.00,50.00,Monday
250,0.2965865805791184
251,37548167.18664415
336,0.0
385,19.196286159171507
386,28.336018050801016
387,-0.9323309989757885
388,0.0
425,0.0
450,0.0
451,0.0
452,-1.5045181174777202
453,0.0
490,0.0
515,0.0
516,0.0
542,0.0
592,4694513.649387832
632,32594804.73478595
686,1.0
687,1.0
688,2.0
2,21, 1,21, 0, 6,50.00,60.00,Monday
250,0.2966670614629774
251,37548163.51843233
336,0.0
385,19.196286159171507
386,28.336018050801016
387,-0.9342765769069092
388,0.0
425,0.0
450,0.0
451,0.0
452,-1.5019286561660385
453,0.0
490,0.0
515,0.0
516,0.0
542,0.0
592,4694325.881293308
632,32594989.562439777
686,1.0
687,1.0
688,2.0
2,21, 1,21, 0, 7, 0.00,10.00,Monday
250,0.29464591373687715
251,37549292.08882022
336,0.0
385,19.196286159171507
386,28.336018050801016
387,-0.9387665969355086
388,0.0
425,0.0
450,0.0
451,0.0
452,-1.50524647099553
453,0.0
490,0.0
515,0.0
516,0.0
542,0.0
592,4723573.583255435
632,32565738.313191537
686,1.0
687,1.0
688,2.0
2,21, 1,21, 0, 7,10.00,20.00,Monday
250,0.29466807918187904
251,37546478.5790842
336,0.0
385,19.196286159171507
386,28.336018050801016
387,-0.947991015763935
388,0.0
425,0.0
450,0.0
451,0.0
452,-1.523933620829648
453,0.0
490,0.0
515,0.0
516,0.0
542,0.0
592,4752837.186047653
632,32534761.903787162
686,1.0
687,1.0
688,2.0
2,21, 1,21, 0, 7,20.00,30.00,Monday
250,0.2948210338402563
251,37543446.80994865
336,0.0
385,19.196286159171507
386,28.336018050801016
387,-0.9622076756037852
388,0.0
425,0.0
450,0.0
451,0.0
452,-1.5633730753392356
453,0.0
490,0.0
515,0.0
516,0.0
542,0.0
592,4782116.702651945
632,32502521.06062525
686,1.0
687,1.0
688,2.0
2,21, 1,21, 0, 7,30.00,40.00,Monday
250,0.29493617973031105
251,37540482.014240265
336,0.0
385,19.196286159171507
386,28.336018050801016
387,-0.980442652118311
388,0.0
425,0.0
450,0.0
451,0.0
452,-1.621215131390923
453,0.0
490,0.0
515,0.0
516,0.0
542,0.0
592,4811412.146064445
632,32470240.452777866
686,1.0
687,1.0
688,2.0
2,21, 1,21, 0, 7,40.00,50.00,Monday
250,0.2950599082512413
251,37537504.00106669
336,0.0
385,19.196286159171507
386,28.336018050801016
387,-1.0015860885564023
388,0.0
425,0.0
450,0.0
451,0.0
452,-1.6912046514871903
453,0.0
490,0.0
515,0.0
516,0.0
542,0.0
592,4840723.52929546
632,32437955.67348229
686,1.0
687,1.0
688,2.0
2,21, 1,21, 0, 7,50.00,60.00,Monday
250,0.2951889399233731
251,37534519.61860632
336,0.0
385,19.196286159171507
386,28.336018050801016
387,-1.0248721243286738
388,0.0
425,0.0
450,0.0
451,0.0
452,-1.7676334811131822
453,0.0
490,0.0
515,0.0
516,0.0
542,0.0
592,4870050.865369482
632,32405646.80540505
686,1.0
687,1.0
688,2.0
2,21, 1,21, 0, 8, 0.00,10.00,Monday
250,0.4962183763322008
251,37423361.83515738
336,0.0
385,19.196286159171507
386,28.336018050801016
387,-1.020974821918003
388,0.0
425,0.0
450,0.0
451,0.0
452,-1.8266314673394133
453,0.0
490,0.0
515,0.0
516,0.0
542,0.0
592,4889730.300311495
632,32382981.66036687
686,1.0
687,1.0
688,2.0
2,21, 1,21, 0, 8,10.00,20.00,Monday
250,0.6972826602832143
251,37317263.538947806
336,0.0
385,19.196286159171507
386,28.336018050801016
387,-0.9789996891268155
388,0.0
425,0.0
450,0.0
451,0.0
452,-1.8179678415543346
453,0.0
490,0.0
515,0.0
516,0.0
542,0.0
592,4909380.719869504
632,32257257.980338983
686,1.0
687,1.0
688,2.0
2,21, 1,21, 0, 8,20.00,30.00,Monday
250,0.894177254286249
251,37213670.408877425
336,0.0
385,19.196286159171507
386,28.336018050801016
387,-0.9076638048632348
388,0.0
425,0.0
450,0.0
451,0.0
452,-1.7108225502940166
453,0.0
490,0.0
515,0.0
516,0.0
542,0.0
592,4929009.6156952735
632,32131797.630180757
686,1.0
687,1.0
688,2.0
2,21, 1,21, 0, 8,30.00,40.00,Monday
250,1.091974869613459
251,37109504.30875988
336,0.0
385,19.196286159171507
386,28.336018050801016
387,-0.8169622734298881
388,0.0
425,0.0
450,0.0
451,0.0
452,-1.5158275445262637
453,0.0
490,0.0
515,0.0
516,0.0
542,0.0
592,4952863.646772657
632,32004270.519497626
686,1.0
687,1.0
688,2.0
2,21, 1,21, 0, 8,40.00,50.00,Monday
250,1.2901140339952981
251,37004767.250379615
336,0.0
385,19.196286159171507
386,28.336018050801016
387,-0.7149557002253106
388,0.0
425,0.0
450,0.0
451,0.0
452,-1.2395754824155492
453,0.0
490,0.0
515,0.0
516,0.0
542,0.0
592,4977062.298687914
632,31875524.42153105
686,1.0
687,1.0
688,2.0
2,21, 1,21, 0, 8,50.00,60.00,Monday
250,1.489785072147355
251,36900105.5299502
336,0.0
385,19.196286159171507
386,28.336018050801016
387,-0.6188518151909601
388,0.0
425,0.0
450,0.0
451,0.0
452,-0.9259331193020394
453,0.0
490,0.0
515,0.0
516,0.0
542,0.0
592,5001395.306277513
632,31695188.147240654
686,1.0
687,1.0
688,2.0
2,21, 1,21, 0, 9, 0.00,10.00,Monday
250,1.7538548948130495
251,36761770.132028155
336,0.0
385,19.196286159171507
386,28.336018050801016
387,-0.48022093486066747
388,0.0
425,0.0
450,0.0
451,0.0
452,-0.44601363820253853
453,0.0
490,0.0
515,0.0
516,0.0
542,0.0
592,5029363.153609448
632,31545871.028021112
686,1.0
687,1.0
688,2.0
2,21, 1,21, 0, 9,10.00,20.00,Monday
250,2.0176732673026017
251,36622668.230210386
336,0.0
385,19.196286159171507
386,28.336018050801016
387,-0.32917818801485543
388,0.0
425,0.0
450,0.0
451,0.0
452,0.07827367911479868
453,0.0
490,0.0
515,0.0
516,0.0
542,0.0
592,5057356.862312016
632,31378661.529156573
686,1.0
687,1.0
688,2.0
2,21, 1,21, 0, 9,20.00,30.00,Monday
250,2.2817328879472623
251,36483426.41495328
336,0.0
385,19.196286159171507
386,28.336018050801016
387,-0.1692651227147102
388,0.0
425,0.0
450,0.0
451,0.0
452,0.6429527442177574
453,0.0
490,0.0
515,0.0
516,0.0
542,0.0
592,5085392.284952975
632,31211450.602395013
686,1.0
687,1.0
688,2.0
2,21, 1,21, 0, 9,30.00,40.00,Monday
250,2.545633393616147
251,36344269.41197841
336,0.0
385,19.196286159171507
386,28.336018050801016
387,0.00039063802955106516
388,0.0
425,0.0
450,0.0
451,0.0
452,1.2375919534663429
453,0.0
490,0.0
515,0.0
516,0.0
542,0.0
592,5113485.892141593
632,31044157.731343873
686,1.0
687,1.0
688,2.0
2,21, 1,21, 0, 9,40.00,50.00,Monday
250,2.8102327478627163
251,36203796.466811694
336,0.0
385,19.19628615917152
386,28.336018050801037
387,0.14542978324661832
388,0.0
425,0.0
450,0.0
451,0.0
452,1.7396386384507267
453,0.0
490,0.0
515,0.0
516,0.0
542,0.0
592,5141654.529350725
632,30851005.667155236
686,1.0000000000000009
687,1.0000000000000009
688,2.0000000000000018
2,21, 1,21, 0, 9,50.00,60.00,Monday
250,3.0747702454884998
251,36063744.08621736
336,0.0
385,19.196286159171507
386,28.336018050801016
387,0.2975317776273406
388,0.0
425,0.0
450,0.0
451,0.0
452,2.2804430684397365
453,0.0
490,0.0
515,0.0
516,0.0
542,0.0
592,5169915.672059795
632,30708324.790873297
686,1.0
687,1.0
688,2.0
2,21, 1,21, 0,10, 0.00,10.00,Monday
250,3.5320043788607984
251,35821178.89819491
336,0.0
385,19.196286159171507
386,28.336018050801016
387,0.4879318076870882
388,0.0
425,0.0
450,0.0
451,0.0
452,2.8401111023557215
453,0.0
490,0.0
515,0.0
516,0.0
542,0.0
592,5241404.10703412
632,30403523.050235488
686,1.0
687,1.0
688,2.0
2,21, 1,21, 0,10,10.00,20.00,Monday
250,3.991190381620935
251,35578141.721386015
336,0.0
385,19.196286159171507
386,28.336018050801016
387,0.7789920132904044
388,0.0
425,0.0
450,0.0
451,0.0
452,3.5950610657467674
453,0.0
490,0.0
515,0.0
516,0.0
542,0.0
592,5315291.857316207
632,30086081.585139714
686,1.0
687,1.0
688,2.0
2,21, 1,21, 0,10,20.00,30.00,Monday
250,4.451312114707804
251,35333359.13100716
336,0.0
385,19.1962861591715
386,28.336018050801005
387,1.059450476319912
388,0.0
425,0.0
450,0.0
451,0.0
452,4.28444034022167
453,0.0
490,0.0
515,0.0
516,0.0
542,0.0
592,5391793.298050372
632,29765009.568785533
686,0.9999999999999996
687,0.9999999999999996
688,1.9999999999999991
2,21, 1,21, 0,10,30.00,40.00,Monday
250,4.911902686809227
251,35088192.15308802
336,0.0
385,19.196286159171514
386,28.336018050801027
387,1.341274142997258
388,0.0
425,0.0
450,0.0
451,0.0
452,4.985749264974641
453,0.0
490,0.0
515,0.0
516,0.0
542,0.0
592,5471132.199313744
632,29440631.7344136
686,1.0000000000000004
687,1.0000000000000004
688,2.000000000000001
2,21, 1,21, 0,10,40.00,50.00,Monday
250,5.373127636512632
251,34842543.80044855
336,0.0
385,19.19628615917152
386,28.336018050801037
387,1.6314588312748635
388,0.0
425,0.0
450,0.0
451,0.0
452,5.749728218184211
453,0.0
490,0.0
515,0.0
516,0.0
542,0.0
592,5553542.3757593315
632,29112733.931844577
686,1.0000000000000009
687,1.0000000000000009
688,2.0000000000000018
2,21, 1,21, 0,10,50.00,60.00,Monday
250,5.834394430954202
251,34596726.81415885
336,0.0
385,19.19628615917152
386,28.336018050801037
387,1.9317237785912842
388,0.0
425,0.0
450,0.0
451,0.0
452,6.578936616778569
453,0.0
490,0.0
515,0.0
516,0.0
542,0.0
592,5639267.778995938
632,28781247.415978447
686,1.0000000000000009
687,1.0000000000000009
688,2.0000000000000018
2,21, 1,21, 0,11, 0.00,10.00,Monday
250,6.118058869631424
251,34445779.18300299
336,0.0
385,19.196286159171507
386,28.336018050801016
387,2.2182684571148945
388,0.0
425,0.0
450,0.0
451,0.0
452,7.434209372334859
453,0.0
490,0.0
515,0.0
516,0.0
542,0.0
592,5689519.861596227
632,28548172.859998822
686,1.0
687,1.0
688,2.0
2,21, 1,21, 0,11,10.00,20.00,Monday
250,6.400056643101696
251,34295654.10634275
336,0.0
385,19.196286159171507
386,28.336018050801016
387,2.4880572815427566
388,0.0
425,0.0
450,0.0
451,0.0
452,8.284804435653045
453,0.0
490,0.0
515,0.0
516,0.0
542,0.0
592,5740969.350869594
632,28346288.711934984
686,1.0
687,1.0
688,2.0
2,21, 1,21, 0,11,20.00,30.00,Monday
250,6.682120087831411
251,34145447.17795101
336,0.0
385,19.1962861591715
386,28.336018050801005
387,2.760223817234835
388,0.0
425,0.0
450,0.0
451,0.0
452,9.131490443142358
453,0.0
490,0.0
515,0.0
516,0.0
542,0.0
592,5793671.095282217
632,28143407.800583467
686,0.9999999999999996
687,0.9999999999999996
688,1.9999999999999991
2,21, 1,21, 0,11,30.00,40.00,Monday
250,6.963452155771674
251,33995581.431294374
336,0.0
385,19.196286159171514
386,28.336018050801027
387,3.037558888878873
388,0.0
425,0.0
450,0.0
451,0.0
452,9.953703635358526
453,0.0
490,0.0
515,0.0
516,0.0
542,0.0
592,5847681.4279665835
632,27939416.807503
686,1.0000000000000004
687,1.0000000000000004
688,2.000000000000001
2,21, 1,21, 0,11,40.00,50.00,Monday
250,7.24447460106371
251,33845829.138567485
336,0.0
385,19.19628615917152
386,28.336018050801037
387,3.316661384047475
388,0.0
425,0.0
450,0.0
451,0.0
452,10.699139234073268
453,0.0
490,0.0
515,0.0
516,0.0
542,0.0
592,5903058.082199926
632,27734249.50571841
686,1.0000000000000009
687,1.0000000000000009
688,2.0000000000000018
2,21, 1,21, 0,11,50.00,60.00,Monday
250,7.525081002867961
251,33696246.26415165
336,0.0
385,19.19628615917152
386,28.336018050801037
387,3.5936791344135277
388,0.0
425,0.0
450,0.0
451,0.0
452,11.33467153447854
453,0.0
490,0.0
515,0.0
516,0.0
542,0.0
592,5959860.237244541
632,27527807.38121864
686,1.0000000000000009
687,1.0000000000000009
688,2.0000000000000018
2,21, 1,21, 0,12, 0.00,10.00,Monday
250,7.791520625274424
251,33554194.743516557
336,0.0
385,19.196286159171507
386,28.336018050801016
387,3.8336476498651866
388,0.0
425,0.0
450,0.0
451,0.0
452,11.833891089830097
453,0.0
490,0.0
515,0.0
516,0.0
542,0.0
592,5991096.197635709
632,27378163.66861971
686,1.0
687,1.0
688,2.0
2,21, 1,21, 0,12,10.00,20.00,Monday
250,8.054224827593144
251,33417619.459847875
336,0.0
385,19.196286159171507
386,28.336018050801016
387,4.126022453462817
388,0.0
425,0.0
450,0.0
451,0.0
452,12.397885163775864
453,0.0
490,0.0
515,0.0
516,0.0
542,0.0
592,7572016.881221028
632,25658575.85230005
686,1.0
687,1.0
688,2.0
2,21, 1,21, 0,12,20.00,30.00,Monday
250,8.318912519221648
251,33278294.7862443
336,0.0
385,19.196286159171507
386,28.336018050801016
387,4.395134349576205
388,0.0
425,0.0
450,0.0
451,0.0
452,12.913512402355597
453,0.0
490,0.0
515,0.0
516,0.0
542,0.0
592,7609409.155487607
632,25482348.244146522
686,1.0
687,1.0
688,2.0
2,21, 1,21, 0,12,30.00,40.00,Monday
250,8.583263193341132
251,33139154.91377765
336,0.0
385,19.196286159171507
386,28.336018050801016
387,4.653936576279333
388,0.0
425,0.0
450,0.0
451,0.0
452,13.404845038168721
453,0.0
490,0.0
515,0.0
516,0.0
542,0.0
592,7646583.592010484
632,25305943.42861966
686,1.0
687,1.0
688,2.0
2,21, 1,21, 0,12,40.00,50.00,Monday
250,8.847520471755022
251,33000064.92924667
336,0.0
385,19.196286159171507
386,28.336018050801016
387,4.9083529564960635
388,0.0
425,0.0
450,0.0
451,0.0
452,13.8465566202693
453,0.0
490,0.0
515,0.0
516,0.0
542,0.0
592,7683540.190789656
632,25129871.20659742
686,1.0
687,1.0
688,2.0
2,21, 1,21, 0,12,50.00,60.00,Monday
250,9.111744979469144
251,32860991.82669662
336,0.0
385,19.196286159171507
386,28.336018050801016
387,5.157291092263878
388,0.0
425,0.0
450,0.0
451,0.0
452,14.214420874952417
453,0.0
490,0.0
515,0.0
516,0.0
542,0.0
592,7720278.951825122
632,24954050.94912272
686,1.0
687,1.0
688,2.0
2,21, 1,21, 0,13, 0.00,10.00,Monday
250,9.293982750180078
251,32762876.21134663
336,0.0
385,19.196286159171507
386,28.336018050801016
387,5.389665612256079
388,0.0
425,0.0
450,0.0
451,0.0
452,14.505705862258894
453,0.0
490,0.0
515,0.0
516,0.0
542,0.0
592,7745410.487127082
632,24851561.05568243
686,1.0
687,1.0
688,2.0
2,21, 1,21, 0,13,10.00,20.00,Monday
250,9.475091842362534
251,32669031.03289682
336,0.0
385,19.196286159171507
386,28.336018050801016
387,5.608430927958871
388,0.0
425,0.0
450,0.0
451,0.0
452,14.734926836738122
453,0.0
490,0.0
515,0.0
516,0.0
542,0.0
592,7770439.060057994
632,24737456.306860846
686,1.0
687,1.0
688,2.0
2,21, 1,21, 0,13,20.00,30.00,Monday
250,9.657706065700857
251,32574605.93119268
336,0.0
385,19.196286159171507
386,28.336018050801016
387,5.813308049161236
388,0.0
425,0.0
450,0.0
451,0.0
452,14.91807003910182
453,0.0
490,0.0
515,0.0
516,0.0
542,0.0
592,7795364.67061786
632,24618930.545046117
686,1.0
687,1.0
688,2.0
2,21, 1,21, 0,13,30.00,40.00,Monday
250,9.839962230786858
251,32480400.92658432
336,0.0
385,19.196286159171507
386,28.336018050801016
387,6.008316692841085
388,0.0
425,0.0
450,0.0
451,0.0
452,15.066962579471431
453,0.0
490,0.0
515,0.0
516,0.0
542,0.0
592,7820187.318806678
632,24499722.272238806
686,1.0
687,1.0
688,2.0
2,21, 1,21, 0,13,40.00,50.00,Monday
250,10.02211135922072
251,32386287.14793168
336,0.0
385,19.196286159171507
386,28.336018050801016
387,6.197205754744763
388,0.0
425,0.0
450,0.0
451,0.0
452,15.18624092045894
453,0.0
490,0.0
515,0.0
516,0.0
542,0.0
592,7844907.00462445
632,24380843.860455185
686,1.0
687,1.0
688,2.0
2,21, 1,21, 0,13,50.00,60.00,Monday
250,10.204180981550037
251,32292249.350914646
336,0.0
385,19.196286159171507
386,28.336018050801016
387,6.381275821686186
388,0.0
425,0.0
450,0.0
451,0.0
452,15.279562102279742
453,0.0
490,0.0
515,0.0
516,0.0
542,0.0
592,7869523.728071173
632,24262159.42402885
686,1.0
687,1.0
688,2.0
2,21, 1,21, 0,14, 0.00,10.00,Monday
250,10.403866212417222
251,32188729.980857186
336,0.0
385,19.196286159171507
386,28.336018050801016
387,6.563362249558566
388,0.0
425,0.0
450,0.0
451,0.0
452,15.335542840246571
453,0.0
490,0.0
515,0.0
516,0.0
542,0.0
592,7896260.907308882
632,24141430.513427347
686,1.0
687,1.0
688,2.0
2,21, 1,21, 0,14,10.00,20.00,Monday
250,10.602477391207898
251,32085412.26406237
336,0.0
385,19.196286159171507
386,28.336018050801016
387,6.743595952194686
388,0.0
425,0.0
450,0.0
451,0.0
452,15.335879919208375
453,0.0
490,0.0
515,0.0
516,0.0
542,0.0
592,7922875.552815757
632,24010931.26484857
686,1.0
687,1.0
688,2.0
2,21, 1,21, 0,14,20.00,30.00,Monday
250,10.80069738456081
251,31982301.251304906
336,0.0
385,19.196286159171507
386,28.336018050801016
387,6.919822442172963
388,0.0
425,0.0
450,0.0
451,0.0
452,15.280126762932118
453,0.0
490,0.0
515,0.0
516,0.0
542,0.0
592,7949367.664591794
632,23881130.10109645
686,1.0
687,1.0
688,2.0
2,21, 1,21, 0,14,30.00,40.00,Monday
250,10.998698702491605
251,31879336.980149455
336,0.0
385,19.196286159171507
386,28.336018050801016
387,7.086094743851778
388,0.0
425,0.0
450,0.0
451,0.0
452,15.15777278914205
453,0.0
490,0.0
515,0.0
516,0.0
542,0.0
592,7975737.242637003
632,23751691.555039294
686,1.0
687,1.0
688,2.0
2,21, 1,21, 0,14,40.00,50.00,Monday
250,11.196503275104599
251,31776500.33852242
336,0.0
385,19.196286159171507
386,28.336018050801016
387,7.238720118419529
388,0.0
425,0.0
450,0.0
451,0.0
452,14.949103605213947
453,0.0
490,0.0
515,0.0
516,0.0
542,0.0
592,8001984.286951372
632,23622515.15534337
686,1.0
687,1.0
688,2.0
2,21, 1,21, 0,14,50.00,60.00,Monday
250,11.394193814571187
251,31673747.294197008
336,0.0
385,19.196286159171507
386,28.336018050801016
387,7.377987710343577
388,0.0
425,0.0
450,0.0
451,0.0
452,14.65716868309262
453,0.0
490,0.0
515,0.0
516,0.0
542,0.0
592,8028108.797534912
632,23493589.727497254
686,1.0
687,1.0
688,2.0
2,21, 1,21, 0,15, 0.00,10.00,Monday
250,11.657488186319265
251,31536302.11321619
336,0.0
385,19.196286159171507