Program Version,EnergyPlus, Version 24.2.0-94a887817b, YMD=2025.02.04 15:40
1,5,Environment Title[],Latitude[deg],Longitude[deg],Time Zone[],Elevation[m]
2,8,Day of Simulation[],Month[],Day of Month[],DST Indicator[1=yes 0=no],Hour[],StartMinute[],EndMinute[],DayType
3,5,Cumulative Day of Simulation[],Month[],Day of Month[],DST Indicator[1=yes 0=no],DayType  ! When Daily Meters Requested
4,2,Cumulative Days of Simulation[],Month[]  ! When Monthly Meters Requested
5,1,Cumulative Days of Simulation[] ! When Run Period Meters Requested
6,1,Calendar Year of Simulation[] ! When Annual Meters Requested
11,9,Electricity:Facility [J] !Monthly [Value,Min,Day,Hour,Minute,Max,Day,Hour,Minute]
23,9,Electricity:Building [J] !Monthly [Value,Min,Day,Hour,Minute,Max,Day,Hour,Minute]
59,9,InteriorLights:Electricity [J] !Monthly [Value,Min,Day,Hour,Minute,Max,Day,Hour,Minute]
521,9,Electricity:HVAC [J] !Monthly [Value,Min,Day,Hour,Minute,Max,Day,Hour,Minute]
637,9,NaturalGas:Facility [J] !Monthly [Value,Min,Day,Hour,Minute,Max,Day,Hour,Minute]
649,9,NaturalGas:HVAC [J] !Monthly [Value,Min,Day,Hour,Minute,Max,Day,Hour,Minute]
13,11,Electricity:Facility [J] !RunPeriod [Value,Min,Month,Day,Hour,Minute,Max,Month,Day,Hour,Minute]
25,11,Electricity:Building [J] !RunPeriod [Value,Min,Month,Day,Hour,Minute,Max,Month,Day,Hour,Minute]
61,11,InteriorLights:Electricity [J] !RunPeriod [Value,Min,Month,Day,Hour,Minute,Max,Month,Day,Hour,Minute]
523,11,Electricity:HVAC [J] !RunPeriod [Value,Min,Month,Day,Hour,Minute,Max,Month,Day,Hour,Minute]
639,11,NaturalGas:Facility [J] !RunPeriod [Value,Min,Month,Day,Hour,Minute,Max,Month,Day,Hour,Minute]
651,11,NaturalGas:HVAC [J] !RunPeriod [Value,Min,Month,Day,Hour,Minute,Max,Month,Day,Hour,Minute]
End of Data Dictionary
1,RUN PERIOD 1,  41.98, -87.92,  -6.00, 201.00
4,31, 1
11,9826650361.85527,408891.4285714286, 5, 6,50,2982082.124291767,16,13,60
23,987600260.6243051,30000.0, 1, 1,10,612608.8845103425, 1, 9,10
59,970200000.0,30000.0, 1, 1,10,600000.0, 1, 8,10
521,8839050101.230986,378891.4285714286, 5, 6,50,2369473.239781425,16,13,60
637,178405529003.25122,27958313.73406174,21,16,10,41250000.0, 1, 1,20
649,178405529003.25122,27958313.73406174,21,16,10,41250000.0, 1, 1,20
4,59, 2
11,9359666782.47627,99999999999999.0, 5, 6,50,3023543.564554889,22,15,30
23,863290661.4124342,99999999999999.0, 1, 1,10,-99999999999999.0, 1, 9,10
59,848160000.0,99999999999999.0, 1, 1,10,-99999999999999.0, 1, 8,10
521,8496376121.063895,99999999999999.0, 5, 6,50,2410934.680044547,22,15,30
637,157639918020.99945,26279934.419061296,23,12,10,-99999999999999.0, 1, 1,20
649,157639918020.99945,26279934.419061296,23,12,10,-99999999999999.0, 1, 1,20
4,90, 3
11,10938727226.628231,312608.8845103425,27,18,10,3126317.175279975,27,13,20
23,913367194.4830581,99999999999999.0, 1, 1,10,-99999999999999.0, 1, 9,10
59,897480000.0,99999999999999.0, 1, 1,10,-99999999999999.0, 1, 8,10
521,10025360032.145233,0.0,27,13,40,2513708.2907696324,27,13,20
637,160836332394.1102,0.0,27,13,40,-99999999999999.0, 1, 1,20
649,160836332394.1102,0.0,27,13,40,-99999999999999.0, 1, 1,20
4,120, 4
11,9126148587.720627,30000.0,11,19,10,3133327.8139891373,11,10,50
23,946163727.5536813,99999999999999.0, 1, 1,10,-99999999999999.0, 1, 9,10
59,929520000.0,99999999999999.0, 1, 1,10,-99999999999999.0, 1, 8,10
521,8179984860.167024,99999999999999.0,27,13,40,2520718.929478795,11,10,50
637,116702480597.9718,99999999999999.0,27,13,40,-99999999999999.0, 1, 1,20
649,116702480597.9718,99999999999999.0,27,13,40,-99999999999999.0, 1, 1,20
4,151, 5
11,7927974549.050954,99999999999999.0,11,19,10,-99999999999999.0,11,10,50
23,987918574.7096609,99999999999999.0, 1, 1,10,628459.7352983828,28,13,10
59,970200000.0,99999999999999.0, 1, 1,10,-99999999999999.0, 1, 8,10
521,6940055974.341475,99999999999999.0,27,13,40,-99999999999999.0,11,10,50
637,84530774943.17433,99999999999999.0,27,13,40,-99999999999999.0, 1, 1,20
649,84530774943.17433,99999999999999.0,27,13,40,-99999999999999.0, 1, 1,20
4,181, 6
11,5037276448.969791,99999999999999.0,11,19,10,3134230.462127135,18,16,10
23,872017146.3336276,99999999999999.0, 1, 1,10,-99999999999999.0,28,13,10
59,856800000.0,99999999999999.0, 1, 1,10,-99999999999999.0, 1, 8,10
521,4165259302.636202,99999999999999.0,27,13,40,2522956.6348677143, 4, 3,10
637,31403492371.959663,99999999999999.0,27,13,40,-99999999999999.0, 1, 1,20
649,31403492371.959663,99999999999999.0,27,13,40,-99999999999999.0, 1, 1,20
4,212, 7
11,4346712620.961166,99999999999999.0,11,19,10,3141363.0308502335, 1,13,20
23,987872982.8781943,99999999999999.0, 1, 1,10,-99999999999999.0,28,13,10
59,970200000.0,99999999999999.0, 1, 1,10,-99999999999999.0, 1, 8,10
521,3358839638.0829773,99999999999999.0,27,13,40,2528754.146339891, 1,13,20
637,8667080121.441921,99999999999999.0,27,13,40,-99999999999999.0, 1, 1,20
649,8667080121.441921,99999999999999.0,27,13,40,-99999999999999.0, 1, 1,20
4,243, 8
11,3388122023.2967954,99999999999999.0,11,19,10,-99999999999999.0, 1,13,20
23,950834602.2028021,99999999999999.0, 1, 1,10,650455.0151520078, 6,15,10
59,933840000.0,99999999999999.0, 1, 1,10,-99999999999999.0, 1, 8,10
521,2437287421.093963,99999999999999.0,27,13,40,-99999999999999.0, 1,13,20
637,16062764499.718555,99999999999999.0,27,13,40,-99999999999999.0, 1, 1,20
649,16062764499.718555,99999999999999.0,27,13,40,-99999999999999.0, 1, 1,20
4,273, 9
11,5476558003.893374,99999999999999.0,11,19,10,3143385.022346372,30,13,50
23,909193205.8162293,99999999999999.0, 1, 1,10,-99999999999999.0, 6,15,10
59,893160000.0,99999999999999.0, 1, 1,10,-99999999999999.0, 1, 8,10
521,4567364798.077184,99999999999999.0,27,13,40,2530776.1378360293,30,13,50
637,50236336476.958,99999999999999.0,27,13,40,-99999999999999.0, 1, 1,20
649,50236336476.958,99999999999999.0,27,13,40,-99999999999999.0, 1, 1,20
4,304,10
11,10198716639.657269,99999999999999.0,11,19,10,3146130.026828742, 9,12,20
23,987600260.6243051,99999999999999.0, 1, 1,10,-99999999999999.0, 6,15,10
59,970200000.0,99999999999999.0, 1, 1,10,-99999999999999.0, 1, 8,10
521,9211116379.033009,99999999999999.0,27,13,40,2533521.1423183996, 9,12,20
637,123911906991.43263,99999999999999.0,27,13,40,-99999999999999.0, 1, 1,20
649,123911906991.43263,99999999999999.0,27,13,40,-99999999999999.0, 1, 1,20
4,334,11
11,10291649816.080288,99999999999999.0,11,19,10,-99999999999999.0, 9,12,20
23,909200009.3042758,99999999999999.0, 1, 1,10,-99999999999999.0, 6,15,10
59,893160000.0,99999999999999.0, 1, 1,10,-99999999999999.0, 1, 8,10
521,9382449806.776043,99999999999999.0,27,13,40,-99999999999999.0, 9,12,20
637,145051021187.31696,99999999999999.0,27,13,40,-99999999999999.0, 1, 1,20
649,145051021187.31696,99999999999999.0,27,13,40,-99999999999999.0, 1, 1,20
4,365,12
11,10439434347.937452,99999999999999.0,11,19,10,-99999999999999.0, 9,12,20
23,950483727.5536816,99999999999999.0, 1, 1,10,-99999999999999.0, 6,15,10
59,933840000.0,99999999999999.0, 1, 1,10,-99999999999999.0, 1, 8,10
521,9488950620.383821,99999999999999.0,27,13,40,-99999999999999.0, 9,12,20
637,179194546790.2996,99999999999999.0,27,13,40,-99999999999999.0, 1, 1,20
649,179194546790.2996,99999999999999.0,27,13,40,-99999999999999.0, 1, 1,20
5,365
13,96357637408.54446,30000.0, 4,11,19,10,3146130.026828742,10, 9,12,20
25,11265542353.493456,30000.0, 1, 1, 1,10,650455.0151520078, 8, 6,15,10
61,11066760000.0,30000.0, 1, 1, 1,10,600000.0, 1, 1, 8,10
523,85092095055.03574,0.0, 3,27,13,40,2533521.1423183996,10, 9,12,20
639,1252642183398.6335,0.0, 3,27,13,40,41250000.0, 1, 1, 1,20
651,1252642183398.6335,0.0, 3,27,13,40,41250000.0, 1, 1, 1,20
1,RUN PERIOD 2,  41.98, -87.92,  -6.00, 201.00
4,1, 7
11,87696575.58051065,99999999999999.0,11,19,10,-99999999999999.0, 9,12,20
23,41436533.070620574,99999999999999.0, 1, 1,10,-99999999999999.0, 6,15,10
59,40680000.0,99999999999999.0, 1, 1,10,-99999999999999.0, 1, 8,10
521,46260042.50989016,99999999999999.0,27,13,40,-99999999999999.0, 9,12,20
637,0.0,99999999999999.0,27,13,40,-99999999999999.0, 1, 1,20
649,0.0,99999999999999.0,27,13,40,-99999999999999.0, 1, 1,20
5,1
13,87696575.58051065,99999999999999.0, 4,11,19,10,-99999999999999.0,10, 9,12,20
25,41436533.070620574,99999999999999.0, 1, 1, 1,10,-99999999999999.0, 8, 6,15,10
61,40680000.0,99999999999999.0, 1, 1, 1,10,-99999999999999.0, 1, 1, 8,10
523,46260042.50989016,99999999999999.0, 3,27,13,40,-99999999999999.0,10, 9,12,20
639,0.0,99999999999999.0, 3,27,13,40,-99999999999999.0, 1, 1, 1,20
651,0.0,99999999999999.0, 3,27,13,40,-99999999999999.0, 1, 1, 1,20
End of Data
 Number of Records Written=          90
