Program Version,EnergyPlus, Version 24.2.0-94a887817b, YMD=2025.02.04 17:21
1,5,Environment Title[],Latitude[deg],Longitude[deg],Time Zone[],Elevation[m]
2,8,Day of Simulation[],Month[],Day of Month[],DST Indicator[1=yes 0=no],Hour[],StartMinute[],EndMinute[],DayType
3,5,Cumulative Day of Simulation[],Month[],Day of Month[],DST Indicator[1=yes 0=no],DayType  ! When Daily Meters Requested
4,2,Cumulative Days of Simulation[],Month[]  ! When Monthly Meters Requested
5,1,Cumulative Days of Simulation[] ! When Run Period Meters Requested
6,1,Calendar Year of Simulation[] ! When Annual Meters Requested
11,9,Electricity:Facility [J] !Monthly [Value,Min,Day,Hour,Minute,Max,Day,Hour,Minute]
23,9,Electricity:Building [J] !Monthly [Value,Min,Day,Hour,Minute,Max,Day,Hour,Minute]
59,9,InteriorLights:Electricity [J] !Monthly [Value,Min,Day,Hour,Minute,Max,Day,Hour,Minute]
521,9,Electricity:HVAC [J] !Monthly [Value,Min,Day,Hour,Minute,Max,Day,Hour,Minute]
637,9,NaturalGas:Facility [J] !Monthly [Value,Min,Day,Hour,Minute,Max,Day,Hour,Minute]
649,9,NaturalGas:HVAC [J] !Monthly [Value,Min,Day,Hour,Minute,Max,Day,Hour,Minute]
13,11,Electricity:Facility [J] !RunPeriod [Value,Min,Month,Day,Hour,Minute,Max,Month,Day,Hour,Minute]
25,11,Electricity:Building [J] !RunPeriod [Value,Min,Month,Day,Hour,Minute,Max,Month,Day,Hour,Minute]
61,11,InteriorLights:Electricity [J] !RunPeriod [Value,Min,Month,Day,Hour,Minute,Max,Month,Day,Hour,Minute]
523,11,Electricity:HVAC [J] !RunPeriod [Value,Min,Month,Day,Hour,Minute,Max,Month,Day,Hour,Minute]
639,11,NaturalGas:Facility [J] !RunPeriod [Value,Min,Month,Day,Hour,Minute,Max,Month,Day,Hour,Minute]
651,11,NaturalGas:HVAC [J] !RunPeriod [Value,Min,Month,Day,Hour,Minute,Max,Month,Day,Hour,Minute]
End of Data Dictionary
1,YEARSIMULATION,  41.98, -87.92,  -6.00, 201.00
4,31, 1
11,8956278592.81794,277976.8056035314,11,20,10,3570593.6442394126,26,15,10
23,1953773478.457283,108407.99808608579,11,20,30,1086524.7829018526,31,14,50
59,992023859.7611037,30674.825595579834, 1, 1,10,613496.5119115968, 1, 8,10
521,7002505114.360683,0.0,11,13,50,2573870.3728012173,27,20,10
637,15896827425.586882,0.0, 1,10,40,19773544.621550784,31, 7,30
649,15896827425.586882,0.0, 1,10,40,19773544.621550784,31, 7,30
4,59, 2
11,7405604198.166693,249931.59678272705,11,15,10,-99999999999999.0,26,15,10
23,1722588766.476968,99999999999999.0,11,20,30,-99999999999999.0,31,14,50
59,867238669.2382495,99999999999999.0, 1, 1,10,-99999999999999.0, 1, 8,10
521,5683015431.689776,99999999999999.0,11,13,50,2581561.4902603254, 5, 4,20
637,12991744897.88092,99999999999999.0, 1,10,40,20763231.794299413, 3, 8,20
649,12991744897.88092,99999999999999.0, 1,10,40,20763231.794299413, 3, 8,20
4,90, 3
11,7353378886.984039,93561.00562965736,31,16,60,-99999999999999.0,26,15,10
23,1872989927.5261536,93561.00562965736,31,16,60,-99999999999999.0,31,14,50
59,954845971.139241,99999999999999.0, 1, 1,10,-99999999999999.0, 1, 8,10
521,5480388959.457899,99999999999999.0,11,13,50,-99999999999999.0, 5, 4,20
637,9543809490.63307,99999999999999.0, 1,10,40,-99999999999999.0, 3, 8,20
649,9543809490.63307,99999999999999.0, 1,10,40,-99999999999999.0, 3, 8,20
4,120, 4
11,4341055720.264481,30674.825595579834,12,19,10,-99999999999999.0,26,15,10
23,1699125213.7339041,30674.825595579834, 5, 3,50,-99999999999999.0,31,14,50
59,913250907.631645,99999999999999.0, 1, 1,10,-99999999999999.0, 1, 8,10
521,2641930506.530591,99999999999999.0,11,13,50,-99999999999999.0, 5, 4,20
637,3897320442.1790934,99999999999999.0, 1,10,40,-99999999999999.0, 3, 8,20
649,3897320442.1790934,99999999999999.0, 1,10,40,-99999999999999.0, 3, 8,20
4,151, 5
11,3195075332.287702,99999999999999.0,12,19,10,-99999999999999.0,26,15,10
23,1743156524.0796604,99999999999999.0, 5, 3,50,-99999999999999.0,31,14,50
59,992023859.7611037,99999999999999.0, 1, 1,10,-99999999999999.0, 1, 8,10
521,1451918808.2080433,99999999999999.0,11,13,50,-99999999999999.0, 5, 4,20
637,883994871.4165677,99999999999999.0, 1,10,40,-99999999999999.0, 3, 8,20
649,883994871.4165677,99999999999999.0, 1,10,40,-99999999999999.0, 3, 8,20
4,181, 6
11,3070898859.268431,99999999999999.0,12,19,10,-99999999999999.0,26,15,10
23,1535201959.9755213,99999999999999.0, 5, 3,50,-99999999999999.0,31,14,50
59,913250907.63164,99999999999999.0, 1, 1,10,-99999999999999.0, 1, 8,10
521,1535696899.292923,99999999999999.0,11,13,50,-99999999999999.0, 5, 4,20
637,35243713.47425365,99999999999999.0, 1,10,40,-99999999999999.0, 3, 8,20
649,35243713.47425365,99999999999999.0, 1,10,40,-99999999999999.0, 3, 8,20
4,212, 7
11,3778126400.657608,99999999999999.0,12,19,10,-99999999999999.0,26,15,10
23,1538183181.1039443,99999999999999.0, 5, 3,50,-99999999999999.0,31,14,50
59,954845971.1392562,99999999999999.0, 1, 1,10,-99999999999999.0, 1, 8,10
521,2239943219.553698,99999999999999.0,11,13,50,-99999999999999.0, 5, 4,20
637,0.0,99999999999999.0, 1,10,40,-99999999999999.0, 3, 8,20
649,0.0,99999999999999.0, 1,10,40,-99999999999999.0, 3, 8,20
4,243, 8
11,3470920996.625739,99999999999999.0,12,19,10,-99999999999999.0,26,15,10
23,1626098950.8867698,99999999999999.0, 5, 3,50,-99999999999999.0,31,14,50
59,992023859.7610997,99999999999999.0, 1, 1,10,-99999999999999.0, 1, 8,10
521,1844822045.7389903,99999999999999.0,11,13,50,-99999999999999.0, 5, 4,20
637,9317851.016633525,99999999999999.0, 1,10,40,-99999999999999.0, 3, 8,20
649,9317851.016633525,99999999999999.0, 1,10,40,-99999999999999.0, 3, 8,20
4,273, 9
11,2647556020.229091,99999999999999.0,12,19,10,-99999999999999.0,26,15,10
23,1501958052.1348114,99999999999999.0, 5, 3,50,-99999999999999.0,31,14,50
59,876073019.0097976,99999999999999.0, 1, 1,10,-99999999999999.0, 1, 8,10
521,1145597968.0942876,99999999999999.0,11,13,50,-99999999999999.0, 5, 4,20
637,59046702.731385075,99999999999999.0, 1,10,40,-99999999999999.0, 3, 8,20
649,59046702.731385075,99999999999999.0, 1,10,40,-99999999999999.0, 3, 8,20
4,304,10
11,3530845646.768339,99999999999999.0,12,19,10,-99999999999999.0,26,15,10
23,1788071651.849921,99999999999999.0, 5, 3,50,-99999999999999.0,31,14,50
59,992023859.7611037,99999999999999.0, 1, 1,10,-99999999999999.0, 1, 8,10
521,1742773994.918419,99999999999999.0,11,13,50,-99999999999999.0, 5, 4,20
637,2045236367.7960062,99999999999999.0, 1,10,40,-99999999999999.0, 3, 8,20
649,2045236367.7960062,99999999999999.0, 1,10,40,-99999999999999.0, 3, 8,20
4,334,11
11,6097161742.640346,99999999999999.0,12,19,10,-99999999999999.0,26,15,10
23,1809874790.9541755,99999999999999.0, 5, 3,50,-99999999999999.0,31,14,50
59,950428796.2534721,99999999999999.0, 1, 1,10,-99999999999999.0, 1, 8,10
521,4287286951.6861563,99999999999999.0,11,13,50,-99999999999999.0, 5, 4,20
637,8002732207.671299,99999999999999.0, 1,10,40,-99999999999999.0, 3, 8,20
649,8002732207.671299,99999999999999.0, 1,10,40,-99999999999999.0, 3, 8,20
4,365,12
11,7609994769.792261,99999999999999.0,12,19,10,-99999999999999.0,26,15,10
23,1792036741.3464983,99999999999999.0, 5, 3,50,-99999999999999.0,31,14,50
59,917668082.5174088,99999999999999.0, 1, 1,10,-99999999999999.0, 1, 8,10
521,5817958028.445758,99999999999999.0,11,13,50,-99999999999999.0, 5, 4,20
637,9910469460.029907,99999999999999.0, 1,10,40,-99999999999999.0, 3, 8,20
649,9910469460.029907,99999999999999.0, 1,10,40,-99999999999999.0, 3, 8,20
5,365
13,61456897166.5016,30674.825595579834, 4,12,19,10,3570593.6442394126, 1,26,15,10
25,20583059238.525753,30674.825595579834, 4, 5, 3,50,1086524.7829018526, 1,31,14,50
61,11315697763.606842,30674.825595579834, 1, 1, 1,10,613496.5119115968, 1, 1, 8,10
523,40873837927.97735,0.0, 1,11,13,50,2581561.4902603254, 2, 5, 4,20
639,63275743430.415955,0.0, 1, 1,10,40,20763231.794299413, 2, 3, 8,20
651,63275743430.415955,0.0, 1, 1,10,40,20763231.794299413, 2, 3, 8,20
End of Data
 Number of Records Written=          78
