Program Version,EnergyPlus, Version 24.2.0-94a887817b, YMD=2025.02.04 17:10
1,5,Environment Title[],Latitude[deg],Longitude[deg],Time Zone[],Elevation[m]
2,8,Day of Simulation[],Month[],Day of Month[],DST Indicator[1=yes 0=no],Hour[],StartMinute[],EndMinute[],DayType
3,5,Cumulative Day of Simulation[],Month[],Day of Month[],DST Indicator[1=yes 0=no],DayType  ! When Daily Meters Requested
4,2,Cumulative Days of Simulation[],Month[]  ! When Monthly Meters Requested
5,1,Cumulative Days of Simulation[] ! When Run Period Meters Requested
6,1,Calendar Year of Simulation[] ! When Annual Meters Requested
11,9,Electricity:Facility [J] !Monthly [Value,Min,Day,Hour,Minute,Max,Day,Hour,Minute]
23,9,Electricity:Building [J] !Monthly [Value,Min,Day,Hour,Minute,Max,Day,Hour,Minute]
59,9,InteriorLights:Electricity [J] !Monthly [Value,Min,Day,Hour,Minute,Max,Day,Hour,Minute]
521,9,Electricity:HVAC [J] !Monthly [Value,Min,Day,Hour,Minute,Max,Day,Hour,Minute]
637,9,NaturalGas:Facility [J] !Monthly [Value,Min,Day,Hour,Minute,Max,Day,Hour,Minute]
649,9,NaturalGas:HVAC [J] !Monthly [Value,Min,Day,Hour,Minute,Max,Day,Hour,Minute]
13,11,Electricity:Facility [J] !RunPeriod [Value,Min,Month,Day,Hour,Minute,Max,Month,Day,Hour,Minute]
25,11,Electricity:Building [J] !RunPeriod [Value,Min,Month,Day,Hour,Minute,Max,Month,Day,Hour,Minute]
61,11,InteriorLights:Electricity [J] !RunPeriod [Value,Min,Month,Day,Hour,Minute,Max,Month,Day,Hour,Minute]
523,11,Electricity:HVAC [J] !RunPeriod [Value,Min,Month,Day,Hour,Minute,Max,Month,Day,Hour,Minute]
639,11,NaturalGas:Facility [J] !RunPeriod [Value,Min,Month,Day,Hour,Minute,Max,Month,Day,Hour,Minute]
651,11,NaturalGas:HVAC [J] !RunPeriod [Value,Min,Month,Day,Hour,Minute,Max,Month,Day,Hour,Minute]
End of Data Dictionary
1,YEARSIMULATION,  41.98, -87.92,  -6.00, 201.00
4,31, 1
11,9525966990.171673,438892.4804215063,11,19,60,3502249.100898107,23,13,60
23,1854017985.998998,111424.85065760446,11,20,60,1009558.7487622162,31,14,20
59,950430834.0318137,29388.7085353052, 1, 1,10,587774.1707061039, 1, 8,10
521,7671949004.172716,0.0,11,13,50,2580566.0310358116,27,19,40
637,18055100294.11458,0.0, 1,11,40,21016962.164239034,31, 7,30
649,18055100294.11458,0.0, 1,11,40,21016962.164239034,31, 7,30
4,59, 2
11,7969809258.428644,263598.7238594248,11,16,10,3526404.2373417285, 2,16,60
23,1636358360.4310338,99999999999999.0,11,20,60,-99999999999999.0,31,14,20
59,830877567.7101775,99999999999999.0, 1, 1,10,-99999999999999.0, 1, 8,10
521,6333450897.997644,99999999999999.0,11,13,50,2616155.20760285, 5, 1,60
637,14515272406.850292,99999999999999.0, 1,11,40,22071992.434851617, 3, 7,60
649,14515272406.850292,99999999999999.0, 1,11,40,22071992.434851617, 3, 7,60
4,90, 3
11,8031514153.303416,99402.14684851555,31,16,50,-99999999999999.0, 2,16,60
23,1778080633.3517096,96131.83266201493,31,16,60,-99999999999999.0,31,14,20
59,914811719.2870175,99999999999999.0, 1, 1,10,-99999999999999.0, 1, 8,10
521,6253433519.951702,99999999999999.0,11,13,50,-99999999999999.0, 5, 1,60
637,10928126097.206886,99999999999999.0, 1,11,40,-99999999999999.0, 3, 7,60
649,10928126097.206886,99999999999999.0, 1,11,40,-99999999999999.0, 3, 7,60
4,120, 4
11,4770162737.792279,29388.7085353052,12,19,10,-99999999999999.0, 2,16,60
23,1617030755.1525097,29388.7085353052,12,19,10,-99999999999999.0,31,14,20
59,874960630.5131431,99999999999999.0, 1, 1,10,-99999999999999.0, 1, 8,10
521,3153131982.639762,99999999999999.0,11,13,50,-99999999999999.0, 5, 1,60
637,4493218897.949956,99999999999999.0, 1,11,40,-99999999999999.0, 3, 7,60
649,4493218897.949956,99999999999999.0, 1,11,40,-99999999999999.0, 3, 7,60
4,151, 5
11,3069291208.4480577,99999999999999.0,12,19,10,-99999999999999.0, 2,16,60
23,1656494566.4576392,99999999999999.0,12,19,10,-99999999999999.0,31,14,20
59,950430834.0318137,99999999999999.0, 1, 1,10,-99999999999999.0, 1, 8,10
521,1412796641.9904268,99999999999999.0,11,13,50,-99999999999999.0, 5, 1,60
637,1234817467.376299,99999999999999.0, 1,11,40,-99999999999999.0, 3, 7,60
649,1234817467.376299,99999999999999.0, 1,11,40,-99999999999999.0, 3, 7,60
4,181, 6
11,2686323784.4082537,99999999999999.0,12,19,10,-99999999999999.0, 2,16,60
23,1460365675.3581376,99999999999999.0,12,19,10,-99999999999999.0,31,14,20
59,874960630.5131423,99999999999999.0, 1, 1,10,-99999999999999.0, 1, 8,10
521,1225958109.0501022,99999999999999.0,11,13,50,-99999999999999.0, 5, 1,60
637,93484299.7736803,99999999999999.0, 1,11,40,-99999999999999.0, 3, 7,60
649,93484299.7736803,99999999999999.0, 1,11,40,-99999999999999.0, 3, 7,60
4,212, 7
11,3208305048.9784217,99999999999999.0,12,19,10,-99999999999999.0, 2,16,60
23,1477257744.8434958,99999999999999.0,12,19,10,-99999999999999.0,31,14,20
59,914811719.2870204,99999999999999.0, 1, 1,10,-99999999999999.0, 1, 8,10
521,1731047304.1349168,99999999999999.0,11,13,50,-99999999999999.0, 5, 1,60
637,7404024.113370078,99999999999999.0, 1,11,40,-99999999999999.0, 3, 7,60
649,7404024.113370078,99999999999999.0, 1,11,40,-99999999999999.0, 3, 7,60
4,243, 8
11,2932000384.6716394,99999999999999.0,12,19,10,-99999999999999.0, 2,16,60
23,1557190800.7572124,99999999999999.0,12,19,10,-99999999999999.0,31,14,20
59,950430834.0318097,99999999999999.0, 1, 1,10,-99999999999999.0, 1, 8,10
521,1374809583.914439,99999999999999.0,11,13,50,-99999999999999.0, 5, 1,60
637,22503167.24846051,99999999999999.0, 1,11,40,-99999999999999.0, 3, 7,60
649,22503167.24846051,99999999999999.0, 1,11,40,-99999999999999.0, 3, 7,60
4,273, 9
11,2380980365.4499984,99999999999999.0,12,19,10,-99999999999999.0, 2,16,60
23,1433613820.9200509,99999999999999.0,12,19,10,-99999999999999.0,31,14,20
59,839341515.7683498,99999999999999.0, 1, 1,10,-99999999999999.0, 1, 8,10
521,947366544.5299399,99999999999999.0,11,13,50,-99999999999999.0, 5, 1,60
637,111663762.33689427,99999999999999.0, 1,11,40,-99999999999999.0, 3, 7,60
649,111663762.33689427,99999999999999.0, 1,11,40,-99999999999999.0, 3, 7,60
4,304,10
11,3735936359.3915124,99999999999999.0,12,19,10,-99999999999999.0, 2,16,60
23,1691308117.7819486,99999999999999.0,12,19,10,-99999999999999.0,31,14,20
59,950430834.0318137,99999999999999.0, 1, 1,10,-99999999999999.0, 1, 8,10
521,2044628241.6095667,99999999999999.0,11,13,50,-99999999999999.0, 5, 1,60
637,2631938073.7535663,99999999999999.0, 1,11,40,-99999999999999.0, 3, 7,60
649,2631938073.7535663,99999999999999.0, 1,11,40,-99999999999999.0, 3, 7,60
4,334,11
11,6684749854.884131,99999999999999.0,12,19,10,-99999999999999.0, 2,16,60
23,1714200268.247762,99999999999999.0,12,19,10,-99999999999999.0,31,14,20
59,910579745.2579323,99999999999999.0, 1, 1,10,-99999999999999.0, 1, 8,10
521,4970549586.636366,99999999999999.0,11,13,50,-99999999999999.0, 5, 1,60
637,9272184593.00056,99999999999999.0, 1,11,40,-99999999999999.0, 3, 7,60
649,9272184593.00056,99999999999999.0, 1,11,40,-99999999999999.0, 3, 7,60
4,365,12
11,8297031828.804741,99999999999999.0,12,19,10,-99999999999999.0, 2,16,60
23,1701930353.1982884,99999999999999.0,12,19,10,-99999999999999.0,31,14,20
59,879192604.5422271,99999999999999.0, 1, 1,10,-99999999999999.0, 1, 8,10
521,6595101475.606469,99999999999999.0,11,13,50,-99999999999999.0, 5, 1,60
637,11140975549.491076,99999999999999.0, 1,11,40,-99999999999999.0, 3, 7,60
649,11140975549.491076,99999999999999.0, 1,11,40,-99999999999999.0, 3, 7,60
5,365
13,63292071974.732346,29388.7085353052, 4,12,19,10,3526404.2373417285, 2, 2,16,60
25,19577849082.501026,29388.7085353052, 4,12,19,10,1009558.7487622162, 1,31,14,20
61,10841259469.006475,29388.7085353052, 1, 1, 1,10,587774.1707061039, 1, 1, 8,10
523,43714222892.23375,0.0, 1,11,13,50,2616155.20760285, 2, 5, 1,60
639,72506688633.21535,0.0, 1, 1,11,40,22071992.434851617, 2, 3, 7,60
651,72506688633.21535,0.0, 1, 1,11,40,22071992.434851617, 2, 3, 7,60
End of Data
 Number of Records Written=          78
