Program Version,EnergyPlus, Version 24.2.0-94a887817b, YMD=2025.02.04 17:10
1,5,Environment Title[],Latitude[deg],Longitude[deg],Time Zone[],Elevation[m]
2,8,Day of Simulation[],Month[],Day of Month[],DST Indicator[1=yes 0=no],Hour[],StartMinute[],EndMinute[],DayType
3,5,Cumulative Day of Simulation[],Month[],Day of Month[],DST Indicator[1=yes 0=no],DayType  ! When Daily Report Variables Requested
4,2,Cumulative Days of Simulation[],Month[]  ! When Monthly Report Variables Requested
5,1,Cumulative Days of Simulation[] ! When Run Period Report Variables Requested
6,1,Calendar Year of Simulation[] ! When Annual Report Variables Requested
250,1,LIVING ZONE,Zone Air Temperature [C] !TimeStep,REPORTSCH
251,1,LIVING ZONE,Zone Air System Sensible Heating Energy [J] !TimeStep,REPORTSCH
336,1,LIVING ZONE,Zone Air System Sensible Cooling Energy [J] !TimeStep,REPORTSCH
385,1,LIVING ZONE,Zone Thermostat Heating Setpoint Temperature [C] !TimeStep,REPORTSCH
386,1,LIVING ZONE,Zone Thermostat Cooling Setpoint Temperature [C] !TimeStep,REPORTSCH
387,1,GARAGE ZONE,Zone Air Temperature [C] !TimeStep,REPORTSCH
388,1,GARAGE ZONE,Zone Air System Sensible Heating Energy [J] !TimeStep,REPORTSCH
425,1,GARAGE ZONE,Zone Air System Sensible Cooling Energy [J] !TimeStep,REPORTSCH
450,1,GARAGE ZONE,Zone Thermostat Heating Setpoint Temperature [C] !TimeStep,REPORTSCH
451,1,GARAGE ZONE,Zone Thermostat Cooling Setpoint Temperature [C] !TimeStep,REPORTSCH
452,1,ATTIC ZONE,Zone Air Temperature [C] !TimeStep,REPORTSCH
453,1,ATTIC ZONE,Zone Air System Sensible Heating Energy [J] !TimeStep,REPORTSCH
490,1,ATTIC ZONE,Zone Air System Sensible Cooling Energy [J] !TimeStep,REPORTSCH
515,1,ATTIC ZONE,Zone Thermostat Heating Setpoint Temperature [C] !TimeStep,REPORTSCH
516,1,ATTIC ZONE,Zone Thermostat Cooling Setpoint Temperature [C] !TimeStep,REPORTSCH
542,1,ACDXCOIL 1,Cooling Coil Total Cooling Energy [J] !TimeStep,REPORTSCH
592,1,HEAT PUMP DX HEATING COIL 1,Heating Coil Heating Energy [J] !TimeStep,REPORTSCH
632,1,SUPP HEATING COIL 1,Heating Coil Heating Energy [J] !TimeStep,REPORTSCH
686,1,TWOSPEED HEAT PUMP 1,Unitary System DX Coil Cycling Ratio [] !TimeStep,REPORTSCH
687,1,TWOSPEED HEAT PUMP 1,Unitary System DX Coil Speed Ratio [] !TimeStep,REPORTSCH
688,1,TWOSPEED HEAT PUMP 1,Unitary System DX Coil Speed Level [] !TimeStep,REPORTSCH
End of Data Dictionary
1,YEARSIMULATION,  41.98, -87.92,  -6.00, 201.00
2,21, 1,21, 0, 1, 0.00,10.00,Sunday
250,24.881647654564123
251,7651710.955751487
336,0.0
385,25.34
386,28.63
387,0.6691582683819235
388,0.0
425,0.0
450,0.0
451,0.0
452,-1.5690503043107433
453,0.0
490,0.0
515,0.0
516,0.0
542,0.0
592,4876118.623349026
632,3304729.0976317246
686,1.0
687,1.0
688,2.0
2,21, 1,21, 0, 1,10.00,20.00,Sunday
250,25.29656322523693
251,8774081.628001284
336,0.0
385,25.34
386,28.63
387,0.640477671991281
388,0.0
425,0.0
450,0.0
451,0.0
452,-1.5582380461969945
453,0.0
490,0.0
515,0.0
516,0.0
542,0.0
592,4860297.128483824
632,3774978.7683424307
686,1.0
687,1.0
688,2.0
2,21, 1,21, 0, 1,20.00,30.00,Sunday
250,24.19523526136775
251,6635329.017984793
336,0.0
385,24.006666666666685
386,28.630000000000017
387,0.6173363807225452
388,0.0
425,0.0
450,0.0
451,0.0
452,-1.5511665137169268
453,0.0
490,0.0
515,0.0
516,0.0
542,0.0
592,2743426.1737055853
632,3810128.7619291446
686,0.5918890419780727
687,0.5000000000000004
688,1.1666666666666674
2,21, 1,21, 0, 1,30.00,40.00,Sunday
250,24.645606473967757
251,6562782.351325151
336,0.0
385,24.67333333333335
386,28.63000000000002
387,0.5931040484663986
388,0.0
425,0.0
450,0.0
451,0.0
452,-1.5455838767565946
453,0.0
490,0.0
515,0.0
516,0.0
542,0.0
592,3640861.608985937
632,2822711.843072953
686,0.7877270483457801
687,0.6666666666666672
688,1.6666666666666679
2,21, 1,21, 0, 1,40.00,50.00,Sunday
250,24.883773792653955
251,7724797.055632183
336,0.0
385,25.34
386,28.63
387,0.5641248601019707
388,0.0
425,0.0
450,0.0
451,0.0
452,-1.540890586760373
453,0.0
490,0.0
515,0.0
516,0.0
542,0.0
592,4812841.120457529
632,3439653.0990043962
686,1.0
687,1.0
688,2.0
2,21, 1,21, 0, 1,50.00,60.00,Sunday
250,25.29682187639024
251,8846707.051522281
336,0.0
385,25.34
386,28.63
387,0.5385848833612225
388,0.0
425,0.0
450,0.0
451,0.0
452,-1.538556356771322
453,0.0
490,0.0
515,0.0
516,0.0
542,0.0
592,4797025.27600521
632,3910332.888762043
686,1.0
687,1.0
688,2.0
2,21, 1,21, 0, 2, 0.00,10.00,Sunday
250,24.19239509521115
251,6690779.6801574975
336,0.0
385,24.006666666666664
386,28.630000000000003
387,0.517017984374062
388,0.0
425,0.0
450,0.0
451,0.0
452,-1.539356564894066
453,0.0
490,0.0
515,0.0
516,0.0
542,0.0
592,2728994.107509057
632,3880845.469496345
686,0.5954831838063493
687,0.5
688,1.1666666666666667
2,21, 1,21, 0, 2,10.00,20.00,Sunday
250,24.646381558306928
251,6608064.314169778
336,0.0
385,24.673333333333332
386,28.63
387,0.4939369202144156
388,0.0
425,0.0
450,0.0
451,0.0
452,-1.5432788300128206
453,0.0
490,0.0
515,0.0
516,0.0
542,0.0
592,3631150.089462337
632,2874080.1612929474
686,0.7918125969284673
687,0.6666666666666667
688,1.6666666666666667
2,21, 1,21, 0, 2,20.00,30.00,Sunday
250,24.884850484712892
251,7751234.414322476
336,0.0
385,25.34
386,28.63
387,0.46576977304546274
388,0.0
425,0.0
450,0.0
451,0.0
452,-1.5514632705344493
453,0.0
490,0.0
515,0.0
516,0.0
542,0.0
592,4797025.2760052085
632,3481153.0006535193
686,1.0
687,1.0
688,2.0
2,21, 1,21, 0, 2,30.00,40.00,Sunday
250,25.29693450603692
251,8858510.775832076
336,0.0
385,25.34
386,28.63
387,0.4405161247094884
388,0.0
425,0.0
450,0.0
451,0.0
452,-1.5622704750053078
453,0.0
490,0.0
515,0.0
516,0.0
542,0.0
592,4797025.27600521
632,3921864.9363264297
686,1.0
687,1.0
688,2.0
2,21, 1,21, 0, 2,40.00,50.00,Sunday
250,24.191946699739482
251,6699506.879135447
336,0.0
385,24.006666666666632
386,28.629999999999963
387,0.41873617581054245
388,0.0
425,0.0
450,0.0
451,0.0
452,-1.5753472025743656
453,0.0
490,0.0
515,0.0
516,0.0
542,0.0
592,2730571.775902814
632,3888146.985545544
686,0.5959389975742637
687,0.49999999999999933
688,1.166666666666665
2,21, 1,21, 0, 2,50.00,60.00,Sunday
250,24.646483897096086
251,6616318.900634318
336,0.0
385,24.67333333333335
386,28.63000000000002
387,0.3951423083621486
388,0.0
425,0.0
450,0.0
451,0.0
452,-1.5916462831487208
453,0.0
490,0.0
515,0.0
516,0.0
542,0.0
592,3632980.8312407797
632,2880055.0440534446
686,0.7923415562934231
687,0.6666666666666672
688,1.6666666666666679
2,21, 1,21, 0, 3, 0.00,10.00,Sunday
250,24.8852497171858
251,7771021.86519596
336,0.0
385,25.34
386,28.63
387,0.3666216694612781
388,0.0
425,0.0
450,0.0
451,0.0
452,-1.6105455670342554
453,0.0
490,0.0
515,0.0
516,0.0
542,0.0
592,4797025.27600521
632,3501020.123908166
686,1.0
687,1.0
688,2.0
2,21, 1,21, 0, 3,10.00,20.00,Sunday
250,25.296992696314163
251,8889003.093332397
336,0.0
385,25.34
386,28.63
387,0.3419562535659515
388,0.0
425,0.0
450,0.0
451,0.0
452,-1.6227352075424646
453,0.0
490,0.0
515,0.0
516,0.0
542,0.0
592,4797025.27600521
632,3952260.028486006
686,1.0
687,1.0
688,2.0
2,21, 1,21, 0, 3,20.00,30.00,Sunday
250,24.18984663535585
251,6739455.309545909
336,0.0
385,24.006666666666685
386,28.630000000000017
387,0.32181684552482037
388,0.0
425,0.0
450,0.0
451,0.0
452,-1.6269132281883265
453,0.0
490,0.0
515,0.0
516,0.0
542,0.0
592,2737593.6938149286
632,3921784.2296607564
686,0.597967760610177
687,0.5000000000000004
688,1.1666666666666674
2,21, 1,21, 0, 3,30.00,40.00,Sunday
250,24.647344171081663
251,6671986.364541253
336,0.0
385,24.67333333333335
386,28.63000000000002
387,0.3010180666334932
388,0.0
425,0.0
450,0.0
451,0.0
452,-1.6268717769013383
453,0.0
490,0.0
515,0.0
516,0.0
542,0.0
592,3648026.29659738
632,2916665.787533863
686,0.7966886684280722
687,0.6666666666666672
688,1.6666666666666679
2,21, 1,21, 0, 3,40.00,50.00,Sunday
250,24.886477644886217
251,7822140.591385522
336,0.0
385,25.34
386,28.63
387,0.2765805224994128
388,0.0
425,0.0
450,0.0
451,0.0
452,-1.6223278471893852
453,0.0
490,0.0
515,0.0
516,0.0
542,0.0
592,4797025.2760052085
632,3551332.546346552
686,1.0
687,1.0
688,2.0
2,21, 1,21, 0, 3,50.00,60.00,Sunday
250,25.297140384087136
251,8939025.9196969
336,0.0
385,25.34
386,28.63
387,0.25585525369951834
388,0.0
425,0.0
450,0.0
451,0.0
452,-1.6146648953767009
453,0.0
490,0.0
515,0.0
516,0.0
542,0.0
592,4797025.27600521
632,4001967.623236838
686,1.0
687,1.0
688,2.0
2,21, 1,21, 0, 4, 0.00,10.00,Sunday
250,24.18357243542411
251,6858245.091394561
336,0.0
385,24.006666666666664
386,28.630000000000003
387,0.23466931311735112
388,0.0
425,0.0
450,0.0
451,0.0
452,-1.6069594920588806
453,0.0
490,0.0
515,0.0
516,0.0
542,0.0
592,2755822.0306797526
632,4024462.9435847057
686,0.6040891105508971
687,0.5
688,1.1666666666666667
2,21, 1,21, 0, 4,10.00,20.00,Sunday
250,24.65066148882383
251,6873748.698219873
336,0.0
385,24.673333333333332
386,28.63
387,0.20870106079257006
388,0.0
425,0.0
450,0.0
451,0.0
452,-1.600301352089363
453,0.0
490,0.0
515,0.0
516,0.0
542,0.0
592,3697583.1810468035
632,3053308.6844064533
686,0.8133444299394885
687,0.6666666666666667
688,1.6666666666666667
2,21, 1,21, 0, 4,20.00,30.00,Sunday
250,24.890747882888558
251,8077978.834204751
336,0.0
385,25.34
386,28.63
387,0.1740043139173092
388,0.0
425,0.0
450,0.0
451,0.0
452,-1.5956460599918527
453,0.0
490,0.0
515,0.0
516,0.0
542,0.0
592,4781920.349114438
632,3818876.3150339494
686,1.0
687,1.0
688,2.0
2,21, 1,21, 0, 4,30.00,40.00,Sunday
250,25.29769050829823
251,9269906.807300609
336,0.0
385,25.34
386,28.63
387,0.14110518815885265
388,0.0
425,0.0
450,0.0
451,0.0
452,-1.5965652256983993
453,0.0
490,0.0
515,0.0
516,0.0
542,0.0
592,4776577.136259316
632,4352193.490002725
686,1.0
687,1.0
688,2.0
2,21, 1,21, 0, 4,40.00,50.00,Sunday
250,24.166040106500972
251,7190318.993812029
336,0.0
385,24.006666666666632
386,28.629999999999963
387,0.11123525039530825
388,0.0
425,0.0
450,0.0
451,0.0
452,-1.6036141618272826
453,0.0
490,0.0
515,0.0
516,0.0
542,0.0
592,2802927.483620417
632,4315366.570425026
686,0.621500754634491
687,0.49999999999999933
688,1.166666666666665
2,21, 1,21, 0, 4,50.00,60.00,Sunday
250,24.656253677026072
251,7234761.560495817
336,0.0
385,24.67333333333335
386,28.63000000000002
387,0.0778217777364804
388,0.0
425,0.0
450,0.0
451,0.0
452,-1.6141875019527425
453,0.0
490,0.0
515,0.0
516,0.0
542,0.0
592,3783722.868872024
632,3301524.6531234295
686,0.8435861786172061
687,0.6666666666666672
688,1.6666666666666679
2,21, 1,21, 0, 5, 0.00,10.00,Sunday
250,24.896862667715848
251,8284528.858323078
336,0.0
385,25.34
386,28.63
387,0.044706424069723256
388,0.0
425,0.0
450,0.0
451,0.0
452,-1.62476262858027
453,0.0
490,0.0
515,0.0
516,0.0
542,0.0
592,4759821.30864579
632,4040611.9772071983
686,1.0
687,1.0
688,2.0
2,21, 1,21, 0, 5,10.00,20.00,Sunday
250,25.298327500776836
251,9366161.970424185
336,0.0
385,25.34
386,28.63
387,0.024891752197041497
388,0.0
425,0.0
450,0.0
451,0.0
452,-1.6273144259418766
453,0.0
490,0.0
515,0.0
516,0.0
542,0.0
592,4753796.85020029
632,4469623.5550526455
686,1.0
687,1.0
688,2.0
2,21, 1,21, 0, 5,20.00,30.00,Sunday
250,24.16731207260629
251,7167193.301400577
336,0.0
385,24.006666666666685
386,28.630000000000017
387,0.015104062105449092
388,0.0
425,0.0
450,0.0
451,0.0
452,-1.6201007604661843
453,0.0
490,0.0
515,0.0
516,0.0
542,0.0
592,2787132.01641798
632,4307510.57104178
686,0.6208576201877072
687,0.5000000000000004
688,1.1666666666666674
2,21, 1,21, 0, 5,30.00,40.00,Sunday
250,24.65376079949818
251,7084980.215075772
336,0.0
385,24.67333333333335
386,28.63000000000002
387,0.007710238516246852
388,0.0
425,0.0
450,0.0
451,0.0
452,-1.6047632372544791
453,0.0
490,0.0
515,0.0
516,0.0
542,0.0
592,3723355.52371334
632,3223767.1479833843
686,0.8314221188028814
687,0.6666666666666672
688,1.6666666666666679
2,21, 1,21, 0, 5,40.00,50.00,Sunday
250,24.894608208919927
251,8145524.955471781
336,0.0
385,25.34
386,28.63
387,0.0016864731896362765
388,0.0
425,0.0
450,0.0
451,0.0
452,-1.5786161099119635
453,0.0
490,0.0
515,0.0
516,0.0
542,0.0
592,4733209.018464268
632,3931119.3197137974
686,1.0
687,1.0
688,2.0
2,21, 1,21, 0, 5,50.00,60.00,Sunday
250,25.298076130016078
251,9224497.536187144
336,0.0
385,25.34
386,28.63
387,-0.0014696991254884567
388,0.0
425,0.0
450,0.0
451,0.0
452,-1.5492935968653008
453,0.0
490,0.0
515,0.0
516,0.0
542,0.0
592,4725491.416569134
632,4356858.617992396
686,1.0
687,1.0
688,2.0
2,21, 1,21, 0, 6, 0.00,10.00,Sunday
250,24.170178911805735
251,7112982.16419133
336,0.0
385,24.006666666666664
386,28.630000000000003
387,-0.01060790666411767
388,0.0
425,0.0
450,0.0
451,0.0
452,-1.5256549748858104
453,0.0
490,0.0
515,0.0
516,0.0
542,0.0
592,2764779.9697280526
632,4274590.76757861
686,0.6186641111402548
687,0.5
688,1.1666666666666667
2,21, 1,21, 0, 6,10.00,20.00,Sunday
250,24.654696205585108
251,7121939.929206608
336,0.0
385,24.673333333333332
386,28.63
387,-0.026342529076585297
388,0.0
425,0.0
450,0.0
451,0.0
452,-1.5096129479289666
453,0.0
490,0.0
515,0.0
516,0.0
542,0.0
592,3717836.1604035515
632,3262056.4565868825
686,0.835183299229873
687,0.6666666666666667
688,1.6666666666666667
2,21, 1,21, 0, 6,20.00,30.00,Sunday
250,24.895859690349003
251,8273461.684986648
336,0.0
385,25.34
386,28.63
387,-0.05117148713723851
388,0.0
425,0.0
450,0.0
451,0.0
452,-1.503409067865058
453,0.0
490,0.0
515,0.0
516,0.0
542,0.0
592,4712787.238344821
632,4078983.606858066
686,1.0
687,1.0
688,2.0
2,21, 1,21, 0, 6,30.00,40.00,Sunday
250,25.298269841024617
251,9442176.096786164
336,0.0
385,25.34
386,28.63
387,-0.07733094741790467
388,0.0
425,0.0
450,0.0
451,0.0
452,-1.5115427523272527
453,0.0
490,0.0
515,0.0
516,0.0
542,0.0
592,4708228.858139927
632,4591492.025914376
686,1.0
687,1.0
688,2.0
2,21, 1,21, 0, 6,40.00,50.00,Sunday
250,24.15860327576857
251,7331900.17319519
336,0.0
385,24.006666666666632
386,28.629999999999963
387,-0.10327419596412271
388,0.0
425,0.0
450,0.0
451,0.0
452,-1.5314088528005265
453,0.0
490,0.0
515,0.0
516,0.0
542,0.0
592,2793685.6181990104
632,4468526.928833259
686,0.6304935349265007
687,0.49999999999999933
688,1.166666666666665
2,21, 1,21, 0, 6,50.00,60.00,Sunday
250,24.658450879023476
251,7359281.546439365
336,0.0
385,24.67333333333335
386,28.63000000000002
387,-0.13325585690453054
388,0.0
425,0.0
450,0.0
451,0.0
452,-1.559953637798905
453,0.0
490,0.0
515,0.0
516,0.0
542,0.0
592,3771892.256753507
632,3427385.3555869684
686,0.855772695483294
687,0.6666666666666672
688,1.6666666666666679
2,21, 1,21, 0, 7, 0.00,10.00,Sunday
250,24.899798633802867
251,8443896.561070157
336,0.0
385,25.34
386,28.63
387,-0.1760495428135652
388,0.0
425,0.0
450,0.0
451,0.0
452,-1.6123213006612032
453,0.0
490,0.0
515,0.0
516,0.0
542,0.0
592,4720142.751070037
632,4237345.266227204
686,1.0
687,1.0
688,2.0
2,21, 1,21, 0, 7,10.00,20.00,Sunday
250,25.298678438393747
251,9578240.026640242
336,0.0
385,25.34
386,28.63
387,-0.22229705838296948
388,0.0
425,0.0
450,0.0
451,0.0
452,-1.6943581605030325
453,0.0
490,0.0
515,0.0
516,0.0
542,0.0
592,4741052.506580858
632,4693698.187798201
686,1.0
687,1.0
688,2.0
2,21, 1,21, 0, 7,20.00,30.00,Sunday
250,24.15348359316916
251,7428049.746849339
336,0.0
385,24.006666666666685
386,28.630000000000017
387,-0.2705787752740948
388,0.0
425,0.0
450,0.0
451,0.0
452,-1.8110981998789895
453,0.0
490,0.0
515,0.0
516,0.0
542,0.0
592,2839526.0566484267
632,4520804.496439738
686,0.6340297550586078
687,0.5000000000000004
688,1.1666666666666674
2,21, 1,21, 0, 7,30.00,40.00,Sunday
250,24.658688989734717
251,7417768.437321473
336,0.0
385,24.67333333333335
386,28.63000000000002
387,-0.32913151735963475
388,0.0
425,0.0
450,0.0
451,0.0
452,-1.969375472799193
453,0.0
490,0.0
515,0.0
516,0.0
542,0.0
592,3845299.2312377356
632,3411108.7042686455
686,0.8581239205306226
687,0.6666666666666672
688,1.6666666666666679
2,21, 1,21, 0, 7,40.00,50.00,Sunday
250,24.90018999898164
251,8493724.26254336
336,0.0
385,25.34
386,28.63
387,-0.4090087602507843
388,0.0
425,0.0
450,0.0
451,0.0
452,-2.1911685963913863
453,0.0
490,0.0
515,0.0
516,0.0
542,0.0
592,4800253.518875453
632,4206343.203789981
686,1.0
687,1.0
688,2.0
2,21, 1,21, 0, 7,50.00,60.00,Sunday
250,25.298715903239817
251,9633002.888140753
336,0.0
385,25.34
386,28.63
387,-0.4871272538567163
388,0.0
425,0.0
450,0.0
451,0.0
452,-2.4183256635639507
453,0.0
490,0.0
515,0.0
516,0.0
542,0.0
592,4818833.098640988
632,4670551.921212037
686,1.0
687,1.0
688,2.0
2,21, 1,21, 0, 8, 0.00,10.00,Sunday
250,24.150725805237595
251,7479245.269557453
336,0.0
385,24.006666666666664
386,28.630000000000003
387,-0.5508717259322744
388,0.0
425,0.0
450,0.0
451,0.0
452,-2.622919876789257
453,0.0
490,0.0
515,0.0
516,0.0
542,0.0
592,2882711.353742983
632,4529996.107497155
686,0.6349256409907873
687,0.5
688,1.1666666666666667
2,21, 1,21, 0, 8,10.00,20.00,Sunday
250,24.65794386142676
251,7406161.016995376
336,0.0
385,24.673333333333332
386,28.63
387,-0.6073336884168197
388,0.0
425,0.0
450,0.0
451,0.0
452,-2.7586682063163983
453,0.0
490,0.0
515,0.0
516,0.0
542,0.0
592,3881664.307514419
632,3366505.3395859236
686,0.8551195429783245
687,0.6666666666666667
688,1.6666666666666667
2,21, 1,21, 0, 8,20.00,30.00,Sunday
250,24.899360027285528
251,8439803.819171313
336,0.0
385,25.34
386,28.63
387,-0.6630820620078156
388,0.0
425,0.0
450,0.0
451,0.0
452,-2.7987682186523832
453,0.0
490,0.0
515,0.0
516,0.0
542,0.0
592,4850353.090971849
632,4102697.1091547725
686,1.0
687,1.0
688,2.0
2,21, 1,21, 0, 8,30.00,40.00,Sunday
250,25.298609578567266
251,9507841.983540045
336,0.0
385,25.34
386,28.63
387,-0.6975397462837643
388,0.0
425,0.0
450,0.0
451,0.0
452,-2.7072808386760565
453,0.0
490,0.0
515,0.0
516,0.0
542,0.0
592,4860858.6798649505
632,4503549.283089884
686,1.0
687,1.0
688,2.0
2,21, 1,21, 0, 8,40.00,50.00,Sunday
250,24.161925281181976
251,7266778.47384268
336,0.0
385,24.006666666666632
386,28.629999999999963
387,-0.7082076738745765
388,0.0
425,0.0
450,0.0
451,0.0
452,-2.493376219491539
453,0.0
490,0.0
515,0.0
516,0.0
542,0.0
592,2866925.955810622
632,4329521.42328582
686,0.6232455031841433
687,0.49999999999999933
688,1.166666666666665
2,21, 1,21, 0, 8,50.00,60.00,Sunday
250,24.653753081359966
251,7137591.428469188
336,0.0
385,24.67333333333335
386,28.63000000000002
387,-0.7033391295244428
388,0.0
425,0.0
450,0.0
451,0.0
452,-2.176219096137106
453,0.0
490,0.0
515,0.0
516,0.0
542,0.0
592,3836738.2607001164
632,3162682.041793672
686,0.8326952666591962
687,0.6666666666666672
688,1.6666666666666679
2,21, 1,21, 0, 9, 0.00,10.00,Sunday
250,25.273776683502398
251,9020714.238069423
336,0.0
385,25.34
386,28.63
387,-0.6779263363603028
388,0.0
425,0.0
450,0.0
451,0.0
452,-1.7618757089853179
453,0.0
490,0.0
515,0.0
516,0.0
542,0.0
592,4899244.476337859
632,4042135.3005393837
686,1.0
687,1.0
688,2.0
2,21, 1,21, 0, 9,10.00,20.00,Sunday
250,24.23090583729681
251,6339516.337530601
336,0.0
385,24.14
386,28.63
387,-0.6333689026991105
388,0.0
425,0.0
450,0.0
451,0.0
452,-1.2842437589006659
453,0.0
490,0.0
515,0.0
516,0.0
542,0.0
592,2725062.1535690743
632,3635402.980374773
686,0.6000000000000001
687,0.4372893395175254
688,1.2000000000000002
2,21, 1,21, 0, 9,20.00,30.00,Sunday
250,24.619303151437414
251,8501486.979192542
336,0.0
385,24.673333333333325
386,28.62999999999999
387,-0.5719506125911686
388,0.0
425,0.0
450,0.0
451,0.0
452,-0.7391923428823194
453,0.0
490,0.0
515,0.0
516,0.0
542,0.0
592,4832603.722380041
632,3612711.5340175508
686,0.9999999999999996
687,0.9266349130106515
688,1.9999999999999991
2,21, 1,21, 0, 9,30.00,40.00,Sunday
250,24.664015044496033
251,6676020.972222977
336,0.0
385,24.673333333333343
386,28.63000000000001
387,-0.47464196529800634
388,0.0
425,0.0
450,0.0
451,0.0
452,0.018091977953974492
453,0.0
490,0.0
515,0.0
516,0.0
542,0.0
592,3694063.918492654
632,2818626.845745284
686,0.7769240071144062
687,0.6666666666666667
688,1.666666666666667
2,21, 1,21, 0, 9,40.00,50.00,Sunday
250,24.68165186655409
251,8018669.347268352
336,0.0
385,24.67333333333335
386,28.63000000000002
387,-0.389533098709333
388,0.0
425,0.0
450,0.0
451,0.0
452,0.6604272908013318
453,0.0
490,0.0
515,0.0
516,0.0
542,0.0
592,3670384.9824754596
632,4114467.3875143817
686,0.8483941267648999
687,0.45676892775260824
688,1.6666666666666679
2,21, 1,21, 0, 9,50.00,60.00,Sunday
250,25.27602005770735
251,8759115.170855604
336,0.0
385,25.34
386,28.63
387,-0.3163194313928542
388,0.0
425,0.0
450,0.0
451,0.0
452,1.1751541417017837
453,0.0
490,0.0
515,0.0
516,0.0
542,0.0
592,4987886.410218768
632,3684508.8123969
686,1.0
687,1.0
688,2.0
2,21, 1,21, 0,10, 0.00,10.00,Sunday
250,24.252077952226266
251,6118835.587675434
336,0.0
385,24.14
386,28.63
387,-0.24291571614538685
388,0.0
425,0.0
450,0.0
451,0.0
452,1.6443071634896345
453,0.0
490,0.0
515,0.0
516,0.0
542,0.0
592,2704069.323774878
632,3432581.194609384
686,0.5924735538688929
687,0.4
688,1.0
2,21, 1,21, 0,10,10.00,20.00,Sunday
250,24.617851357869053
251,8210469.215352472
336,0.0
385,24.673333333333332
386,28.63
387,-0.15627390219283968
388,0.0
425,0.0
450,0.0
451,0.0
452,2.1535976188471744
453,0.0
490,0.0
515,0.0
516,0.0
542,0.0
592,4810803.695672881
632,3352598.4839997203
686,1.0
687,0.8279590229412372
688,2.0
2,21, 1,21, 0,10,20.00,30.00,Sunday
250,24.65800588763485
251,6351754.647294062
336,0.0
385,24.673333333333325
386,28.62999999999999
387,-0.02153097038574936
388,0.0
425,0.0
450,0.0
451,0.0
452,2.8419057843858977
453,0.0
490,0.0
515,0.0
516,0.0
542,0.0
592,3696507.08913183
632,2520302.1441490026
686,0.7498459600308127
687,0.6666666666666664
688,1.666666666666666
2,21, 1,21, 0,10,30.00,40.00,Sunday
250,24.674900839390293
251,7667029.760331076
336,0.0
385,24.673333333333343
386,28.63000000000001
387,0.10965692068271146
388,0.0
425,0.0
450,0.0
451,0.0
452,3.4724053315576935
453,0.0
490,0.0
515,0.0
516,0.0
542,0.0
592,3499310.687240278
632,3970817.947690802
686,0.8170391980768602
687,0.3399182321961683
688,1.666666666666667
2,21, 1,21, 0,10,40.00,50.00,Sunday
250,24.674810738366585
251,7621645.077297912
336,0.0
385,24.67333333333335
386,28.63000000000002
387,0.24953863392253348
388,0.0
425,0.0
450,0.0
451,0.0
452,4.149775024854704
453,0.0
490,0.0
515,0.0
516,0.0
542,0.0
592,3534071.602531926
632,3890928.2293152674
686,0.8130827877784896
687,0.35837333169413516
688,1.6666666666666679
2,21, 1,21, 0,10,50.00,60.00,Sunday
250,24.67341626714876
251,7542965.784703608
336,0.0
385,24.67333333333335
386,28.63000000000002
387,0.4073438636153196
388,0.0
425,0.0
450,0.0
451,0.0
452,4.907789752540605
453,0.0
490,0.0
515,0.0
516,0.0
542,0.0
592,3496566.2657189234
632,3857433.317484589
686,0.8064539242805884
687,0.33389097639025944
688,1.6666666666666679
2,21, 1,21, 0,11, 0.00,10.00,Sunday
250,24.671953052939312
251,7455325.442200854
336,0.0
385,24.673333333333332
386,28.630000000000003
387,0.5776877131164112
388,0.0
425,0.0
450,0.0
451,0.0
452,5.729631030378199
453,0.0
490,0.0
515,0.0
516,0.0
542,0.0
592,3447257.7238303963
632,3827892.9381975518
686,0.7901776628086241
687,0.3333333333333333
688,1.3333333333333335
2,21, 1,21, 0,11,10.00,20.00,Sunday
250,24.670384669962495
251,7358529.018552125
336,0.0
385,24.673333333333332
386,28.63
387,0.758835397385276
388,0.0
425,0.0
450,0.0
451,0.0
452,6.596298136091187
453,0.0
490,0.0
515,0.0
516,0.0
542,0.0
592,3392189.699638346
632,3795645.4105132115
686,0.7722700657395539
687,0.33333333333333337
688,1.3333333333333333
2,21, 1,21, 0,11,20.00,30.00,Sunday
250,24.387282054520444
251,6548803.148653213
336,0.0
385,24.34
386,28.63
387,0.9086937329850243
388,0.0
425,0.0
450,0.0
451,0.0
452,7.3696783088340165
453,0.0
490,0.0
515,0.0
516,0.0
542,0.0
592,3932604.20765503
632,2481987.7962906323
686,0.75
687,0.75
688,1.5
2,21, 1,21, 0,11,30.00,40.00,Sunday
250,24.334890758365454
251,6976711.069339889
336,0.0
385,24.34
386,28.63
387,1.1405200310028911
388,0.0
425,0.0
450,0.0
451,0.0
452,8.393353048118033
453,0.0
490,0.0
515,0.0
516,0.0
542,0.0
592,3395720.5348938704
632,3521338.666417392
686,0.7019340037421348
687,0.5
688,1.25
2,21, 1,21, 0,11,40.00,50.00,Sunday
250,24.33733815645013
251,6816799.997774327
336,0.0
385,24.34
386,28.63
387,1.3679814718161538
388,0.0
425,0.0
450,0.0
451,0.0
452,9.265471449459518
453,0.0
490,0.0
515,0.0
516,0.0
542,0.0
592,3409782.932904558
632,3352305.083156267
686,0.7024889094379331
687,0.5
688,1.25
2,21, 1,21, 0,11,50.00,60.00,Sunday
250,24.63693139199807
251,5602417.523205536
336,0.0
385,24.67333333333335
386,28.63000000000002
387,1.5448441623586104
388,0.0
425,0.0
450,0.0
451,0.0
452,9.913520824781122
453,0.0
490,0.0
515,0.0
516,0.0
542,0.0
592,3739819.4686573464
632,1807456.7541803415
686,0.7209781586117234
687,0.6666666666666672
688,1.6666666666666679
2,21, 1,21, 0,12, 0.00,10.00,Sunday
250,24.663283771724064
251,7037513.092270857
336,0.0
385,24.673333333333332
386,28.630000000000003
387,1.7877536883152398
388,0.0
425,0.0
450,0.0
451,0.0
452,10.628533995919472
453,0.0
490,0.0
515,0.0
516,0.0
542,0.0
592,3179105.309817832
632,3726337.0342493467
686,0.7026229396259758
687,0.3333333333333333
688,1.3333333333333335
2,21, 1,21, 0,12,10.00,20.00,Sunday
250,25.272185682031456
251,7640835.151806687
336,0.0
385,25.34
386,28.63
387,1.972110171466022
388,0.0
425,0.0
450,0.0
451,0.0
452,11.093755394767165
453,0.0
490,0.0
515,0.0
516,0.0
542,0.0
592,5313791.73372639
632,2244714.3988939775
686,1.0
687,1.0
688,2.0
2,21, 1,21, 0,12,20.00,30.00,Sunday
250,24.240560043863617
251,5750520.742611087
336,0.0
385,24.006666666666685
386,28.630000000000017
387,2.1266484430279826
388,0.0
425,0.0
450,0.0
451,0.0
452,11.410527134154002
453,0.0
490,0.0
515,0.0
516,0.0
542,0.0
592,2817428.767846344
632,2837941.3620245354
686,0.5432156962187414
687,0.49419428615059585
688,1.1666666666666674
2,21, 1,21, 0,12,30.00,40.00,Sunday
250,24.62873506376304
251,5495946.438588727
336,0.0
385,24.67333333333335
386,28.63000000000002
387,2.2821726617043723
388,0.0
425,0.0
450,0.0
451,0.0
452,11.650527225129077
453,0.0
490,0.0
515,0.0
516,0.0
542,0.0
592,3713686.2466360657
632,1757223.193958632
686,0.7087338896865233
687,0.6666666666666672
688,1.6666666666666679
2,21, 1,21, 0,12,40.00,50.00,Sunday
250,24.844778497741054
251,6614998.908853427
336,0.0
385,25.34
386,28.63
387,2.4582521345191704
388,0.0
425,0.0
450,0.0
451,0.0
452,11.793669415628724
453,0.0
490,0.0
515,0.0
516,0.0
542,0.0
592,5336165.327252022
632,1812396.7022633376
686,1.0
687,1.0
688,2.0
2,21, 1,21, 0,12,50.00,60.00,Sunday
250,25.29178663501105
251,7701161.556974458
336,0.0
385,25.34
386,28.63
387,2.593084519835533
388,0.0
425,0.0
450,0.0
451,0.0
452,11.780424486080245
453,0.0
490,0.0
515,0.0
516,0.0
542,0.0
592,5343302.612699689
632,2228347.62385615
686,1.0
687,1.0
688,2.0
2,21, 1,21, 0,13, 0.00,10.00,Sunday
250,24.252427100827582
251,5529722.905886497
336,0.0
385,24.006666666666664
386,28.630000000000003
387,2.6859481228392514
388,0.0
425,0.0
450,0.0
451,0.0
452,11.682024298744205
453,0.0
490,0.0
515,0.0
516,0.0
542,0.0
592,2699837.767496083
632,2737823.9232132263
686,0.5319119294365889
687,0.438149024163655
688,1.1666666666666667
2,21, 1,21, 0,13,10.00,20.00,Sunday
250,25.227549770320085
251,7432657.372512344
336,0.0
385,25.34
386,28.63
387,2.7789178869089532
388,0.0
425,0.0
450,0.0
451,0.0
452,11.585200054677145
453,0.0
490,0.0
515,0.0
516,0.0
542,0.0
592,5335793.470214102
632,2121197.938742215
686,1.0
687,1.0
688,2.0
2,21, 1,21, 0,13,20.00,30.00,Sunday
250,25.331969773016333
251,6626282.727956822
336,0.0
385,25.34
386,28.63
387,2.879876910124931
388,0.0
425,0.0
450,0.0
451,0.0
452,11.505630724857452
453,0.0
490,0.0
515,0.0
516,0.0
542,0.0
592,5332036.951629099
632,1049113.3623907415
686,1.0
687,1.0
688,2.0
2,21, 1,21, 0,13,30.00,40.00,Sunday
250,24.26869127301379
251,5241001.941362436
336,0.0
385,24.006666666666646
386,28.629999999999985
387,2.95104992682343
388,0.0
425,0.0
450,0.0
451,0.0
452,11.47634525297931
453,0.0
490,0.0
515,0.0
516,0.0
542,0.0
592,2532391.362896231
632,2620670.4172216197
686,0.5175952665641842
687,0.36661035032741884
688,1.1666666666666659
2,21, 1,21, 0,13,40.00,50.00,Sunday
250,25.22722989101505
251,7125387.98853066
336,0.0
385,25.34
386,28.63
387,3.024027179365297
388,0.0
425,0.0
450,0.0
451,0.0
452,11.458326655902606
453,0.0
490,0.0
515,0.0
516,0.0
542,0.0
592,5324520.016407276
632,1820675.1286653054
686,1.0
687,1.0
688,2.0
2,21, 1,21, 0,13,50.00,60.00,Sunday
250,25.331778633530803
251,6383666.163488264
336,0.0
385,25.34
386,28.63
387,3.1091261166470616
388,0.0
425,0.0
450,0.0
451,0.0
452,11.445109614056715
453,0.0
490,0.0
515,0.0
516,0.0
542,0.0
592,5320759.598422101
632,817963.3753847356
686,1.0
687,1.0
688,2.0
2,21, 1,21, 0,14, 0.00,10.00,Sunday
250,24.277592294003476
251,5057158.496488157
336,0.0
385,24.006666666666664
386,28.630000000000003
387,3.1754216217444924
388,0.0
425,0.0
450,0.0
451,0.0
452,11.404140778834497
453,0.0
490,0.0
515,0.0
516,0.0
542,0.0
592,2432600.2949761515
632,2541169.9632468764
686,0.5039314081529644
687,0.33333333333333326
688,1.0
2,21, 1,21, 0,14,10.00,20.00,Sunday
250,25.226711234636035
251,6935275.399317241
336,0.0
385,25.34
386,28.63
387,3.2438480826593192
388,0.0
425,0.0
450,0.0
451,0.0
452,11.300049535233445
453,0.0
490,0.0
515,0.0
516,0.0
542,0.0
592,5333867.366544664
632,1618942.6270563295
686,1.0
687,0.9927928919327735
688,2.0
2,21, 1,21, 0,14,20.00,30.00,Sunday
250,25.331650478437812
251,6280956.41411045
336,0.0
385,25.34
386,28.63
387,3.3204359953453886
388,0.0
425,0.0
450,0.0
451,0.0
452,11.110977671045623
453,0.0
490,0.0
515,0.0
516,0.0
542,0.0
592,5356447.289610303
632,679727.5560625017
686,1.0
687,1.0
688,2.0
2,21, 1,21, 0,14,30.00,40.00,Sunday
250,24.281444538040635
251,4972941.40076955
336,0.0
385,24.006666666666646
386,28.629999999999985
387,3.367243136561738
388,0.0
425,0.0
450,0.0
451,0.0
452,10.864767540551668
453,0.0
490,0.0
515,0.0
516,0.0
542,0.0
592,2398597.483847664
632,2494985.6941486932
686,0.4907569185975814
687,0.33333333333333287
688,0.9999999999999989
2,21, 1,21, 0,14,40.00,50.00,Sunday
250,25.226864510176277
251,6869051.474952765
336,0.0
385,25.34
386,28.63
387,3.4018036103833076
388,0.0
425,0.0
450,0.0
451,0.0
452,10.495250245778575
453,0.0
490,0.0
515,0.0
516,0.0
542,0.0
592,5322615.06555707
632,1564017.6391632294
686,1.0
687,0.9618870611991155
688,2.0
2,21, 1,21, 0,14,50.00,60.00,Sunday
250,24.39394986129205
251,4576905.506698283
336,0.0
385,24.34
386,28.63