Program Version,EnergyPlus, Version 24.2.0-94a887817b, YMD=2025.02.04 15:52
1,5,Environment Title[],Latitude[deg],Longitude[deg],Time Zone[],Elevation[m]
2,8,Day of Simulation[],Month[],Day of Month[],DST Indicator[1=yes 0=no],Hour[],StartMinute[],EndMinute[],DayType
3,5,Cumulative Day of Simulation[],Month[],Day of Month[],DST Indicator[1=yes 0=no],DayType  ! When Daily Meters Requested
4,2,Cumulative Days of Simulation[],Month[]  ! When Monthly Meters Requested
5,1,Cumulative Days of Simulation[] ! When Run Period Meters Requested
6,1,Calendar Year of Simulation[] ! When Annual Meters Requested
11,9,Electricity:Facility [J] !Monthly [Value,Min,Day,Hour,Minute,Max,Day,Hour,Minute]
23,9,Electricity:Building [J] !Monthly [Value,Min,Day,Hour,Minute,Max,Day,Hour,Minute]
59,9,InteriorLights:Electricity [J] !Monthly [Value,Min,Day,Hour,Minute,Max,Day,Hour,Minute]
521,9,Electricity:HVAC [J] !Monthly [Value,Min,Day,Hour,Minute,Max,Day,Hour,Minute]
637,9,NaturalGas:Facility [J] !Monthly [Value,Min,Day,Hour,Minute,Max,Day,Hour,Minute]
649,9,NaturalGas:HVAC [J] !Monthly [Value,Min,Day,Hour,Minute,Max,Day,Hour,Minute]
13,11,Electricity:Facility [J] !RunPeriod [Value,Min,Month,Day,Hour,Minute,Max,Month,Day,Hour,Minute]
25,11,Electricity:Building [J] !RunPeriod [Value,Min,Month,Day,Hour,Minute,Max,Month,Day,Hour,Minute]
61,11,InteriorLights:Electricity [J] !RunPeriod [Value,Min,Month,Day,Hour,Minute,Max,Month,Day,Hour,Minute]
523,11,Electricity:HVAC [J] !RunPeriod [Value,Min,Month,Day,Hour,Minute,Max,Month,Day,Hour,Minute]
639,11,NaturalGas:Facility [J] !RunPeriod [Value,Min,Month,Day,Hour,Minute,Max,Month,Day,Hour,Minute]
651,11,NaturalGas:HVAC [J] !RunPeriod [Value,Min,Month,Day,Hour,Minute,Max,Month,Day,Hour,Minute]
End of Data Dictionary
1,RUN PERIOD 1,  41.98, -87.92,  -6.00, 201.00
4,31, 1
11,12635846667.75709,288214.50704110455,12, 1,20,5031906.274472406,31,14,60
23,5022445091.1415415,165233.204029821,19,16,40,3133519.5219565844,31,14,60
59,2399336799.6149564,74190.99565908793, 1, 1,10,1483819.9131817585, 1, 8,10
521,7613401576.615423,120000.0, 1, 7,10,2576111.998828902,27,19,60
637,4080937992.7430577,0.0, 1, 1,10,13821522.396022454,31, 7,60
649,4080937992.7430577,0.0, 1, 1,10,13821522.396022454,31, 7,60
4,59, 2
11,11255881667.100807,99999999999999.0,12, 1,20,5031980.405463286, 4, 9,60
23,4401739150.2877655,164214.88824588875, 9,14,10,3133593.6529474645, 4, 9,60
59,2097527829.2738144,99999999999999.0, 1, 1,10,-99999999999999.0, 1, 8,10
521,6854142516.813005,0.0,12,18,60,-99999999999999.0,27,19,60
637,5914805077.453303,99999999999999.0, 1, 1,10,21006898.25545081, 3, 8,30
649,5914805077.453303,99999999999999.0, 1, 1,10,21006898.25545081, 3, 8,30
4,90, 3
11,11558613972.063318,138383.14717993865,31,16,60,5041736.199635189,18, 9,60
23,4641439342.667646,138383.14717993865,31,16,60,3143349.4471193673,18, 9,60
59,2219497826.137287,99999999999999.0, 1, 1,10,-99999999999999.0, 1, 8,10
521,6917174629.395652,99999999999999.0,12,18,60,-99999999999999.0,27,19,60
637,2897256722.7691293,99999999999999.0, 1, 1,10,-99999999999999.0, 3, 8,30
649,2897256722.7691293,99999999999999.0, 1, 1,10,-99999999999999.0, 3, 8,30
4,120, 4
11,11091082812.115452,74190.99565908793,20,17,20,5197240.876863595,15,14,60
23,4718339041.471079,74190.99565908793,13,14,40,-99999999999999.0,18, 9,60
59,2298733809.501248,99999999999999.0, 1, 1,10,-99999999999999.0, 1, 8,10
521,6372743770.644287,99999999999999.0,12,18,60,-99999999999999.0,27,19,60
637,863312937.3435347,99999999999999.0, 1, 1,10,-99999999999999.0, 3, 8,30
649,863312937.3435347,99999999999999.0, 1, 1,10,-99999999999999.0, 3, 8,30
4,151, 5
11,11440309091.791836,99999999999999.0,20,17,20,5328601.926276147,30,16,60
23,4864362387.715962,99999999999999.0,13,14,40,-99999999999999.0,18, 9,60
59,2399336799.6149564,99999999999999.0, 1, 1,10,-99999999999999.0, 1, 8,10
521,6575946704.075827,99999999999999.0,12,18,60,-99999999999999.0,27,19,60
637,136191609.09328106,99999999999999.0, 1, 1,10,-99999999999999.0, 3, 8,30
649,136191609.09328106,99999999999999.0, 1, 1,10,-99999999999999.0, 3, 8,30
4,181, 6
11,10446736221.906534,99999999999999.0,20,17,20,5351646.233557128,24,16,60
23,4234209641.1554446,99999999999999.0,13,14,40,-99999999999999.0,18, 9,60
59,2118894836.0236406,99999999999999.0, 1, 1,10,-99999999999999.0, 1, 8,10
521,6212526580.750962,99999999999999.0,12,18,60,-99999999999999.0,27,19,60
637,8558907.483267538,99999999999999.0, 1, 1,10,-99999999999999.0, 3, 8,30
649,8558907.483267538,99999999999999.0, 1, 1,10,-99999999999999.0, 3, 8,30
4,212, 7
11,12111299367.986254,99999999999999.0,20,17,20,-99999999999999.0,24,16,60
23,4768592498.743511,99999999999999.0,13,14,40,-99999999999999.0,18, 9,60
59,2399336799.6149564,99999999999999.0, 1, 1,10,-99999999999999.0, 1, 8,10
521,7342706869.242629,99999999999999.0,12,18,60,-99999999999999.0,27,19,60
637,0.0,99999999999999.0, 1, 1,10,-99999999999999.0, 3, 8,30
649,0.0,99999999999999.0, 1, 1,10,-99999999999999.0, 3, 8,30
4,243, 8
11,11574859018.778175,99999999999999.0,20,17,20,5485487.60622151,23,16,60
23,4598567739.483987,99999999999999.0,13,14,40,-99999999999999.0,18, 9,60
59,2309417312.8761177,99999999999999.0, 1, 1,10,-99999999999999.0, 1, 8,10
521,6976291279.294107,99999999999999.0,12,18,60,-99999999999999.0,27,19,60
637,3314414.13742945,99999999999999.0, 1, 1,10,-99999999999999.0, 3, 8,30
649,3314414.13742945,99999999999999.0, 1, 1,10,-99999999999999.0, 3, 8,30
4,273, 9
11,10586375067.375216,99999999999999.0,20,17,20,-99999999999999.0,23,16,60
23,4436198334.47639,99999999999999.0,13,14,40,-99999999999999.0,18, 9,60
59,2208814322.7624483,99999999999999.0, 1, 1,10,-99999999999999.0, 1, 8,10
521,6150176732.898752,99999999999999.0,12,18,60,-99999999999999.0,27,19,60
637,16637646.047811069,99999999999999.0, 1, 1,10,-99999999999999.0, 3, 8,30
649,16637646.047811069,99999999999999.0, 1, 1,10,-99999999999999.0, 3, 8,30
4,304,10
11,11256641966.978783,99999999999999.0,20,17,20,-99999999999999.0,23,16,60
23,4893883559.885979,99999999999999.0,13,14,40,-99999999999999.0,18, 9,60
59,2399336799.6149564,99999999999999.0, 1, 1,10,-99999999999999.0, 1, 8,10
521,6362758407.092748,99999999999999.0,12,18,60,-99999999999999.0,27,19,60
637,127906113.29354768,99999999999999.0, 1, 1,10,-99999999999999.0, 3, 8,30
649,127906113.29354768,99999999999999.0, 1, 1,10,-99999999999999.0, 3, 8,30
4,334,11
11,11159065978.415987,99999999999999.0,20,17,20,-99999999999999.0,23,16,60
23,4575586352.526236,99999999999999.0,13,14,40,-99999999999999.0,18, 9,60
59,2208814322.762409,99999999999999.0, 1, 1,10,-99999999999999.0, 1, 8,10
521,6583479625.889674,99999999999999.0,12,18,60,-99999999999999.0,27,19,60
637,2080859476.8500168,99999999999999.0, 1, 1,10,-99999999999999.0, 3, 8,30
649,2080859476.8500168,99999999999999.0, 1, 1,10,-99999999999999.0, 3, 8,30
4,365,12
11,11722102721.288647,99999999999999.0,20,17,20,-99999999999999.0,23,16,60
23,4797257729.962544,99999999999999.0,13,14,40,-99999999999999.0,18, 9,60
59,2309417312.876157,99999999999999.0, 1, 1,10,-99999999999999.0, 1, 8,10
521,6924844991.326041,99999999999999.0,12,18,60,-99999999999999.0,27,19,60
637,2764244702.8981276,99999999999999.0, 1, 1,10,-99999999999999.0, 3, 8,30
649,2764244702.8981276,99999999999999.0, 1, 1,10,-99999999999999.0, 3, 8,30
5,365
13,136838814553.55782,74190.99565908793, 4,20,17,20,5485487.60622151, 8,23,16,60
25,55952620869.5182,74190.99565908793, 4,13,14,40,3143349.4471193673, 3,18, 9,60
61,27368464770.659653,74190.99565908793, 1, 1, 1,10,1483819.9131817585, 1, 1, 8,10
523,80886193684.06688,0.0, 2,12,18,60,2576111.998828902, 1,27,19,60
639,18894025600.112526,0.0, 1, 1, 1,10,21006898.25545081, 2, 3, 8,30
651,18894025600.112526,0.0, 1, 1, 1,10,21006898.25545081, 2, 3, 8,30
1,RUN PERIOD 2,  41.98, -87.92,  -6.00, 201.00
4,1, 7
11,488781230.8960603,99999999999999.0,20,17,20,-99999999999999.0,23,16,60
23,201680181.00342867,99999999999999.0,13,14,40,-99999999999999.0,18, 9,60
59,100602990.11372295,99999999999999.0, 1, 1,10,-99999999999999.0, 1, 8,10
521,287101049.8926317,99999999999999.0,12,18,60,-99999999999999.0,27,19,60
637,0.0,99999999999999.0, 1, 1,10,-99999999999999.0, 3, 8,30
649,0.0,99999999999999.0, 1, 1,10,-99999999999999.0, 3, 8,30
5,1
13,488781230.8960603,99999999999999.0, 4,20,17,20,-99999999999999.0, 8,23,16,60
25,201680181.00342867,99999999999999.0, 4,13,14,40,-99999999999999.0, 3,18, 9,60
61,100602990.11372295,99999999999999.0, 1, 1, 1,10,-99999999999999.0, 1, 1, 8,10
523,287101049.8926317,99999999999999.0, 2,12,18,60,-99999999999999.0, 1,27,19,60
639,0.0,99999999999999.0, 1, 1, 1,10,-99999999999999.0, 2, 3, 8,30
651,0.0,99999999999999.0, 1, 1, 1,10,-99999999999999.0, 2, 3, 8,30
End of Data
 Number of Records Written=          90
