Program Version,EnergyPlus, Version 24.2.0-94a887817b, YMD=2025.02.12 11:47
1,5,Environment Title[],Latitude[deg],Longitude[deg],Time Zone[],Elevation[m]
2,8,Day of Simulation[],Month[],Day of Month[],DST Indicator[1=yes 0=no],Hour[],StartMinute[],EndMinute[],DayType
3,5,Cumulative Day of Simulation[],Month[],Day of Month[],DST Indicator[1=yes 0=no],DayType  ! When Daily Meters Requested
4,2,Cumulative Days of Simulation[],Month[]  ! When Monthly Meters Requested
5,1,Cumulative Days of Simulation[] ! When Run Period Meters Requested
6,1,Calendar Year of Simulation[] ! When Annual Meters Requested
11,9,Electricity:Facility [J] !Monthly [Value,Min,Day,Hour,Minute,Max,Day,Hour,Minute]
23,9,Electricity:Building [J] !Monthly [Value,Min,Day,Hour,Minute,Max,Day,Hour,Minute]
59,9,InteriorLights:Electricity [J] !Monthly [Value,Min,Day,Hour,Minute,Max,Day,Hour,Minute]
521,9,Electricity:HVAC [J] !Monthly [Value,Min,Day,Hour,Minute,Max,Day,Hour,Minute]
637,9,NaturalGas:Facility [J] !Monthly [Value,Min,Day,Hour,Minute,Max,Day,Hour,Minute]
649,9,NaturalGas:HVAC [J] !Monthly [Value,Min,Day,Hour,Minute,Max,Day,Hour,Minute]
13,11,Electricity:Facility [J] !RunPeriod [Value,Min,Month,Day,Hour,Minute,Max,Month,Day,Hour,Minute]
25,11,Electricity:Building [J] !RunPeriod [Value,Min,Month,Day,Hour,Minute,Max,Month,Day,Hour,Minute]
61,11,InteriorLights:Electricity [J] !RunPeriod [Value,Min,Month,Day,Hour,Minute,Max,Month,Day,Hour,Minute]
523,11,Electricity:HVAC [J] !RunPeriod [Value,Min,Month,Day,Hour,Minute,Max,Month,Day,Hour,Minute]
639,11,NaturalGas:Facility [J] !RunPeriod [Value,Min,Month,Day,Hour,Minute,Max,Month,Day,Hour,Minute]
651,11,NaturalGas:HVAC [J] !RunPeriod [Value,Min,Month,Day,Hour,Minute,Max,Month,Day,Hour,Minute]
End of Data Dictionary
1,RUN PERIOD 1,  41.98, -87.92,  -6.00, 201.00
4,31, 1
11,8863676513.41344,243586.19866338966,11,19,30,3563176.6884265873,14,13,40
23,1961375778.0772123,106625.58561490204,11,20,50,1093959.630766197,31,13,60
59,991323900.1772075,30653.181823662002, 1, 1,10,613063.63647324, 1, 8,10
521,6902300735.33628,0.0,11,13,50,2569350.2467606375,27,20,30
637,15694479019.306202,0.0, 1,10,10,20094065.84233146,31, 7,60
649,15694479019.306202,0.0, 1,10,10,20094065.84233146,31, 7,60
4,59, 2
11,7253568626.21027,99999999999999.0,11,19,30,-99999999999999.0,14,13,40
23,1729066983.254083,99999999999999.0,11,20,50,-99999999999999.0,31,13,60
59,866626756.5185668,99999999999999.0, 1, 1,10,-99999999999999.0, 1, 8,10
521,5524501642.956177,99999999999999.0,11,13,50,-99999999999999.0,27,20,30
637,12927041693.615913,99999999999999.0, 1,10,10,20638073.080221776, 3, 8,20
649,12927041693.615913,99999999999999.0, 1,10,10,20638073.080221776, 3, 8,20
4,90, 3
11,7224166681.163024,93230.53502551146,31,16,60,-99999999999999.0,14,13,40
23,1823472339.090187,93230.53502551146,31,16,60,1103376.4242389048,18, 9,60
59,917020587.4366524,99999999999999.0, 1, 1,10,-99999999999999.0, 1, 8,10
521,5400694342.072848,99999999999999.0,11,13,50,-99999999999999.0,27,20,30
637,9393118724.37165,99999999999999.0, 1,10,10,-99999999999999.0, 3, 8,20
649,9393118724.37165,99999999999999.0, 1,10,10,-99999999999999.0, 3, 8,20
4,120, 4
11,4261834006.180696,30653.181823662002, 5, 4,10,-99999999999999.0,14,13,40
23,1763007128.093361,30653.181823662002, 5, 3,10,-99999999999999.0,18, 9,60
59,949758185.6243219,99999999999999.0, 1, 1,10,-99999999999999.0, 1, 8,10
521,2498826878.0873365,99999999999999.0,11,13,50,-99999999999999.0,27,20,30
637,3806327122.120601,99999999999999.0, 1,10,10,-99999999999999.0, 3, 8,20
649,3806327122.120601,99999999999999.0, 1,10,10,-99999999999999.0, 3, 8,20
4,151, 5
11,3174275600.9222226,99999999999999.0, 5, 4,10,-99999999999999.0,14,13,40
23,1752521171.6937504,99999999999999.0, 5, 3,10,-99999999999999.0,18, 9,60
59,991323900.1772034,99999999999999.0, 1, 1,10,-99999999999999.0, 1, 8,10
521,1421754429.2284806,99999999999999.0,11,13,50,-99999999999999.0,27,20,30
637,851215332.287994,99999999999999.0, 1,10,10,-99999999999999.0, 3, 8,20
649,851215332.287994,99999999999999.0, 1,10,10,-99999999999999.0, 3, 8,20
4,181, 6
11,2996453885.7676997,99999999999999.0, 5, 4,10,-99999999999999.0,14,13,40
23,1487863274.203638,99999999999999.0, 5, 3,10,-99999999999999.0,18, 9,60
59,875454872.8837664,99999999999999.0, 1, 1,10,-99999999999999.0, 1, 8,10
521,1508590611.5640874,99999999999999.0,11,13,50,-99999999999999.0,27,20,30
637,35860319.27290871,99999999999999.0, 1,10,10,-99999999999999.0, 3, 8,20
649,35860319.27290871,99999999999999.0, 1,10,10,-99999999999999.0, 3, 8,20
4,212, 7
11,3863447771.499301,99999999999999.0, 5, 4,10,-99999999999999.0,14,13,40
23,1605136372.3064153,99999999999999.0, 5, 3,10,-99999999999999.0,18, 9,60
59,991323900.1772075,99999999999999.0, 1, 1,10,-99999999999999.0, 1, 8,10
521,2258311399.19289,99999999999999.0,11,13,50,-99999999999999.0,27,20,30
637,0.0,99999999999999.0, 1,10,10,-99999999999999.0, 3, 8,20
649,0.0,99999999999999.0, 1,10,10,-99999999999999.0, 3, 8,20
4,243, 8
11,3402272985.109879,99999999999999.0, 5, 4,10,-99999999999999.0,14,13,40
23,1579587509.714644,99999999999999.0, 5, 3,10,-99999999999999.0,18, 9,60
59,954172243.8069359,99999999999999.0, 1, 1,10,-99999999999999.0, 1, 8,10
521,1822685475.3952577,99999999999999.0,11,13,50,-99999999999999.0,27,20,30
637,11891754.165200435,99999999999999.0, 1,10,10,-99999999999999.0, 3, 8,20
649,11891754.165200435,99999999999999.0, 1,10,10,-99999999999999.0, 3, 8,20
4,273, 9
11,2713841580.137983,99999999999999.0, 5, 4,10,-99999999999999.0,14,13,40
23,1567144127.0672016,99999999999999.0, 5, 3,10,-99999999999999.0,18, 9,60
59,912606529.2540442,99999999999999.0, 1, 1,10,-99999999999999.0, 1, 8,10
521,1146697453.0707798,99999999999999.0,11,13,50,-99999999999999.0,27,20,30
637,57437264.2413666,99999999999999.0, 1,10,10,-99999999999999.0, 3, 8,20
649,57437264.2413666,99999999999999.0, 1,10,10,-99999999999999.0, 3, 8,20
4,304,10
11,3452189712.6117253,99999999999999.0, 5, 4,10,-99999999999999.0,14,13,40
23,1796608065.2358682,99999999999999.0, 5, 3,10,-99999999999999.0,18, 9,60
59,991323900.1772075,99999999999999.0, 1, 1,10,-99999999999999.0, 1, 8,10
521,1655581647.3758595,99999999999999.0,11,13,50,-99999999999999.0,27,20,30
637,1914947371.2431917,99999999999999.0, 1,10,10,-99999999999999.0, 3, 8,20
649,1914947371.2431917,99999999999999.0, 1,10,10,-99999999999999.0, 3, 8,20
4,334,11
11,6000751776.896806,99999999999999.0, 5, 4,10,-99999999999999.0,14,13,40
23,1760381920.357554,99999999999999.0, 5, 3,10,-99999999999999.0,18, 9,60
59,912606529.2540524,99999999999999.0, 1, 1,10,-99999999999999.0, 1, 8,10
521,4240369856.5392437,99999999999999.0,11,13,50,-99999999999999.0,27,20,30
637,7967986715.293011,99999999999999.0, 1,10,10,-99999999999999.0, 3, 8,20
649,7967986715.293011,99999999999999.0, 1,10,10,-99999999999999.0, 3, 8,20
4,365,12
11,7580511176.33607,99999999999999.0, 5, 4,10,3564582.71501061,19,13,10
23,1855851240.0587351,99999999999999.0, 5, 3,10,-99999999999999.0,18, 9,60
59,954172243.8069297,99999999999999.0, 1, 1,10,-99999999999999.0, 1, 8,10
521,5724659936.277319,99999999999999.0,11,13,50,-99999999999999.0,27,20,30
637,9669542762.76314,99999999999999.0, 1,10,10,-99999999999999.0, 3, 8,20
649,9669542762.76314,99999999999999.0, 1,10,10,-99999999999999.0, 3, 8,20
5,365
13,60786990316.24869,30653.181823662002, 4, 5, 4,10,3564582.71501061,12,19,13,10
25,20682015909.152607,30653.181823662002, 4, 5, 3,10,1103376.4242389048, 3,18, 9,60
61,11307713549.29693,30653.181823662002, 1, 1, 1,10,613063.63647324, 1, 1, 8,10
523,40104974407.09667,0.0, 1,11,13,50,2569350.2467606375, 1,27,20,30
639,62329848078.68082,0.0, 1, 1,10,10,20638073.080221776, 2, 3, 8,20
651,62329848078.68082,0.0, 1, 1,10,10,20638073.080221776, 2, 3, 8,20
1,RUN PERIOD 2,  41.98, -87.92,  -6.00, 201.00
4,1, 7
11,117723699.29813334,99999999999999.0, 5, 4,10,-99999999999999.0,19,13,10
23,67509054.55119777,99999999999999.0, 5, 3,10,-99999999999999.0,18, 9,60
59,41565714.552885674,99999999999999.0, 1, 1,10,-99999999999999.0, 1, 8,10
521,50214644.74693549,99999999999999.0,11,13,50,-99999999999999.0,27,20,30
637,0.0,99999999999999.0, 1,10,10,-99999999999999.0, 3, 8,20
649,0.0,99999999999999.0, 1,10,10,-99999999999999.0, 3, 8,20
5,1
13,117723699.29813334,99999999999999.0, 4, 5, 4,10,-99999999999999.0,12,19,13,10
25,67509054.55119777,99999999999999.0, 4, 5, 3,10,-99999999999999.0, 3,18, 9,60
61,41565714.552885674,99999999999999.0, 1, 1, 1,10,-99999999999999.0, 1, 1, 8,10
523,50214644.74693549,99999999999999.0, 1,11,13,50,-99999999999999.0, 1,27,20,30
639,0.0,99999999999999.0, 1, 1,10,10,-99999999999999.0, 2, 3, 8,20
651,0.0,99999999999999.0, 1, 1,10,10,-99999999999999.0, 2, 3, 8,20
End of Data
 Number of Records Written=          90
