Program Version,EnergyPlus, Version 24.1.0-9d7789a3ac, YMD=2025.04.05 15:40
1,5,Environment Title[],Latitude[deg],Longitude[deg],Time Zone[],Elevation[m]
2,8,Day of Simulation[],Month[],Day of Month[],DST Indicator[1=yes 0=no],Hour[],StartMinute[],EndMinute[],DayType
3,5,Cumulative Day of Simulation[],Month[],Day of Month[],DST Indicator[1=yes 0=no],DayType  ! When Daily Meters Requested
4,2,Cumulative Days of Simulation[],Month[]  ! When Monthly Meters Requested
5,1,Cumulative Days of Simulation[] ! When Run Period Meters Requested
6,1,Calendar Year of Simulation[] ! When Annual Meters Requested
11,9,Electricity:Facility [J] !Monthly [Value,Min,Day,Hour,Minute,Max,Day,Hour,Minute]
23,9,Electricity:Building [J] !Monthly [Value,Min,Day,Hour,Minute,Max,Day,Hour,Minute]
59,9,InteriorLights:Electricity [J] !Monthly [Value,Min,Day,Hour,Minute,Max,Day,Hour,Minute]
521,9,Electricity:HVAC [J] !Monthly [Value,Min,Day,Hour,Minute,Max,Day,Hour,Minute]
637,9,NaturalGas:Facility [J] !Monthly [Value,Min,Day,Hour,Minute,Max,Day,Hour,Minute]
649,9,NaturalGas:HVAC [J] !Monthly [Value,Min,Day,Hour,Minute,Max,Day,Hour,Minute]
13,11,Electricity:Facility [J] !RunPeriod [Value,Min,Month,Day,Hour,Minute,Max,Month,Day,Hour,Minute]
25,11,Electricity:Building [J] !RunPeriod [Value,Min,Month,Day,Hour,Minute,Max,Month,Day,Hour,Minute]
61,11,InteriorLights:Electricity [J] !RunPeriod [Value,Min,Month,Day,Hour,Minute,Max,Month,Day,Hour,Minute]
523,11,Electricity:HVAC [J] !RunPeriod [Value,Min,Month,Day,Hour,Minute,Max,Month,Day,Hour,Minute]
639,11,NaturalGas:Facility [J] !RunPeriod [Value,Min,Month,Day,Hour,Minute,Max,Month,Day,Hour,Minute]
651,11,NaturalGas:HVAC [J] !RunPeriod [Value,Min,Month,Day,Hour,Minute,Max,Month,Day,Hour,Minute]
End of Data Dictionary
1,RUN PERIOD 1,  41.98, -87.92,  -6.00, 201.00
4,31, 1
11,8928915959.845926,229569.40991318217,11,19,20,3738791.3245220655,14,13,40
23,1856978598.7070322,104265.36497001631,11,20,50,1028564.8158940297,30,13,60
59,959939352.7877727,29682.725812855104, 1, 1,10,593654.516257102, 1, 8,10
521,7071937361.13889,0.0,11,13,30,2796567.8477312126,27,21,20
637,14928452904.503523,0.0, 1, 9,50,20407936.247186426,31, 7,60
649,14928452904.503523,0.0, 1, 9,50,20407936.247186426,31, 7,60
4,59, 2
11,7260414125.52913,99999999999999.0,11,19,20,-99999999999999.0,14,13,40
23,1637220601.2211792,99999999999999.0,11,20,50,1028670.1219603124, 4, 9,60
59,839190024.1810584,99999999999999.0, 1, 1,10,-99999999999999.0, 1, 8,10
521,5623193524.307961,99999999999999.0,11,13,30,-99999999999999.0,27,21,20
637,12364174384.34035,99999999999999.0, 1, 9,50,20891160.232503466, 3, 7,60
649,12364174384.34035,99999999999999.0, 1, 9,50,20891160.232503466, 3, 7,60
4,90, 3
11,7062259273.20325,90897.44674444728,31,16,60,-99999999999999.0,14,13,40
23,1727241436.22714,90897.44674444728,31,16,60,1038606.551821288,18, 9,60
59,887988425.4174092,99999999999999.0, 1, 1,10,-99999999999999.0, 1, 8,10
521,5335017836.976117,99999999999999.0,11,13,30,-99999999999999.0,27,21,20
637,9051244803.080194,99999999999999.0, 1, 9,50,-99999999999999.0, 3, 7,60
649,9051244803.080194,99999999999999.0, 1, 9,50,-99999999999999.0, 3, 7,60
4,120, 4
11,4105353981.346811,59083.6844549137, 5, 5,10,-99999999999999.0,14,13,40
23,1688340193.4393294,29682.725812855104, 5, 4,30,-99999999999999.0,18, 9,60
59,919689576.5855405,99999999999999.0, 1, 1,10,-99999999999999.0, 1, 8,10
521,2417013787.907473,99999999999999.0,11,13,30,-99999999999999.0,27,21,20
637,3452297735.713645,99999999999999.0, 1, 9,50,-99999999999999.0, 3, 7,60
649,3452297735.713645,99999999999999.0, 1, 9,50,-99999999999999.0, 3, 7,60
4,151, 5
11,2712769584.3816457,99999999999999.0, 5, 5,10,-99999999999999.0,14,13,40
23,1695063211.5162811,99999999999999.0, 5, 4,30,-99999999999999.0,18, 9,60
59,959939352.7877727,99999999999999.0, 1, 1,10,-99999999999999.0, 1, 8,10
521,1017706372.8653709,99999999999999.0,11,13,30,-99999999999999.0,27,21,20
637,730841135.8543197,99999999999999.0, 1, 9,50,-99999999999999.0, 3, 7,60
649,730841135.8543197,99999999999999.0, 1, 9,50,-99999999999999.0, 3, 7,60
4,181, 6
11,2466597308.9152346,29682.725812855104,23,12,20,-99999999999999.0,14,13,40
23,1460546739.7407482,99999999999999.0, 5, 4,30,-99999999999999.0,18, 9,60
59,847738649.2151778,99999999999999.0, 1, 1,10,-99999999999999.0, 1, 8,10
521,1006050569.1744982,99999999999999.0,11,13,30,-99999999999999.0,27,21,20
637,28097594.18544476,99999999999999.0, 1, 9,50,-99999999999999.0, 3, 7,60
649,28097594.18544476,99999999999999.0, 1, 9,50,-99999999999999.0, 3, 7,60
4,212, 7
11,3165494064.7159786,99999999999999.0,23,12,20,-99999999999999.0,14,13,40
23,1599686826.867168,99999999999999.0, 5, 4,30,-99999999999999.0,18, 9,60
59,959939352.7877727,99999999999999.0, 1, 1,10,-99999999999999.0, 1, 8,10
521,1565807237.848821,99999999999999.0,11,13,30,-99999999999999.0,27,21,20
637,0.0,99999999999999.0, 1, 9,50,-99999999999999.0, 3, 7,60
649,0.0,99999999999999.0, 1, 9,50,-99999999999999.0, 3, 7,60
4,243, 8
11,2738844308.394545,99999999999999.0,23,12,20,-99999999999999.0,14,13,40
23,1568582565.159422,99999999999999.0, 5, 4,30,-99999999999999.0,18, 9,60
59,923963889.1025819,99999999999999.0, 1, 1,10,-99999999999999.0, 1, 8,10
521,1170261743.2351384,99999999999999.0,11,13,30,-99999999999999.0,27,21,20
637,1866149.056681054,99999999999999.0, 1, 9,50,-99999999999999.0, 3, 7,60
649,1866149.056681054,99999999999999.0, 1, 9,50,-99999999999999.0, 3, 7,60
4,273, 9
11,2257272259.507045,99999999999999.0,23,12,20,-99999999999999.0,14,13,40
23,1525211250.964781,99999999999999.0, 5, 4,30,-99999999999999.0,18, 9,60
59,883714112.9003592,99999999999999.0, 1, 1,10,-99999999999999.0, 1, 8,10
521,732061008.5422536,99999999999999.0,11,13,30,-99999999999999.0,27,21,20
637,30799384.501548044,99999999999999.0, 1, 9,50,-99999999999999.0, 3, 7,60
649,30799384.501548044,99999999999999.0, 1, 9,50,-99999999999999.0, 3, 7,60
4,304,10
11,3236540763.390072,99999999999999.0,23,12,20,-99999999999999.0,14,13,40
23,1715441514.2951963,99999999999999.0, 5, 4,30,-99999999999999.0,18, 9,60
59,959939352.7877727,99999999999999.0, 1, 1,10,-99999999999999.0, 1, 8,10
521,1521099249.0948684,99999999999999.0,11,13,30,-99999999999999.0,27,21,20
637,1645898115.6282797,99999999999999.0, 1, 9,50,-99999999999999.0, 3, 7,60
649,1645898115.6282797,99999999999999.0, 1, 9,50,-99999999999999.0, 3, 7,60
4,334,11
11,5986269813.565956,99999999999999.0,23,12,20,-99999999999999.0,14,13,40
23,1667454281.0983748,99999999999999.0, 5, 4,30,-99999999999999.0,18, 9,60
59,883714112.9003499,99999999999999.0, 1, 1,10,-99999999999999.0, 1, 8,10
521,4318815532.467562,99999999999999.0,11,13,30,-99999999999999.0,27,21,20
637,7544668687.098992,99999999999999.0, 1, 9,50,-99999999999999.0, 3, 7,60
649,7544668687.098992,99999999999999.0, 1, 9,50,-99999999999999.0, 3, 7,60
4,365,12
11,7443149094.896022,99999999999999.0,23,12,20,-99999999999999.0,14,13,40
23,1757365347.9533985,99999999999999.0, 5, 4,30,-99999999999999.0,18, 9,60
59,923963889.1025913,99999999999999.0, 1, 1,10,-99999999999999.0, 1, 8,10
521,5685783746.942638,99999999999999.0,11,13,30,-99999999999999.0,27,21,20
637,9577059419.492647,99999999999999.0, 1, 9,50,-99999999999999.0, 3, 7,60
649,9577059419.492647,99999999999999.0, 1, 9,50,-99999999999999.0, 3, 7,60
5,365
13,57363880537.69213,29682.725812855104, 6,23,12,20,3738791.3245220655, 1,14,13,40
25,19899132567.189133,29682.725812855104, 4, 5, 4,30,1038606.551821288, 3,18, 9,60
61,10949720090.556833,29682.725812855104, 1, 1, 1,10,593654.516257102, 1, 1, 8,10
523,37464747970.50152,0.0, 1,11,13,30,2796567.8477312126, 1,27,21,20
639,59355400313.455574,0.0, 1, 1, 9,50,20891160.232503466, 2, 3, 7,60
651,59355400313.455574,0.0, 1, 1, 9,50,20891160.232503466, 2, 3, 7,60
End of Data
 Number of Records Written=          78
