Program Version,EnergyPlus, Version 24.2.0-94a887817b, YMD=2025.02.04 17:21
1,5,Environment Title[],Latitude[deg],Longitude[deg],Time Zone[],Elevation[m]
2,8,Day of Simulation[],Month[],Day of Month[],DST Indicator[1=yes 0=no],Hour[],StartMinute[],EndMinute[],DayType
3,5,Cumulative Day of Simulation[],Month[],Day of Month[],DST Indicator[1=yes 0=no],DayType  ! When Daily Report Variables Requested
4,2,Cumulative Days of Simulation[],Month[]  ! When Monthly Report Variables Requested
5,1,Cumulative Days of Simulation[] ! When Run Period Report Variables Requested
6,1,Calendar Year of Simulation[] ! When Annual Report Variables Requested
250,1,LIVING ZONE,Zone Air Temperature [C] !TimeStep,REPORTSCH
251,1,LIVING ZONE,Zone Air System Sensible Heating Energy [J] !TimeStep,REPORTSCH
336,1,LIVING ZONE,Zone Air System Sensible Cooling Energy [J] !TimeStep,REPORTSCH
385,1,LIVING ZONE,Zone Thermostat Heating Setpoint Temperature [C] !TimeStep,REPORTSCH
386,1,LIVING ZONE,Zone Thermostat Cooling Setpoint Temperature [C] !TimeStep,REPORTSCH
387,1,GARAGE ZONE,Zone Air Temperature [C] !TimeStep,REPORTSCH
388,1,GARAGE ZONE,Zone Air System Sensible Heating Energy [J] !TimeStep,REPORTSCH
425,1,GARAGE ZONE,Zone Air System Sensible Cooling Energy [J] !TimeStep,REPORTSCH
450,1,GARAGE ZONE,Zone Thermostat Heating Setpoint Temperature [C] !TimeStep,REPORTSCH
451,1,GARAGE ZONE,Zone Thermostat Cooling Setpoint Temperature [C] !TimeStep,REPORTSCH
452,1,ATTIC ZONE,Zone Air Temperature [C] !TimeStep,REPORTSCH
453,1,ATTIC ZONE,Zone Air System Sensible Heating Energy [J] !TimeStep,REPORTSCH
490,1,ATTIC ZONE,Zone Air System Sensible Cooling Energy [J] !TimeStep,REPORTSCH
515,1,ATTIC ZONE,Zone Thermostat Heating Setpoint Temperature [C] !TimeStep,REPORTSCH
516,1,ATTIC ZONE,Zone Thermostat Cooling Setpoint Temperature [C] !TimeStep,REPORTSCH
542,1,ACDXCOIL 1,Cooling Coil Total Cooling Energy [J] !TimeStep,REPORTSCH
592,1,HEAT PUMP DX HEATING COIL 1,Heating Coil Heating Energy [J] !TimeStep,REPORTSCH
632,1,SUPP HEATING COIL 1,Heating Coil Heating Energy [J] !TimeStep,REPORTSCH
686,1,TWOSPEED HEAT PUMP 1,Unitary System DX Coil Cycling Ratio [] !TimeStep,REPORTSCH
687,1,TWOSPEED HEAT PUMP 1,Unitary System DX Coil Speed Ratio [] !TimeStep,REPORTSCH
688,1,TWOSPEED HEAT PUMP 1,Unitary System DX Coil Speed Level [] !TimeStep,REPORTSCH
End of Data Dictionary
1,YEARSIMULATION,  41.98, -87.92,  -6.00, 201.00
2,21, 1,21, 0, 1, 0.00,10.00,Sunday
250,22.580932286502303
251,5807897.884376187
336,0.0
385,22.346666666666668
386,26.55
387,0.6144471987586109
388,0.0
425,0.0
450,0.0
451,0.0
452,-1.6321063448433224
453,0.0
490,0.0
515,0.0
516,0.0
542,0.0
592,2610877.4707585727
632,3100173.9261652697
686,0.5487555228046407
687,0.5
688,1.1666666666666667
2,21, 1,21, 0, 1,10.00,20.00,Sunday
250,22.971392559081494
251,5675174.430113057
336,0.0
385,23.013333333333332
386,26.549999999999997
387,0.5899868772653195
388,0.0
425,0.0
450,0.0
451,0.0
452,-1.6203806074413545
453,0.0
490,0.0
515,0.0
516,0.0
542,0.0
592,3409834.1519557554
632,2234065.0946781603
686,0.7148119215560783
687,0.6666666666666667
688,1.6666666666666667
2,21, 1,21, 0, 1,20.00,30.00,Sunday
250,23.20727182812028
251,6946815.445188325
336,0.0
385,23.68
386,26.55
387,0.5605011106138952
388,0.0
425,0.0
450,0.0
451,0.0
452,-1.6088060798840818
453,0.0
490,0.0
515,0.0
516,0.0
542,0.0
592,4846920.400208826
632,2644932.609564093
686,1.0
687,1.0
688,2.0
2,21, 1,21, 0, 1,30.00,40.00,Sunday
250,23.6350874195103
251,8047124.202296136
336,0.0
385,23.68
386,26.55
387,0.5345113069833778
388,0.0
425,0.0
450,0.0
451,0.0
452,-1.6016533598828673
453,0.0
490,0.0
515,0.0
516,0.0
542,0.0
592,4829056.335774198
632,3083015.0798293645
686,1.0
687,1.0
688,2.0
2,21, 1,21, 0, 1,40.00,50.00,Sunday
250,22.576281056683975
251,5898710.9821177535
336,0.0
385,22.34666666666664
386,26.54999999999996
387,0.512595024560438
388,0.0
425,0.0
450,0.0
451,0.0
452,-1.5984472826399663
453,0.0
490,0.0
515,0.0
516,0.0
542,0.0
592,2594627.9130548723
632,3208632.7927576634
686,0.5538321799483599
687,0.49999999999999933
688,1.166666666666665
2,21, 1,21, 0, 1,50.00,60.00,Sunday
250,22.972952122679906
251,5767728.0620355755
336,0.0
385,23.01333333333335
386,26.55000000000002
387,0.48925589247377976
388,0.0
425,0.0
450,0.0
451,0.0
452,-1.596420363513798
453,0.0
490,0.0
515,0.0
516,0.0
542,0.0
592,3391280.2524973117
632,2338028.4174773507
686,0.7222759976527172
687,0.6666666666666672
688,1.6666666666666679
2,21, 1,21, 0, 2, 0.00,10.00,Sunday
250,23.209579786516926
251,7015191.693331349
336,0.0
385,23.68
386,26.55
387,0.4609859517328143
388,0.0
425,0.0
450,0.0
451,0.0
452,-1.5961771723212244
453,0.0
490,0.0
515,0.0
516,0.0
542,0.0
592,4799451.803432608
632,2759354.616611396
686,1.0
687,1.0
688,2.0
2,21, 1,21, 0, 2,10.00,20.00,Sunday
250,23.635353286711908
251,8099836.193263285
336,0.0
385,23.68
386,26.55
387,0.43580171263269973
388,0.0
425,0.0
450,0.0
451,0.0
452,-1.5995659813084835
453,0.0
490,0.0
515,0.0
516,0.0
542,0.0
592,4797416.535572195
632,3166778.425834905
686,1.0
687,1.0
688,2.0
2,21, 1,21, 0, 2,20.00,30.00,Sunday
250,22.574466724901782
251,5933898.722477683
336,0.0
385,22.346666666666685
386,26.550000000000022
387,0.4142043737994774
388,0.0
425,0.0
450,0.0
451,0.0
452,-1.6070146293513197
453,0.0
490,0.0
515,0.0
516,0.0
542,0.0
592,2592780.8888623826
632,3246226.311132212
686,0.5557616858600666
687,0.5000000000000004
688,1.1666666666666674
2,21, 1,21, 0, 2,30.00,40.00,Sunday
250,22.973258834648966
251,5790803.775574348
336,0.0
385,23.01333333333335
386,26.55000000000002
387,0.3908519078010846
388,0.0
425,0.0
450,0.0
451,0.0
452,-1.6180241723365159
453,0.0
490,0.0
515,0.0
516,0.0
542,0.0
592,3396889.918694896
632,2354102.7557437997
686,0.7238965447618515
687,0.6666666666666672
688,1.6666666666666679
2,21, 1,21, 0, 2,40.00,50.00,Sunday
250,23.210288168404517
251,7034550.327777763
336,0.0
385,23.68
386,26.55
387,0.3621437557708342
388,0.0
425,0.0
450,0.0
451,0.0
452,-1.6339531416422208
453,0.0
490,0.0
515,0.0
516,0.0
542,0.0
592,4799453.282992703
632,2778558.8575201407
686,1.0
687,1.0
688,2.0
2,21, 1,21, 0, 2,50.00,60.00,Sunday
250,23.635436557653215
251,8116920.84069536
336,0.0
385,23.68
386,26.55
387,0.3363393474374127
388,0.0
425,0.0
450,0.0
451,0.0
452,-1.6505557655298384
453,0.0
490,0.0
515,0.0
516,0.0
542,0.0
592,4797415.3047690075
632,3183687.601166575
686,1.0
687,1.0
688,2.0
2,21, 1,21, 0, 3, 0.00,10.00,Sunday
250,22.57314006624013
251,5959213.2198643545
336,0.0
385,22.346666666666668
386,26.55
387,0.3145902439078952
388,0.0
425,0.0
450,0.0
451,0.0
452,-1.6652068828251259
453,0.0
490,0.0
515,0.0
516,0.0
542,0.0
592,2597235.83398307
632,3267514.8218507464
686,0.5570485879619708
687,0.5
688,1.1666666666666667
2,21, 1,21, 0, 3,10.00,20.00,Sunday
250,22.973879424862847
251,5829032.824082682
336,0.0
385,23.013333333333332
386,26.549999999999997
387,0.2918126543324598
388,0.0
425,0.0
450,0.0
451,0.0
452,-1.6771399570751822
453,0.0
490,0.0
515,0.0
516,0.0
542,0.0
592,3406874.860642178
632,2379521.3998672613
686,0.7267813204270973
687,0.6666666666666667
688,1.6666666666666667
2,21, 1,21, 0, 3,20.00,30.00,Sunday
250,23.211387106229534
251,7081107.789223804
336,0.0
385,23.68
386,26.55
387,0.264794248184778
388,0.0
425,0.0
450,0.0
451,0.0
452,-1.6850515879802823
453,0.0
490,0.0
515,0.0
516,0.0
542,0.0
592,4799455.974935806
632,2824685.6951650428
686,1.0
687,1.0
688,2.0
2,21, 1,21, 0, 3,30.00,40.00,Sunday
250,23.635580471998306
251,8173721.788852163
336,0.0
385,23.68
386,26.55
387,0.24175301831619145
388,0.0
425,0.0
450,0.0
451,0.0
452,-1.6856731373912004
453,0.0
490,0.0
515,0.0
516,0.0
542,0.0
592,4797413.343799083
632,3240211.321175933
686,1.0
687,1.0
688,2.0
2,21, 1,21, 0, 3,40.00,50.00,Sunday
250,22.57030236268058
251,6013240.708474118
336,0.0
385,22.34666666666664
386,26.54999999999996
387,0.22324129345664476
388,0.0
425,0.0
450,0.0
451,0.0
452,-1.6812577541426637
453,0.0
490,0.0
515,0.0
516,0.0
542,0.0
592,2606674.2708580047
632,3313024.3546371204
686,0.5597750833034831
687,0.49999999999999933
688,1.166666666666665
2,21, 1,21, 0, 3,50.00,60.00,Sunday
250,22.97477210023808
251,5886197.925211932
336,0.0
385,23.01333333333335
386,26.55000000000002
387,0.2042461292194017
388,0.0
425,0.0
450,0.0
451,0.0
452,-1.6737819695884304
453,0.0
490,0.0
515,0.0
516,0.0
542,0.0
592,3422077.0496006636
632,2417333.1618062006
686,0.7311733133438021
687,0.6666666666666672
688,1.6666666666666679
2,21, 1,21, 0, 4, 0.00,10.00,Sunday
250,23.21315199556524
251,7198804.370991042
336,0.0
385,23.68
386,26.55
387,0.17749264840495557
388,0.0
425,0.0
450,0.0
451,0.0
452,-1.6637712520395889
453,0.0
490,0.0
515,0.0
516,0.0
542,0.0
592,4795031.525263001
632,2946180.936811917
686,1.0
687,1.0
688,2.0
2,21, 1,21, 0, 4,10.00,20.00,Sunday
250,23.635843698180047
251,8358743.24234695
336,0.0
385,23.68
386,26.55
387,0.14922688543332613
388,0.0
425,0.0
450,0.0
451,0.0
452,-1.6565024772354828
453,0.0
490,0.0
515,0.0
516,0.0
542,0.0
592,4787548.386008013
632,3434649.103206544
686,1.0
687,1.0
688,2.0
2,21, 1,21, 0, 4,20.00,30.00,Sunday
250,22.55704362767431
251,6264410.524084253
336,0.0
385,22.346666666666685
386,26.550000000000022
387,0.12183537826108198
388,0.0
425,0.0
450,0.0
451,0.0
452,-1.653952529705997
453,0.0
490,0.0
515,0.0
516,0.0
542,0.0
592,2643046.778920074
632,3532135.674926197
686,0.5726356463734081
687,0.5000000000000004
688,1.1666666666666674
2,21, 1,21, 0, 4,30.00,40.00,Sunday
250,22.980482831790248
251,6228247.50917223
336,0.0
385,23.01333333333335
386,26.55000000000002
387,0.09103635146210844
388,0.0
425,0.0
450,0.0
451,0.0
452,-1.6552401389665934
453,0.0
490,0.0
515,0.0
516,0.0
542,0.0
592,3503376.8913958007
632,2651216.155229862
686,0.7590598589202241
687,0.6666666666666672
688,1.6666666666666679
2,21, 1,21, 0, 4,40.00,50.00,Sunday
250,23.220004864121428
251,7510176.300914955
336,0.0
385,23.68
386,26.55
387,0.05185669086542835
388,0.0
425,0.0
450,0.0
451,0.0
452,-1.6618395282507377
453,0.0
490,0.0
515,0.0
516,0.0
542,0.0
592,4775789.154254839
632,3270440.828764266
686,1.0
687,1.0
688,2.0
2,21, 1,21, 0, 4,50.00,60.00,Sunday
250,23.636649168868736
251,8679150.502665656
336,0.0
385,23.68
386,26.55
387,0.015565412705103015
388,0.0
425,0.0
450,0.0
451,0.0
452,-1.6717039227310528
453,0.0
490,0.0
515,0.0
516,0.0
542,0.0
592,4765962.654835397
632,3774858.259040522
686,1.0
687,1.0
688,2.0
2,21, 1,21, 0, 5, 0.00,10.00,Sunday
250,22.546108486361266
251,6472519.509657158
336,0.0
385,22.346666666666668
386,26.55
387,-0.007297292286451984
388,0.0
425,0.0
450,0.0
451,0.0
452,-1.6792099102940854
453,0.0
490,0.0
515,0.0
516,0.0
542,0.0
592,2668381.303820177
632,3718465.4490583604
686,0.5835450538810997
687,0.5
688,1.1666666666666667
2,21, 1,21, 0, 5,10.00,20.00,Sunday
250,22.981938215773006
251,6335829.609705745
336,0.0
385,23.013333333333332
386,26.549999999999997
387,-0.024850860697367853
388,0.0
425,0.0
450,0.0
451,0.0
452,-1.6816418276694
453,0.0
490,0.0
515,0.0
516,0.0
542,0.0
592,3516750.0194364153
632,2738278.400947972
686,0.7678425207703797
687,0.6666666666666667
688,1.6666666666666667
2,21, 1,21, 0, 5,20.00,30.00,Sunday
250,23.22178994691919
251,7490085.831308095
336,0.0
385,23.68
386,26.55
387,-0.04037273718035167
388,0.0
425,0.0
450,0.0
451,0.0
452,-1.6755647866187802
453,0.0
490,0.0
515,0.0
516,0.0
542,0.0
592,4751135.797930194
632,3272840.2574726935
686,1.0
687,1.0
688,2.0
2,21, 1,21, 0, 5,30.00,40.00,Sunday
250,23.636788631346832
251,8548675.09781631
336,0.0
385,23.68
386,26.55
387,-0.05004713930296494
388,0.0
425,0.0
450,0.0
451,0.0
452,-1.6605119894155158
453,0.0
490,0.0
515,0.0
516,0.0
542,0.0
592,4740911.631900673
632,3668958.94565057
686,1.0
687,1.0
688,2.0
2,21, 1,21, 0, 5,40.00,50.00,Sunday
250,22.55313312242849
251,6339949.64165532
336,0.0
385,22.34666666666664
386,26.54999999999996
387,-0.05453736258226641
388,0.0
425,0.0
450,0.0
451,0.0
452,-1.6387776439464532
453,0.0
490,0.0
515,0.0
516,0.0
542,0.0
592,2631589.0037618745
632,3620293.93855801
686,0.5772049796729588
687,0.49999999999999933
688,1.166666666666665
2,21, 1,21, 0, 5,50.00,60.00,Sunday
250,22.979713487904036
251,6193257.027971678
336,0.0
385,23.01333333333335
386,26.55000000000002
387,-0.056970043663555
388,0.0
425,0.0
450,0.0
451,0.0
452,-1.610398865279185
453,0.0
490,0.0
515,0.0
516,0.0
542,0.0
592,3456766.538560441
632,2666373.5025933282
686,0.7563130838580581
687,0.6666666666666672
688,1.6666666666666679
2,21, 1,21, 0, 6, 0.00,10.00,Sunday
250,23.219875108315396
251,7448758.704969892
336,0.0
385,23.68
386,26.55
387,-0.06635056609366688
388,0.0
425,0.0
450,0.0
451,0.0
452,-1.5783251917650307
453,0.0
490,0.0
515,0.0
516,0.0
542,0.0
592,4724281.091826019
632,3261518.1655963003
686,1.0
687,1.0
688,2.0
2,21, 1,21, 0, 6,10.00,20.00,Sunday
250,23.63662692934776
251,8588502.553312892
336,0.0
385,23.68
386,26.55
387,-0.08317949742614686
388,0.0
425,0.0
450,0.0
451,0.0
452,-1.560754532718218
453,0.0
490,0.0
515,0.0
516,0.0
542,0.0
592,4717602.554906227
632,3732614.533206192
686,1.0
687,1.0
688,2.0
2,21, 1,21, 0, 6,20.00,30.00,Sunday
250,22.546545999376967
251,6464566.27068657
336,0.0
385,22.346666666666685
386,26.550000000000022
387,-0.10394426733396407
388,0.0
425,0.0
450,0.0
451,0.0
452,-1.559990521475717
453,0.0
490,0.0
515,0.0
516,0.0
542,0.0
592,2643192.948315567
632,3735440.5506101293
686,0.5839267440162053
687,0.5000000000000004
688,1.1666666666666674
2,21, 1,21, 0, 6,30.00,40.00,Sunday
250,22.983630222054977
251,6418456.508335115
336,0.0
385,23.01333333333335
386,26.55000000000002
387,-0.12908273563921463
388,0.0
425,0.0
450,0.0
451,0.0
452,-1.56936644278067
453,0.0
490,0.0
515,0.0
516,0.0
542,0.0
592,3508406.3823241945
632,2821507.8398612537
686,0.7753226218912055
687,0.6666666666666672
688,1.6666666666666679
2,21, 1,21, 0, 6,40.00,50.00,Sunday
250,23.22416074449892
251,7655214.879920609
336,0.0
385,23.68
386,26.55
387,-0.16296309212173293
388,0.0
425,0.0
450,0.0
451,0.0
452,-1.590956538683133
453,0.0
490,0.0
515,0.0
516,0.0
542,0.0
592,4708151.235159556
632,3479740.2855868326
686,1.0
687,1.0
688,2.0
2,21, 1,21, 0, 6,50.00,60.00,Sunday
250,23.637116318747815
251,8799623.333817253
336,0.0
385,23.68
386,26.55
387,-0.19552718814339937
388,0.0
425,0.0
450,0.0
451,0.0
452,-1.6190637485828132
453,0.0
490,0.0
515,0.0
516,0.0
542,0.0
592,4699143.17672381
632,3961083.643450409
686,1.0
687,1.0
688,2.0
2,21, 1,21, 0, 7, 0.00,10.00,Sunday
250,22.537370559797957
251,6638445.877845668
336,0.0
385,22.346666666666668
386,26.55
387,-0.22932062714804785
388,0.0
425,0.0
450,0.0
451,0.0
452,-1.6640584187439724
453,0.0
490,0.0
515,0.0
516,0.0
542,0.0
592,2677579.3652085722
632,3878001.7488190066
686,0.5927647923952327
687,0.5
688,1.1666666666666667
2,21, 1,21, 0, 7,10.00,20.00,Sunday
250,22.985741990810297
251,6565670.222559332
336,0.0
385,23.013333333333332
386,26.549999999999997
387,-0.27260144142243703
388,0.0
425,0.0
450,0.0
451,0.0
452,-1.7443524141786262
453,0.0
490,0.0
515,0.0
516,0.0
542,0.0
592,3572243.141115333
632,2894658.943124998
686,0.7869449694815859
687,0.6666666666666667
688,1.6666666666666667
2,21, 1,21, 0, 7,20.00,30.00,Sunday
250,23.226369410173
251,7745120.020437024
336,0.0
385,23.68
386,26.55
387,-0.3342869741060843
388,0.0
425,0.0
450,0.0
451,0.0
452,-1.8809096731051935
453,0.0
490,0.0
515,0.0
516,0.0
542,0.0
592,4767670.491381909
632,3507184.549481752
686,1.0
687,1.0
688,2.0
2,21, 1,21, 0, 7,30.00,40.00,Sunday
250,23.63732423643776
251,8856675.134893302
336,0.0
385,23.68
386,26.55
387,-0.39705575716011976
388,0.0
425,0.0
450,0.0
451,0.0
452,-2.0427841895499625
453,0.0
490,0.0
515,0.0
516,0.0
542,0.0
592,4781700.938481893
632,3934982.0245308625
686,1.0
687,1.0
688,2.0
2,21, 1,21, 0, 7,40.00,50.00,Sunday
250,22.53420818898193
251,6697149.2132978765
336,0.0
385,22.34666666666664
386,26.54999999999996
387,-0.458687549744164
388,0.0
425,0.0
450,0.0
451,0.0
452,-2.2230078169114034
453,0.0
490,0.0
515,0.0
516,0.0
542,0.0
592,2728677.6619998813
632,3886876.552651414
686,0.5943450977821605
687,0.49999999999999933
688,1.166666666666665
2,21, 1,21, 0, 7,50.00,60.00,Sunday
250,22.98639723919208
251,6627916.768755833
336,0.0
385,23.01333333333335
386,26.55000000000002
387,-0.5311889523304609
388,0.0
425,0.0
450,0.0
451,0.0
452,-2.4425760920397166
453,0.0
490,0.0
515,0.0
516,0.0
542,0.0
592,3643417.5391001566
632,2882513.909677429
686,0.790653719635019
687,0.6666666666666672
688,1.6666666666666679
2,21, 1,21, 0, 8, 0.00,10.00,Sunday
250,23.22718046888719
251,7796053.653832527
336,0.0
385,23.68
386,26.55
387,-0.6172034257074198
388,0.0
425,0.0
450,0.0
451,0.0
452,-2.7070670168043
453,0.0
490,0.0
515,0.0
516,0.0
542,0.0
592,4836909.788202304
632,3487826.0429055695
686,1.0
687,1.0
688,2.0
2,21, 1,21, 0, 8,10.00,20.00,Sunday
250,23.63741714424063
251,8844323.439105472
336,0.0
385,23.68
386,26.55
387,-0.6792942012842433
388,0.0
425,0.0
450,0.0
451,0.0
452,-2.8540156630219604
453,0.0
490,0.0
515,0.0
516,0.0
542,0.0
592,4840495.67878399
632,3863593.3770438423
686,1.0
687,1.0
688,2.0
2,21, 1,21, 0, 8,20.00,30.00,Sunday
250,22.53673671149139
251,6648808.231365308
336,0.0
385,22.346666666666685
386,26.550000000000022
387,-0.7172404250872768
388,0.0
425,0.0
450,0.0
451,0.0
452,-2.852481987145684
453,0.0
490,0.0
515,0.0
516,0.0
542,0.0
592,2745677.1589885512
632,3820800.669129599
686,0.591037517994125
687,0.5000000000000004
688,1.1666666666666674
2,21, 1,21, 0, 8,30.00,40.00,Sunday
250,22.984130887424282
251,6503656.98277782
336,0.0
385,23.01333333333335
386,26.55000000000002
387,-0.7461447255457736
388,0.0
425,0.0
450,0.0
451,0.0
452,-2.7549232486799187
453,0.0
490,0.0
515,0.0
516,0.0
542,0.0
592,3637051.339902856
632,2775244.462238556
686,0.7797302777052717
687,0.6666666666666672
688,1.6666666666666679
2,21, 1,21, 0, 8,40.00,50.00,Sunday
250,23.223986028793313
251,7590636.451262073
336,0.0
385,23.68
386,26.55
387,-0.7652503177977502
388,0.0
425,0.0
450,0.0
451,0.0
452,-2.5207798668988257
453,0.0
490,0.0
515,0.0
516,0.0
542,0.0
592,4879011.083558723
632,3242199.5428614146
686,1.0
687,1.0
688,2.0
2,21, 1,21, 0, 8,50.00,60.00,Sunday
250,23.636978295169584
251,8592291.033784613
336,0.0
385,23.68
386,26.55
387,-0.7633135147048811
388,0.0
425,0.0
450,0.0
451,0.0
452,-2.2073667595728703
453,0.0
490,0.0
515,0.0
516,0.0
542,0.0
592,4882533.2769896565
632,3570316.1401409926
686,1.0
687,1.0
688,2.0
2,21, 1,21, 0, 9, 0.00,10.00,Sunday
250,22.55263967202571
251,6346285.4438472735
336,0.0
385,22.346666666666668
386,26.55
387,-0.737359719888318
388,0.0
425,0.0
450,0.0
451,0.0
452,-1.8283429648843503
453,0.0
490,0.0
515,0.0
516,0.0
542,0.0
592,2717432.8578966507
632,3541305.8272711067
686,0.5751813421637517
687,0.5
688,1.1666666666666667
2,21, 1,21, 0, 9,10.00,20.00,Sunday
250,22.978709191186844
251,6159933.357281134
336,0.0
385,23.013333333333332
386,26.549999999999997
387,-0.6922459573082629
388,0.0
425,0.0
450,0.0
451,0.0
452,-1.3472277789477984
453,0.0
490,0.0
515,0.0
516,0.0
542,0.0
592,3582184.6938499045
632,2511768.121441434
686,0.7523449421375004
687,0.6666666666666667
688,1.6666666666666667
2,21, 1,21, 0, 9,20.00,30.00,Sunday
250,23.01081631138588
251,7498298.588234538
336,0.0
385,23.013333333333325
386,26.54999999999999
387,-0.6128868825675704
388,0.0
425,0.0
450,0.0
451,0.0
452,-0.641179545206989
453,0.0
490,0.0
515,0.0
516,0.0
542,0.0
592,3314300.1763853203
632,4005338.132030747
686,0.8020904087360395
687,0.3374342322045035
688,1.666666666666666
2,21, 1,21, 0, 9,30.00,40.00,Sunday
250,23.011991505126225
251,7463779.9939753655
336,0.0
385,23.013333333333343
386,26.55000000000001
387,-0.5266956055514802
388,0.0
425,0.0
450,0.0
451,0.0
452,0.007474188270095182
453,0.0
490,0.0
515,0.0
516,0.0
542,0.0
592,3334752.551425679
632,3945916.7561214212
686,0.8005529850164179
687,0.34718455364710843
688,1.666666666666667
2,21, 1,21, 0, 9,40.00,50.00,Sunday
250,23.01165075094417
251,7444604.609254445
336,0.0
385,23.01333333333335
386,26.55000000000002
387,-0.4463256233255597
388,0.0
425,0.0
450,0.0
451,0.0
452,0.6227550814783981
453,0.0
490,0.0
515,0.0
516,0.0
542,0.0
592,3328466.789611041
632,3935112.187954676
686,0.798579843654967
687,0.3387499166563231
688,1.6666666666666679
2,21, 1,21, 0, 9,50.00,60.00,Sunday
250,23.615007656918912
251,8134773.0549280085
336,0.0
385,23.68
386,26.55
387,-0.37489765689799415
388,0.0
425,0.0
450,0.0
451,0.0
452,1.1292958803587039
453,0.0
490,0.0
515,0.0
516,0.0
542,0.0
592,4988976.2656140765
632,3061686.027077053
686,1.0
687,1.0
688,2.0
2,21, 1,21, 0,10, 0.00,10.00,Sunday
250,22.56224817791739
251,6145931.007322373
336,0.0
385,22.346666666666668
386,26.55
387,-0.3029105160279836
388,0.0
425,0.0
450,0.0
451,0.0
452,1.5921520351756828
453,0.0
490,0.0
515,0.0
516,0.0
542,0.0
592,2744022.46757325
632,3311548.710917987
686,0.5639159787918434
687,0.5
688,1.1666666666666667
2,21, 1,21, 0,10,10.00,20.00,Sunday
250,22.9739122322113
251,5879484.40452045
336,0.0
385,23.013333333333332
386,26.549999999999997
387,-0.21675991406530065
388,0.0
425,0.0
450,0.0
451,0.0
452,2.1005587374413084
453,0.0
490,0.0
515,0.0
516,0.0
542,0.0
592,3600573.91963841
632,2234911.2597750877
686,0.7297621350964376
687,0.6666666666666667
688,1.6666666666666667
2,21, 1,21, 0,10,20.00,30.00,Sunday
250,23.005403958830254
251,7206070.679624395
336,0.0
385,23.013333333333325
386,26.54999999999999
387,-0.08224528518736177
388,0.0
425,0.0
450,0.0
451,0.0
452,2.7905389444139983
453,0.0
490,0.0
515,0.0
516,0.0
542,0.0
592,3182613.729931734
632,3878138.4971926273
686,0.7391152923943202
687,0.3333333333333332
688,1.3333333333333328
2,21, 1,21, 0,10,30.00,40.00,Sunday
250,23.00562050426806
251,7120391.201518335
336,0.0
385,23.013333333333343
386,26.55000000000001
387,0.048528669879440545
388,0.0
425,0.0
450,0.0
451,0.0
452,3.4215625379697516
453,0.0
490,0.0
515,0.0
516,0.0
542,0.0
592,3175690.9445590074
632,3800245.0640886645
686,0.7315940755210766
687,0.3333333333333332
688,1.3333333333333335
2,21, 1,21, 0,10,40.00,50.00,Sunday
250,23.00361120689968
251,7014557.1131761875
336,0.0
385,23.01333333333335
386,26.55000000000002
387,0.18695258801048592
388,0.0
425,0.0
450,0.0
451,0.0
452,4.098710059775025
453,0.0
490,0.0
515,0.0
516,0.0
542,0.0
592,3121232.5123287453
632,3759216.9662325657
686,0.7113430988836187
687,0.3333333333333336
688,1.3333333333333344
2,21, 1,21, 0,10,50.00,60.00,Sunday
250,23.001698916257425
251,6905909.374815365
336,0.0
385,23.01333333333335
386,26.55000000000002
387,0.34330189609360595
388,0.0
425,0.0
450,0.0
451,0.0
452,4.856686889643459
453,0.0
490,0.0
515,0.0
516,0.0
542,0.0
592,3064219.9999867985
632,3718642.356270562
686,0.6906677495173835
687,0.3333333333333336
688,1.3333333333333344
2,21, 1,21, 0,11, 0.00,10.00,Sunday
250,22.999860674098684
251,6799204.321975754
336,0.0
385,23.013333333333332
386,26.55
387,0.5135868877420471
388,0.0
425,0.0
450,0.0
451,0.0
452,5.678999726461546
453,0.0
490,0.0
515,0.0
516,0.0
542,0.0
592,3002385.491677819
632,3684321.0848661824
686,0.6712427452806563
687,0.3333333333333333
688,1.3333333333333335
2,21, 1,21, 0,11,10.00,20.00,Sunday
250,22.997994722968112
251,6689731.623348703
336,0.0
385,23.013333333333332
386,26.549999999999997
387,0.6946248800311055
388,0.0
425,0.0
450,0.0
451,0.0
452,6.5467060611426655
453,0.0
490,0.0
515,0.0
516,0.0
542,0.0
592,2939256.1992784543
632,3648661.383879045
686,0.6516116831737258
687,0.33333333333333337
688,1.3333333333333333
2,21, 1,21, 0,11,20.00,30.00,Sunday
250,22.767762069458552
251,5844038.607652571
336,0.0
385,22.68
386,26.55
387,0.8448388444067536
388,0.0
425,0.0
450,0.0
451,0.0
452,7.320352028163272
453,0.0
490,0.0
515,0.0
516,0.0
542,0.0
592,3934539.7052288996
632,1759138.0663275304
686,0.75
687,0.75
688,1.5
2,21, 1,21, 0,11,30.00,40.00,Sunday
250,22.718079757407274
251,6349008.150212057
336,0.0
385,22.68
386,26.55
387,1.0780369347929795
388,0.0
425,0.0
450,0.0
451,0.0
452,8.346380727772111
453,0.0
490,0.0
515,0.0
516,0.0
542,0.0
592,3209810.077231586
632,3064061.7695071753
686,0.652246669122286
687,0.5
688,1.25
2,21, 1,21, 0,11,40.00,50.00,Sunday
250,22.721122270622214
251,6180317.101314183
336,0.0
385,22.68
386,26.55
387,1.3068639210248798
388,0.0
425,0.0
450,0.0
451,0.0
452,9.220673019117566
453,0.0
490,0.0
515,0.0
516,0.0
542,0.0
592,3220858.008053495
632,2888697.109355866
686,0.6521682985935148
687,0.5
688,1.25
2,21, 1,21, 0,11,50.00,60.00,Sunday
250,22.969519941152353
251,4858510.983713736
336,0.0
385,23.01333333333335
386,26.55000000000002
387,1.4846475973977062
388,0.0
425,0.0
450,0.0
451,0.0
452,9.870084428967775
453,0.0
490,0.0
515,0.0
516,0.0
542,0.0
592,3533906.683044303
632,1320906.9282970936
686,0.6666666666666672
687,0.6666666666666672
688,1.3333333333333344
2,21, 1,21, 0,12, 0.00,10.00,Sunday
250,22.60008185052247
251,4958023.513773213
336,0.0
385,22.480000000000004
386,26.550000000000004
387,1.6613810468981676
388,0.0
425,0.0
450,0.0
451,0.0
452,10.436502697762151
453,0.0
490,0.0
515,0.0
516,0.0
542,0.0
592,2471821.881071683
632,2543844.639421438
686,0.4908544161220245
687,0.4
688,1.0
2,21, 1,21, 0,12,10.00,20.00,Sunday
250,22.945448058641887
251,6684091.2808702355
336,0.0
385,23.013333333333332
386,26.549999999999997
387,1.848425344868537
388,0.0
425,0.0
450,0.0
451,0.0
452,10.92981464542407
453,0.0
490,0.0
515,0.0
516,0.0
542,0.0
592,3938697.602934026
632,2783960.68009729
686,0.8980125906772211
687,0.33333333333333337
688,1.3333333333333333
2,21, 1,21, 0,12,20.00,30.00,Sunday
250,23.029777239676598
251,4860858.635133516
336,0.0
385,23.013333333333325
386,26.54999999999999
387,2.1017473537950466
388,0.0
425,0.0
450,0.0
451,0.0
452,11.4292019153363
453,0.0
490,0.0
515,0.0
516,0.0
542,0.0
592,3548330.085398586
632,1269510.787113539
686,0.6666666666666664
687,0.6666666666666664
688,1.3333333333333328
2,21, 1,21, 0,12,30.00,40.00,Sunday
250,22.622933370261606
251,4778839.373457903
336,0.0
385,22.479999999999997
386,26.54999999999999
387,2.2462829844839627
388,0.0
425,0.0
450,0.0
451,0.0
452,11.640887422220805
453,0.0
490,0.0
515,0.0
516,0.0
542,0.0
592,2426127.8779288665
632,2404838.437387671
686,0.4762545447729361
687,0.3999999999999997
688,0.9999999999999993
2,21, 1,21, 0,12,40.00,50.00,Sunday
250,22.944568889797846
251,6524985.290977163
336,0.0
385,23.01333333333335
386,26.55000000000002
387,2.382425767417582
388,0.0
425,0.0
450,0.0
451,0.0
452,11.740825093788935
453,0.0
490,0.0
515,0.0
516,0.0
542,0.0
592,3837020.0736649926
632,2734159.430925632
686,0.8674094722134177
687,0.3333333333333336
688,1.3333333333333344
2,21, 1,21, 0,12,50.00,60.00,Sunday
250,23.037684840559493
251,4783190.922351477
336,0.0
385,23.01333333333335
386,26.55000000000002
387,2.5532278654223886
388,0.0
425,0.0
450,0.0
451,0.0
452,11.738904615562966
453,0.0
490,0.0
515,0.0
516,0.0
542,0.0
592,3563091.5006535226
632,1177188.6225066935
686,0.6666666666666672
687,0.6666666666666672
688,1.3333333333333344
2,21, 1,21, 0,13, 0.00,10.00,Sunday
250,22.633199025342464
251,4677982.690217011
336,0.0
385,22.480000000000004
386,26.550000000000004
387,2.6439681092331004
388,0.0
425,0.0
450,0.0
451,0.0
452,11.647267843598339
453,0.0
490,0.0
515,0.0
516,0.0
542,0.0
592,2400216.2056341846
632,2328149.0512149897
686,0.46820948055842915
687,0.4
688,1.0
2,21, 1,21, 0,13,10.00,20.00,Sunday
250,22.94336721484593
251,6349639.90411175
336,0.0
385,23.013333333333332
386,26.549999999999997
387,2.728447197366041
388,0.0
425,0.0
450,0.0
451,0.0
452,11.555089080677224
453,0.0
490,0.0
515,0.0
516,0.0
542,0.0
592,3721410.3043616833
632,2683546.5099702207
686,0.8374451279656288
687,0.33333333333333337
688,1.3333333333333333
2,21, 1,21, 0,13,20.00,30.00,Sunday
250,23.055948492724255
251,4628796.434797315
336,0.0
385,23.013333333333325
386,26.54999999999999
387,2.837073002474948
388,0.0
425,0.0
450,0.0
451,0.0
452,11.467245505563803
453,0.0
490,0.0
515,0.0
516,0.0
542,0.0
592,3555581.0781786665
632,1030448.9378616185
686,0.6666666666666664
687,0.6666666666666664
688,1.3333333333333328
2,21, 1,21, 0,13,30.00,40.00,Sunday
250,22.65175376970187
251,4514398.030300354
336,0.0
385,22.479999999999997
386,26.54999999999999
387,2.9025847461878733
388,0.0
425,0.0
450,0.0
451,0.0
452,11.439803818852882
453,0.0
490,0.0
515,0.0
516,0.0
542,0.0
592,2348758.586546238
632,2212347.9157717507
686,0.4561149380669078
687,0.3999999999999997
688,0.9999999999999993
2,21, 1,21, 0,13,40.00,50.00,Sunday
250,22.941542176623997
251,6134452.353754576
336,0.0
385,23.01333333333335
386,26.55000000000002
387,2.9701191199605086
388,0.0
425,0.0
450,0.0
451,0.0
452,11.423371030597018
453,0.0
490,0.0
515,0.0
516,0.0
542,0.0
592,3569757.6000526724
632,2631502.880013678
686,0.8000768579870154
687,0.3333333333333336
688,1.3333333333333344
2,21, 1,21, 0,13,50.00,60.00,Sunday
250,23.07275107767148
251,4487194.484650573
336,0.0
385,23.01333333333335
386,26.55000000000002
387,3.0627807072862536
388,0.0
425,0.0
450,0.0
451,0.0
452,11.408716007421315
453,0.0
490,0.0
515,0.0
516,0.0
542,0.0
592,3548063.8941646004
632,896641.4827654517
686,0.6666666666666672
687,0.6666666666666672
688,1.3333333333333344
2,21, 1,21, 0,14, 0.00,10.00,Sunday
250,22.666443449722422
251,4388808.057080953
336,0.0
385,22.480000000000004
386,26.550000000000004
387,3.124536884491294
388,0.0
425,0.0
450,0.0
451,0.0
452,11.368200209283875
453,0.0
490,0.0
515,0.0
516,0.0
542,0.0
592,2314236.1512830765
632,2118279.336536911
686,0.4466397816947587
687,0.4
688,1.0
2,21, 1,21, 0,14,10.00,20.00,Sunday
250,22.94043439072634
251,6003679.722013143
336,0.0
385,23.013333333333332
386,26.549999999999997
387,3.188387470540537
388,0.0
425,0.0
450,0.0
451,0.0
452,11.263967336256986
453,0.0
490,0.0
515,0.0
516,0.0
542,0.0
592,3484565.6680870866
632,2594095.408835607
686,0.7742648496549771
687,0.33333333333333337
688,1.3333333333333333
2,21, 1,21, 0,14,20.00,30.00,Sunday
250,23.080757503839838
251,4420014.550160352
336,0.0
385,23.013333333333325
386,26.54999999999999
387,3.2725436135496233
388,0.0
425,0.0
450,0.0
451,0.0
452,11.062726460572264
453,0.0
490,0.0
515,0.0
516,0.0
542,0.0
592,3571716.2347442326
632,805965.3123217431
686,0.6666666666666664
687,0.6666666666666664
688,1.3333333333333328
2,21, 1,21, 0,14,30.00,40.00,Sunday
250,22.6735039948711
251,4329981.362271095
336,0.0