Program Version,EnergyPlus, Version 24.1.0-9d7789a3ac, YMD=2025.04.05 15:40
1,5,Environment Title[],Latitude[deg],Longitude[deg],Time Zone[],Elevation[m]
2,8,Day of Simulation[],Month[],Day of Month[],DST Indicator[1=yes 0=no],Hour[],StartMinute[],EndMinute[],DayType
3,5,Cumulative Day of Simulation[],Month[],Day of Month[],DST Indicator[1=yes 0=no],DayType  ! When Daily Report Variables Requested
4,2,Cumulative Days of Simulation[],Month[]  ! When Monthly Report Variables Requested
5,1,Cumulative Days of Simulation[] ! When Run Period Report Variables Requested
6,1,Calendar Year of Simulation[] ! When Annual Report Variables Requested
250,1,LIVING ZONE,Zone Air Temperature [C] !TimeStep,REPORTSCH
251,1,LIVING ZONE,Zone Air System Sensible Heating Energy [J] !TimeStep,REPORTSCH
336,1,LIVING ZONE,Zone Air System Sensible Cooling Energy [J] !TimeStep,REPORTSCH
385,1,LIVING ZONE,Zone Thermostat Heating Setpoint Temperature [C] !TimeStep,REPORTSCH
386,1,LIVING ZONE,Zone Thermostat Cooling Setpoint Temperature [C] !TimeStep,REPORTSCH
387,1,GARAGE ZONE,Zone Air Temperature [C] !TimeStep,REPORTSCH
388,1,GARAGE ZONE,Zone Air System Sensible Heating Energy [J] !TimeStep,REPORTSCH
425,1,GARAGE ZONE,Zone Air System Sensible Cooling Energy [J] !TimeStep,REPORTSCH
450,1,GARAGE ZONE,Zone Thermostat Heating Setpoint Temperature [C] !TimeStep,REPORTSCH
451,1,GARAGE ZONE,Zone Thermostat Cooling Setpoint Temperature [C] !TimeStep,REPORTSCH
452,1,ATTIC ZONE,Zone Air Temperature [C] !TimeStep,REPORTSCH
453,1,ATTIC ZONE,Zone Air System Sensible Heating Energy [J] !TimeStep,REPORTSCH
490,1,ATTIC ZONE,Zone Air System Sensible Cooling Energy [J] !TimeStep,REPORTSCH
515,1,ATTIC ZONE,Zone Thermostat Heating Setpoint Temperature [C] !TimeStep,REPORTSCH
516,1,ATTIC ZONE,Zone Thermostat Cooling Setpoint Temperature [C] !TimeStep,REPORTSCH
542,1,ACDXCOIL 1,Cooling Coil Total Cooling Energy [J] !TimeStep,REPORTSCH
592,1,HEAT PUMP DX HEATING COIL 1,Heating Coil Heating Energy [J] !TimeStep,REPORTSCH
632,1,SUPP HEATING COIL 1,Heating Coil Heating Energy [J] !TimeStep,REPORTSCH
686,1,TWOSPEED HEAT PUMP 1,Unitary System DX Coil Cycling Ratio [] !TimeStep,REPORTSCH
687,1,TWOSPEED HEAT PUMP 1,Unitary System DX Coil Speed Ratio [] !TimeStep,REPORTSCH
688,1,TWOSPEED HEAT PUMP 1,Unitary System DX Coil Speed Level [] !TimeStep
End of Data Dictionary
1,RUN PERIOD 1,  41.98, -87.92,  -6.00, 201.00
2,21, 1,21, 0, 1, 0.00,10.00,Monday
250,24.01514373295972
251,6777987.33578084
336,0.0
385,24.12
386,30.21
387,0.6777431312055993
388,0.0
425,0.0
450,0.0
451,0.0
452,-1.5671454886418443
453,0.0
490,0.0
515,0.0
516,0.0
542,0.0
592,4876805.408214218
632,1936654.1356563643
686,1.0
687,1.0
688,2.0
2,21, 1,21, 0, 1,10.00,20.00,Monday
250,24.11271170030951
251,6092471.482469918
336,0.0
385,24.12
386,30.21
387,0.6458732508077193
388,0.0
425,0.0
450,0.0
451,0.0
452,-1.554767144506753
453,0.0
490,0.0
515,0.0
516,0.0
542,0.0
592,4860297.128483826
632,1009005.1703080549
686,1.0
687,1.0
688,2.0
2,21, 1,21, 0, 1,20.00,30.00,Monday
250,23.08769955124702
251,4717546.624365421
336,0.0
385,22.786666666666687
386,30.210000000000022
387,0.6218369149439247
388,0.0
425,0.0
450,0.0
451,0.0
452,-1.5476414897309265
453,0.0
490,0.0
515,0.0
516,0.0
542,0.0
592,2083552.0981534338
632,2566440.190847775
686,0.47187208076023407
687,0.32015389403991
688,0.833333333333334
2,21, 1,21, 0, 1,30.00,40.00,Monday
250,24.015960721674162
251,6827531.284841425
336,0.0
385,24.12
386,30.21
387,0.5970932836283978
388,0.0
425,0.0
450,0.0
451,0.0
452,-1.542182308845062
453,0.0
490,0.0
515,0.0
516,0.0
542,0.0
592,4829328.623448564
632,2032047.3934761982
686,1.0
687,1.0
688,2.0
2,21, 1,21, 0, 1,40.00,50.00,Monday
250,24.112785806579367
251,6150768.402317004
336,0.0
385,24.12
386,30.21
387,0.5682327129197595
388,0.0
425,0.0
450,0.0
451,0.0
452,-1.5379357943501837
453,0.0
490,0.0
515,0.0
516,0.0
542,0.0
592,4812841.12045753
632,1114652.3719746456
686,1.0
687,1.0
688,2.0
2,21, 1,21, 0, 1,50.00,60.00,Monday
250,23.08139819187544
251,4773254.946981806
336,0.0
385,22.786666666666633
386,30.209999999999958
387,0.5457312433454351
388,0.0
425,0.0
450,0.0
451,0.0
452,-1.5364530627514137
453,0.0
490,0.0
515,0.0
516,0.0
542,0.0
592,2104178.750880512
632,2598316.259691247
686,0.4786564803744323
687,0.33333333333333287
688,0.8333333333333321
2,21, 1,21, 0, 2, 0.00,10.00,Monday
250,24.015480242087733
251,6874070.689480042
336,0.0
385,24.12
386,30.21
387,0.5221041649305114
388,0.0
425,0.0
450,0.0
451,0.0
452,-1.5369834194259115
453,0.0
490,0.0
515,0.0
516,0.0
542,0.0
592,4797700.841856562
632,2111928.7413073964
686,1.0
687,1.0
688,2.0
2,21, 1,21, 0, 2,10.00,20.00,Monday
250,24.112766088798477
251,6177443.185310161
336,0.0
385,24.12
386,30.21
387,0.49408150820571645
388,0.0
425,0.0
450,0.0
451,0.0
452,-1.5410015774468784
453,0.0
490,0.0
515,0.0
516,0.0
542,0.0
592,4797025.27600521
632,1157192.2316479492
686,1.0
687,1.0
688,2.0
2,21, 1,21, 0, 2,20.00,30.00,Monday
250,23.079179871253526
251,4791570.5864435565
336,0.0
385,22.786666666666687
386,30.210000000000022
387,0.47189696697998
388,0.0
425,0.0
450,0.0
451,0.0
452,-1.5484089222153825
453,0.0
490,0.0
515,0.0
516,0.0
542,0.0
592,2110378.242238965
632,2610176.794524982
686,0.4804376693996258
687,0.3333333333333336
688,0.833333333333334
2,21, 1,21, 0, 2,30.00,40.00,Monday
250,24.015358199935108
251,6894140.007719668
336,0.0
385,24.12
386,30.21
387,0.44823950325038275
388,0.0
425,0.0
450,0.0
451,0.0
452,-1.5593795610454322
453,0.0
490,0.0
515,0.0
516,0.0
542,0.0
592,4797704.287011298
632,2132622.015017576
686,1.0
687,1.0
688,2.0
2,21, 1,21, 0, 2,40.00,50.00,Monday
250,24.112766605888087
251,6193270.053585157
336,0.0
385,24.12
386,30.21
387,0.41982584629223685
388,0.0
425,0.0
450,0.0
451,0.0
452,-1.5752368299564876
453,0.0
490,0.0
515,0.0
516,0.0
542,0.0
592,4797025.27600521
632,1173028.021054444
686,1.0
687,1.0
688,2.0
2,21, 1,21, 0, 2,50.00,60.00,Monday
250,23.077296387733128
251,4807105.257035118
336,0.0
385,22.786666666666633
386,30.209999999999958
387,0.3971951458735177
388,0.0
425,0.0
450,0.0
451,0.0
452,-1.590580741738943
453,0.0
490,0.0
515,0.0
516,0.0
542,0.0
592,2115642.861556425
632,2620233.089199156
686,0.4819502072454718
687,0.33333333333333287
688,0.8333333333333321
2,21, 1,21, 0, 3, 0.00,10.00,Monday
250,24.015277613091342
251,6921618.812724436
336,0.0
385,24.12
386,30.21
387,0.37348214880259334
388,0.0
425,0.0
450,0.0
451,0.0
452,-1.6064834686636638
453,0.0
490,0.0
515,0.0
516,0.0
542,0.0
592,4797707.187417394
632,2160626.607500842
686,1.0
687,1.0
688,2.0
2,21, 1,21, 0, 3,10.00,20.00,Monday
250,24.1127726434655
251,6227464.079664303
336,0.0
385,24.12
386,30.21
387,0.34584289839155974
388,0.0
425,0.0
450,0.0
451,0.0
452,-1.6209483256614057
453,0.0
490,0.0
515,0.0
516,0.0
542,0.0
592,4797025.27600521
632,1207226.0579625682
686,1.0
687,1.0
688,2.0
2,21, 1,21, 0, 3,20.00,30.00,Monday
250,23.07182643526274
251,4852787.341311743
336,0.0
385,22.786666666666687
386,30.210000000000022
387,0.32500297668547823
388,0.0
425,0.0
450,0.0
451,0.0
452,-1.6254662505539696
453,0.0
490,0.0
515,0.0
516,0.0
542,0.0
592,2131401.4905361785
632,2649480.550746394
686,0.48647762986543724
687,0.3333333333333336
688,0.833333333333334
2,21, 1,21, 0, 3,30.00,40.00,Monday
250,24.0148580885967
251,6968526.194482116
336,0.0
385,24.12
386,30.21
387,0.3037421145520671
388,0.0
425,0.0
450,0.0
451,0.0
452,-1.6254146161338388
453,0.0
490,0.0
515,0.0
516,0.0
542,0.0
592,4797715.456471026
632,2208986.9422596297
686,1.0
687,1.0
688,2.0
2,21, 1,21, 0, 3,40.00,50.00,Monday
250,24.112757212177723
251,6266736.790544286
336,0.0
385,24.12
386,30.21
387,0.27939942039441645
388,0.0
425,0.0
450,0.0
451,0.0
452,-1.620793733076471
453,0.0
490,0.0
515,0.0
516,0.0
542,0.0
592,4797025.27600521
632,1246541.9697872575
686,1.0
687,1.0
688,2.0
2,21, 1,21, 0, 3,50.00,60.00,Monday
250,23.06807821952598
251,4894403.38384572
336,0.0
385,22.786666666666633
386,30.209999999999958
387,0.26134696329013435
388,0.0
425,0.0
450,0.0
451,0.0
452,-1.6134843450626832
453,0.0
490,0.0
515,0.0
516,0.0
542,0.0
592,2149347.3340410586
632,2672024.4646573896
686,0.49163888736721584
687,0.33333333333333287
688,0.9999999999999987
2,21, 1,21, 0, 4, 0.00,10.00,Monday
250,24.014670471744175
251,7070356.120129822
336,0.0
385,24.12
386,30.21
387,0.23861798669284714
388,0.0
425,0.0
450,0.0
451,0.0
452,-1.6052544482192892
453,0.0
490,0.0
515,0.0
516,0.0
542,0.0
592,4792893.523181722
632,2316652.9869263745
686,1.0
687,1.0
688,2.0
2,21, 1,21, 0, 4,10.00,20.00,Monday
250,24.112771475595725
251,6423283.7494445015
336,0.0
385,24.12
386,30.21
387,0.20730031182273984
388,0.0
425,0.0
450,0.0
451,0.0
452,-1.5971108478472151
453,0.0
490,0.0
515,0.0
516,0.0
542,0.0
592,4787110.239197659
632,1413019.3811096465
686,1.0
687,1.0
688,2.0
2,21, 1,21, 0, 4,20.00,30.00,Monday
250,23.05764779228312
251,5112511.437455684
336,0.0
385,22.786666666666687
386,30.210000000000022
387,0.1796085447477723
388,0.0
425,0.0
450,0.0
451,0.0
452,-1.5946511207019989
453,0.0
490,0.0
515,0.0
516,0.0
542,0.0
592,2266566.4148615934
632,2765627.6664554174
686,0.5129912251641993
687,0.37144337713467745
688,1.1666666666666674
2,21, 1,21, 0, 4,30.00,40.00,Monday
250,24.013943750864392
251,7292249.2025310155
336,0.0
385,24.12
386,30.21
387,0.14850127077316494
388,0.0
425,0.0
450,0.0
451,0.0
452,-1.5963004573090327
453,0.0
490,0.0
515,0.0
516,0.0
542,0.0
592,4777503.729450595
632,2556700.9318984314
686,1.0
687,1.0
688,2.0
2,21, 1,21, 0, 4,40.00,50.00,Monday
250,24.11276049436393
251,6634737.810552877
336,0.0
385,24.12
386,30.21
387,0.10964245548952137
388,0.0
425,0.0
450,0.0
451,0.0
452,-1.6036920935390913
453,0.0
490,0.0
515,0.0
516,0.0
542,0.0
592,4771081.634377802
632,1640572.8358728106
686,1.0
687,1.0
688,2.0
2,21, 1,21, 0, 4,50.00,60.00,Monday
250,23.04694090756971
251,5331009.320312092
336,0.0
385,22.786666666666633
386,30.209999999999958
387,0.07758289391169078
388,0.0
425,0.0
450,0.0
451,0.0
452,-1.6139171614696703
453,0.0
490,0.0
515,0.0
516,0.0
542,0.0
592,2383405.425502493
632,2862382.5861452287
686,0.5249166921918896
687,0.4347634712308335
688,1.166666666666665
2,21, 1,21, 0, 5, 0.00,10.00,Monday
250,24.013084162201725
251,7414317.210927832
336,0.0
385,24.12
386,30.21
387,0.051460781690329194
388,0.0
425,0.0
450,0.0
451,0.0
452,-1.6225921375376366
453,0.0
490,0.0
515,0.0
516,0.0
542,0.0
592,4760822.7653584145
632,2698258.3338133986
686,1.0
687,1.0
688,2.0
2,21, 1,21, 0, 5,10.00,20.00,Monday
250,24.112717903976275
251,6643715.822929961
336,0.0
385,24.12
386,30.21
387,0.029170922699456394
388,0.0
425,0.0
450,0.0
451,0.0
452,-1.626391169580474
453,0.0
490,0.0
515,0.0
516,0.0
542,0.0
592,4753796.85020029
632,1666922.5304662338
686,1.0
687,1.0
688,2.0
2,21, 1,21, 0, 5,20.00,30.00,Monday
250,23.05127988763768
251,5243594.923670202
336,0.0
385,22.786666666666687
386,30.210000000000022
387,0.018260269906645962
388,0.0
425,0.0
450,0.0
451,0.0
452,-1.6194092575351566
453,0.0
490,0.0
515,0.0
516,0.0
542,0.0
592,2328193.453110856
632,2831763.104354105
686,0.5203225376418361
687,0.41159825731211624
688,1.1666666666666674
2,21, 1,21, 0, 5,30.00,40.00,Monday
250,24.013505157940738
251,7328563.449041613
336,0.0
385,24.12
386,30.21
387,0.010195779183177779
388,0.0
425,0.0
450,0.0
451,0.0
452,-1.6039738057728956
453,0.0
490,0.0
515,0.0
516,0.0
542,0.0
592,4741317.283634897
632,2630873.215033923
686,1.0
687,1.0
688,2.0
2,21, 1,21, 0, 5,40.00,50.00,Monday
250,24.11274222487505
251,6561045.660435855
336,0.0
385,24.12
386,30.21
387,0.0039566880224612315
388,0.0
425,0.0
450,0.0
451,0.0
452,-1.5778061301088364
453,0.0
490,0.0
515,0.0
516,0.0
542,0.0
592,4733209.018464266
632,1604789.2981106828
686,1.0
687,1.0
688,2.0
2,21, 1,21, 0, 5,50.00,60.00,Monday
250,23.05561880399324
251,5156054.4020368075
336,0.0
385,22.786666666666633
386,30.209999999999958
387,0.001517346380632381
388,0.0
425,0.0
450,0.0
451,0.0
452,-1.5506340955619318
453,0.0
490,0.0
515,0.0
516,0.0
542,0.0
592,2271668.3369019777
632,2802398.323800932
686,0.5157033321785512
687,0.38848472517944616
688,1.166666666666665
2,21, 1,21, 0, 6, 0.00,10.00,Monday
250,24.01398094349971
251,7319060.195597682
336,0.0
385,24.12
386,30.21
387,-0.007576233332428832
388,0.0
425,0.0
450,0.0
451,0.0
452,-1.5243951555323285
453,0.0
490,0.0
515,0.0
516,0.0
542,0.0
592,4722176.527920004
632,2639407.33060786
686,1.0
687,1.0
688,2.0
2,21, 1,21, 0, 6,10.00,20.00,Monday
250,24.112783850730168
251,6632767.100090009
336,0.0
385,24.12
386,30.21
387,-0.02618278752528391
388,0.0
425,0.0
450,0.0
451,0.0
452,-1.5036926727590045
453,0.0
490,0.0
515,0.0
516,0.0
542,0.0
592,4717184.630480872
632,1692479.1213070133
686,1.0
687,1.0
688,2.0
2,21, 1,21, 0, 6,20.00,30.00,Monday
250,23.048446858104803
251,5302515.310041937
336,0.0
385,22.786666666666687
386,30.210000000000022
387,-0.04670753494464365
388,0.0
425,0.0
450,0.0
451,0.0
452,-1.5024238551580011
453,0.0
490,0.0
515,0.0
516,0.0
542,0.0
592,2349510.659800994
632,2867621.2633266523
686,0.5237785173568399
687,0.4318889768801673
688,1.1666666666666674
2,21, 1,21, 0, 6,30.00,40.00,Monday
250,24.0134468911292
251,7467615.981506113
336,0.0
385,24.12
386,30.21
387,-0.07188744484193965
388,0.0
425,0.0
450,0.0
451,0.0
452,-1.5120503894427806
453,0.0
490,0.0
515,0.0
516,0.0
542,0.0
592,4709160.516133467
632,2802893.278870224
686,1.0
687,1.0
688,2.0
2,21, 1,21, 0, 6,40.00,50.00,Monday
250,24.112769324850063
251,6774505.753070589
336,0.0
385,24.12
386,30.21
387,-0.10546666139961086
388,0.0
425,0.0
450,0.0
451,0.0
452,-1.5345321900241515
453,0.0
490,0.0
515,0.0
516,0.0
542,0.0
592,4703510.587502488
632,1847946.7805301824
686,1.0
687,1.0
688,2.0
2,21, 1,21, 0, 6,50.00,60.00,Monday
250,23.041226802383672
251,5449418.570197381
336,0.0
385,22.786666666666633
386,30.209999999999958
387,-0.1343050526219238
388,0.0
425,0.0
450,0.0
451,0.0
452,-1.5618113724569247
453,0.0
490,0.0
515,0.0
516,0.0
542,0.0
592,2427012.4369957065
632,2933816.074306654
686,0.5319227878311965
687,0.4755493047229813
688,1.166666666666665
2,21, 1,21, 0, 7, 0.00,10.00,Monday
250,24.0128583313646
251,7625589.310327726
336,0.0
385,24.12
386,30.21
387,-0.17041259569439132
388,0.0
425,0.0
450,0.0
451,0.0
452,-1.6085622152881383
453,0.0
490,0.0
515,0.0
516,0.0
542,0.0
592,4721253.488405242
632,2950670.9968128838
686,1.0
687,1.0
688,2.0
2,21, 1,21, 0, 7,10.00,20.00,Monday
250,24.112740768216916
251,6877137.120739663
336,0.0
385,24.12
386,30.21
387,-0.22205222290374216
388,0.0
425,0.0
450,0.0
451,0.0
452,-1.6983233622568088
453,0.0
490,0.0
515,0.0
516,0.0
542,0.0
592,4741052.506580858
632,1913096.0959130542
686,1.0
687,1.0
688,2.0
2,21, 1,21, 0, 7,20.00,30.00,Monday
250,23.03754717200142
251,5520819.167485509
336,0.0
385,22.786666666666687
386,30.210000000000022
387,-0.2711781735117545
388,0.0
425,0.0
450,0.0
451,0.0
452,-1.8157692857938847
453,0.0
490,0.0
515,0.0
516,0.0
542,0.0
592,2488471.184765533
632,2943405.6619651406
686,0.5352782860083855
687,0.48870921466291073
688,1.1666666666666674
2,21, 1,21, 0, 7,30.00,40.00,Monday
250,23.407355850900657
251,5395543.112158713
336,0.0
385,23.45333333333335
386,30.210000000000022
387,-0.3285204710296372
388,0.0
425,0.0
450,0.0
451,0.0
452,-1.9710670926934273
453,0.0
490,0.0
515,0.0
516,0.0
542,0.0
592,3287466.231808878
632,2110720.5167468125
686,0.6955382245088712
687,0.6666666666666672
688,1.6666666666666679
2,21, 1,21, 0, 7,40.00,50.00,Monday
250,23.63841679560411
251,6689358.374346686
336,0.0
385,24.12
386,30.21
387,-0.40730028408452745
388,0.0
425,0.0
450,0.0
451,0.0
452,-2.190911506324666
453,0.0
490,0.0
515,0.0
516,0.0
542,0.0
592,4806695.4381809225
632,2453314.658430005
686,1.0
687,1.0
688,2.0
2,21, 1,21, 0, 7,50.00,60.00,Monday
250,24.073896747017493
251,7803332.301762678
336,0.0
385,24.12
386,30.21
387,-0.4853450370587594
388,0.0
425,0.0
450,0.0
451,0.0
452,-2.4180794803262433
453,0.0
490,0.0
515,0.0
516,0.0
542,0.0
592,4818833.098640984
632,2874803.7505549225
686,1.0
687,1.0
688,2.0
2,21, 1,21, 0, 8, 0.00,10.00,Monday
250,23.046652647841043
251,5295177.775202437
336,0.0
385,22.78666666666666
386,30.209999999999994
387,-0.5494718073364075
388,0.0
425,0.0
450,0.0
451,0.0
452,-2.6233268427270358
453,0.0
490,0.0
515,0.0
516,0.0
542,0.0
592,2389070.9204532118
632,2823190.0514285285
686,0.5235588634526896
687,0.418827146751404
688,1.1666666666666665
2,21, 1,21, 0, 8,10.00,20.00,Monday
250,24.013647093628613
251,7330925.221171382
336,0.0
385,24.120000000000005
386,30.210000000000008
387,-0.6090973872597831
388,0.0
425,0.0
450,0.0
451,0.0
452,-2.7679823371565417
453,0.0
490,0.0
515,0.0
516,0.0
542,0.0
592,4841218.892072661
632,2534478.409436062
686,1.0000000000000002
687,1.0000000000000002
688,2.0000000000000004
2,21, 1,21, 0, 8,20.00,30.00,Monday
250,24.11280157329268
251,6529248.3810561495
336,0.0
385,24.12
386,30.21
387,-0.6658794790637952
388,0.0
425,0.0
450,0.0
451,0.0
452,-2.809147084541455
453,0.0
490,0.0
515,0.0
516,0.0
542,0.0
592,4850353.090971849
632,1455779.2639818985
686,1.0
687,1.0
688,2.0
2,21, 1,21, 0, 8,30.00,40.00,Monday
250,23.05979827427006
251,5064070.47335627
336,0.0
385,22.78666666666665
386,30.20999999999998
387,-0.6934967137188554
388,0.0
425,0.0
450,0.0
451,0.0
452,-2.705692077385385
453,0.0
490,0.0
515,0.0
516,0.0
542,0.0
592,2266986.800865836
632,2718785.7479110174
686,0.5105765276327787
687,0.35104150696012326
688,1.1666666666666659
2,21, 1,21, 0, 8,40.00,50.00,Monday
250,24.014221782768253
251,7106234.4191649165
336,0.0
385,24.12
386,30.21
387,-0.7073649830406779
388,0.0
425,0.0
450,0.0
451,0.0
452,-2.490391985498323
453,0.0
490,0.0
515,0.0
516,0.0
542,0.0
592,4872703.998090332
632,2274722.357570494
686,1.0
687,1.0
688,2.0
2,21, 1,21, 0, 8,50.00,60.00,Monday
250,23.173711812953957
251,4496760.954126433
336,0.0
385,23.12
386,30.21
387,-0.7053962146367168
388,0.0
425,0.0
450,0.0
451,0.0
452,-2.1040268460339417
453,0.0
490,0.0
515,0.0
516,0.0
542,0.0
592,3177543.5401137974
632,1010572.5242116563
686,0.7100768688137766
687,0.5
688,1.5
2,21, 1,21, 0, 9, 0.00,10.00,Monday
250,24.027282346465952
251,7691835.637215608
336,0.0
385,24.12
386,30.21
387,-0.6748951612275063
388,0.0
425,0.0
450,0.0
451,0.0
452,-1.6459405383704055
453,0.0
490,0.0
515,0.0
516,0.0
542,0.0
592,4241016.030434058
632,3477911.4970799284
686,1.0
687,0.5220684910919632
688,2.0
2,21, 1,21, 0, 9,10.00,20.00,Monday
250,23.15894186720248
251,4183231.694652621
336,0.0
385,23.12
386,30.21
387,-0.6196683574441668
388,0.0
425,0.0
450,0.0
451,0.0
452,-1.1170829202272266
453,0.0
490,0.0
515,0.0
516,0.0
542,0.0
592,3000181.7175460877
632,926418.355097187
686,0.6533254667064647
687,0.5
688,1.5
2,21, 1,21, 0, 9,20.00,30.00,Monday
250,24.025923600880134
251,7528101.963265971
336,0.0
385,24.12
386,30.21
387,-0.5462766413348765
388,0.0
425,0.0
450,0.0
451,0.0
452,-0.5272958255034693
453,0.0
490,0.0
515,0.0
516,0.0
542,0.0
592,4148012.259134374
632,3414499.9056354202
686,0.9735364799798198
687,0.5
688,1.5
2,21, 1,21, 0, 9,30.00,40.00,Monday
250,22.882201689845786
251,4515729.191451114
336,0.0
385,22.786666666666683
386,30.210000000000022
387,-0.4786448089661575
388,0.0
425,0.0
450,0.0
451,0.0
452,-0.011554617851693427
453,0.0
490,0.0
515,0.0
516,0.0
542,0.0
592,3303073.8330119587
632,1028671.8115902375
686,0.6666666666666672
687,0.6666666666666672
688,1.3333333333333344
2,21, 1,21, 0, 9,40.00,50.00,Monday
250,23.43584342001358
251,4431227.264102869
336,0.0
385,23.45333333333335
386,30.210000000000022
387,-0.38880768032637236
388,0.0
425,0.0
450,0.0
451,0.0
452,0.662049541975734
453,0.0
490,0.0
515,0.0
516,0.0
542,0.0
592,2570037.330072021
632,1941369.1496616069
686,0.5885015048025231
687,0.3333333333333336
688,1.0000000000000009
2,21, 1,21, 0, 9,50.00,60.00,Monday
250,23.10978238739887
251,4345920.3897514185
336,0.0
385,22.92
386,30.210000000000004
387,-0.3223645298615178
388,0.0
425,0.0
450,0.0
451,0.0
452,1.1335186231553434
453,0.0
490,0.0
515,0.0
516,0.0
542,0.0
592,2178531.48313021
632,2221727.220043477
686,0.45056270357159395
687,0.4
688,1.0
2,21, 1,21, 0,10, 0.00,10.00,Monday
250,23.38039452386237
251,5881452.984392396
336,0.0
385,23.453333333333333
386,30.21
387,-0.24476685753709337
388,0.0
425,0.0
450,0.0
451,0.0
452,1.6300346092271325
453,0.0
490,0.0
515,0.0
516,0.0
542,0.0
592,3273015.4017433217
632,2705388.2060736152
686,0.7749845614138406
687,0.3333333333333333
688,1.3333333333333335
2,21, 1,21, 0,10,10.00,20.00,Monday
250,23.539705764646037
251,4331861.826016713
336,0.0
385,23.453333333333326
386,30.20999999999999
387,-0.12373716309127229
388,0.0
425,0.0
450,0.0
451,0.0
452,2.2897528572469845
453,0.0
490,0.0
515,0.0
516,0.0
542,0.0
592,3369852.7523846813
632,935339.2667118711
686,0.6666666666666664
687,0.6666666666666664
688,1.3333333333333328
2,21, 1,21, 0,10,20.00,30.00,Monday
250,23.139175886428863
251,4150171.108182725
336,0.0
385,22.92
386,30.210000000000004
387,-0.0345209493250516
388,0.0
425,0.0
450,0.0
451,0.0
452,2.772281178672053
453,0.0
490,0.0
515,0.0
516,0.0
542,0.0
592,2114554.500485702
632,2084864.8901188339
686,0.4340832531938299
687,0.3663324979811187
688,1.0
2,21, 1,21, 0,10,30.00,40.00,Monday
250,23.377950089993696
251,5613373.920886444
336,0.0
385,23.453333333333344
386,30.21000000000001
387,0.06834162407362793
388,0.0
425,0.0
450,0.0
451,0.0
452,3.3245612337454125
453,0.0
490,0.0
515,0.0
516,0.0
542,0.0
592,3123906.778573059
632,2604026.3043181584
686,0.7169562127429426
687,0.3333333333333336
688,1.333333333333334
2,21, 1,21, 0,10,40.00,50.00,Monday
250,23.56534486497229
251,4117702.012537411
336,0.0
385,23.45333333333335
386,30.210000000000022
387,0.23116774550199365
388,0.0
425,0.0
450,0.0
451,0.0
452,4.1152518513897665
453,0.0
490,0.0
515,0.0
516,0.0
542,0.0
592,3436520.8570667924
632,654962.4868755552
686,0.6666666666666672
687,0.6666666666666672
688,1.3333333333333344
2,21, 1,21, 0,10,50.00,60.00,Monday
250,23.166308176333487
251,3901141.52524926
336,0.0
385,22.92
386,30.210000000000004
387,0.355761829026607
388,0.0
425,0.0
450,0.0
451,0.0
452,4.759783665082424
453,0.0
490,0.0
515,0.0
516,0.0
542,0.0
592,1907053.0319875788
632,2049622.2577929357
686,0.4133425036435899
687,0.24667668652882185
688,1.0
2,21, 1,21, 0,11, 0.00,10.00,Monday
250,23.374202300290285
251,5253705.702112506
336,0.0
385,23.453333333333333
386,30.21
387,0.49958394336127265
388,0.0
425,0.0
450,0.0
451,0.0
452,5.511837380763885
453,0.0
490,0.0
515,0.0
516,0.0
542,0.0
592,2908425.1970252255
632,2483776.8755930355
686,0.6456904401024777
687,0.3333333333333333
688,1.3333333333333335
2,21, 1,21, 0,11,10.00,20.00,Monday
250,23.12089254082271
251,4864715.44088464
336,0.0
385,23.12
386,30.21
387,0.660149000358849
388,0.0
425,0.0
450,0.0
451,0.0
452,6.329964202682549
453,0.0
490,0.0
515,0.0
516,0.0
542,0.0
592,3021834.4426606414
632,1926336.7831058586
686,0.6081793947783039
687,0.5
688,1.25
2,21, 1,21, 0,11,20.00,30.00,Monday
250,23.253397427594315
251,4636541.565103702
336,0.0
385,23.12
386,30.21
387,0.9106040306220881
388,0.0
425,0.0
450,0.0
451,0.0
452,7.429436209372438
453,0.0
490,0.0
515,0.0
516,0.0
542,0.0
592,2715127.9336265703
632,1959327.5278889432
686,0.5810131420570256
687,0.3522795641166487
688,1.25
2,21, 1,21, 0,11,30.00,40.00,Monday
250,23.261124233861832
251,4519890.505182638
336,0.0
385,23.12
386,30.21
387,1.1430757606968849
388,0.0
425,0.0
450,0.0
451,0.0
452,8.388545121885594
453,0.0
490,0.0
515,0.0
516,0.0
542,0.0
592,2616466.882937571
632,1944104.5871998118
686,0.5713609464785924
687,0.30321077484324055
688,1.25
2,21, 1,21, 0,11,40.00,50.00,Monday
250,23.36662757517486
251,4757293.605373171
336,0.0
385,23.45333333333335
386,30.210000000000022
387,1.3234948565523141
388,0.0
425,0.0
450,0.0
451,0.0
452,9.134201594515662
453,0.0
490,0.0
515,0.0
516,0.0
542,0.0
592,2508339.980282341
632,2438732.030555386
686,0.529692778867112
687,0.3333333333333336
688,1.3333333333333344
2,21, 1,21, 0,11,50.00,60.00,Monday
250,23.139205882991373
251,4450261.04615174
336,0.0
385,23.12
386,30.21
387,1.50899000754251
388,0.0
425,0.0
450,0.0
451,0.0
452,9.819862136165453
453,0.0
490,0.0
515,0.0
516,0.0
542,0.0
592,2808210.7688655173
632,1725919.228881598
686,0.573494944253405
687,0.41472290767247055
688,1.25
2,21, 1,21, 0,12, 0.00,10.00,Monday
250,23.37000369830401
251,4745592.81884742
336,0.0
385,23.453333333333333
386,30.21
387,1.7064219190002623
388,0.0
425,0.0
450,0.0
451,0.0
452,10.443225330381125
453,0.0
490,0.0
515,0.0
516,0.0
542,0.0
592,2632197.620753719
632,2282601.6900113253
686,0.5587946938710318
687,0.3333333333333333
688,1.3333333333333335
2,21, 1,21, 0,12,10.00,20.00,Monday
250,23.146100896140698
251,4381051.347876072
336,0.0
385,23.12
386,30.21
387,1.9005588613540279
388,0.0
425,0.0
450,0.0
451,0.0
452,10.947993918895438
453,0.0
490,0.0
515,0.0
516,0.0
542,0.0
592,2747257.140658131
632,1717223.9690994078
686,0.5675208209904996
687,0.3833391024274141
688,1.25
2,21, 1,21, 0,12,20.00,30.00,Monday
250,23.36909922345596
251,4676816.072744758
336,0.0
385,23.453333333333326
386,30.20999999999999
387,2.09094554875763
388,0.0
425,0.0
450,0.0
451,0.0
452,11.34799525035494
453,0.0
490,0.0
515,0.0
516,0.0
542,0.0
592,2593051.1514254604
632,2256632.954973528
686,0.5466769415421485
687,0.3333333333333332
688,1.3333333333333328
2,21, 1,21, 0,12,30.00,40.00,Monday
250,23.146890676998165
251,4340787.459978442
336,0.0
385,23.120000000000008
386,30.210000000000015
387,2.263782438947012
388,0.0
425,0.0
450,0.0
451,0.0
452,11.618274416104061
453,0.0
490,0.0
515,0.0
516,0.0
542,0.0
592,2725820.295646861
632,1698958.117553347
686,0.5635183911373347
687,0.37398628365452685
688,1.25
2,21, 1,21, 0,12,40.00,50.00,Monday
250,23.36863385029364
251,4646441.395679275
336,0.0
385,23.45333333333335
386,30.210000000000022
387,2.4215016424303286
388,0.0
425,0.0
450,0.0
451,0.0
452,11.75166968361754
453,0.0
490,0.0
515,0.0
516,0.0
542,0.0
592,2584090.252140914
632,2235589.884508269
686,0.5424724460424266
687,0.3333333333333336
688,1.3333333333333344
2,21, 1,21, 0,12,50.00,60.00,Monday
250,23.146569636473465
251,4324455.768400853
336,0.0
385,23.12
386,30.21
387,2.555372850892706
388,0.0
425,0.0
450,0.0
451,0.0
452,11.748419233132553
453,0.0
490,0.0
515,0.0
516,0.0
542,0.0
592,2723936.307673308
632,1684768.4709977477
686,0.5613935066203967
687,0.3731258818944132
688,1.25
2,21, 1,21, 0,13, 0.00,10.00,Monday
250,23.368375679775554
251,4636799.967158145
336,0.0
385,23.453333333333333
386,30.21
387,2.6731839910273107
388,0.0
425,0.0
450,0.0
451,0.0
452,11.67386128470266
453,0.0
490,0.0
515,0.0
516,0.0
542,0.0
592,2586258.441548288
632,2222446.9102674355
686,0.5425757251891263
687,0.3333333333333333
688,1.3333333333333335
2,21, 1,21, 0,13,10.00,20.00,Monday
250,23.147470355342108
251,4283604.772785126
336,0.0
385,23.12
386,30.21
387,2.773297733704701
388,0.0
425,0.0
450,0.0
451,0.0
452,11.592511107519238
453,0.0
490,0.0
515,0.0
516,0.0
542,0.0
592,2697321.0524579356
632,1670706.2923603419
686,0.55752700545404
687,0.3677261393872162
688,1.25
2,21, 1,21, 0,13,20.00,30.00,Monday
250,23.367280048817165
251,4548866.9400999155
336,0.0
385,23.453333333333326
386,30.20999999999999
387,2.8641760540446217
388,0.0
425,0.0
450,0.0
451,0.0
452,11.533169767250719
453,0.0
490,0.0
515,0.0
516,0.0
542,0.0
592,2536916.780505646
632,2186460.010890023
686,0.5306734475850613
687,0.3333333333333332
688,1.3333333333333328
2,21, 1,21, 0,13,30.00,40.00,Monday
250,23.15579587236748
251,4157624.3760272604
336,0.0
385,23.120000000000008
386,30.210000000000015
387,2.9464648869984083
388,0.0
425,0.0
450,0.0
451,0.0
452,11.49937822569565
453,0.0
490,0.0
515,0.0
516,0.0
542,0.0
592,2579468.2653668546
632,1664074.4584475686
686,0.5489795790416963
687,0.31236867945228025
688,1.25
2,21, 1,21, 0,13,40.00,50.00,Monday
250,23.36591936798468
251,4393837.676749224
336,0.0
385,23.45333333333335
386,30.210000000000022
387,3.0261502211959166
388,0.0
425,0.0
450,0.0
451,0.0
452,11.479848336874177
453,0.0
490,0.0
515,0.0
516,0.0
542,0.0
592,2417517.7039697287
632,2164921.9225037633
686,0.50049061470346
687,0.3333333333333336
688,1.3333333333333344
2,21, 1,21, 0,13,50.00,60.00,Monday
250,23.162507604596847
251,4044289.559621976
336,0.0
385,23.12
386,30.21
387,3.1015025147942867
388,0.0
425,0.0
450,0.0
451,0.0
452,11.467933764802554
453,0.0
490,0.0
515,0.0
516,0.0
542,0.0
592,2477179.4475489696
632,1654671.2498660013
686,0.5409578633388136
687,0.26608323154532765
688,1.25
2,21, 1,21, 0,14, 0.00,10.00,Monday
250,23.364414543892657
251,4256549.517607254
336,0.0
385,23.453333333333333
386,30.21
387,3.1775439759024637
388,0.0
425,0.0
450,0.0
451,0.0
452,11.426727092083016
453,0.0
490,0.0
515,0.0
516,0.0
542,0.0
592,2326643.6130451667
632,2128423.5841340665
686,0.4758437481993478
687,0.3333333333333333
688,1.3333333333333335
2,21, 1,21, 0,14,10.00,20.00,Monday
250,23.16698325778055
251,3952460.3682342935
336,0.0
385,23.12
386,30.21
387,3.249485175480849
388,0.0
425,0.0
450,0.0
451,0.0
452,11.321785985068603
453,0.0
490,0.0
515,0.0
516,0.0
542,0.0
592,2407978.6639113845
632,1634573.3111294906
686,0.5261718549887398
687,0.25
688,1.0
2,21, 1,21, 0,14,20.00,30.00,Monday
250,23.36362406130666
251,4203256.355457791
336,0.0
385,23.453333333333326
386,30.20999999999999
387,3.3172029779731567
388,0.0
425,0.0
450,0.0
451,0.0
452,11.152863951158622
453,0.0
490,0.0
515,0.0
516,0.0
542,0.0
592,2300576.221455301
632,2104275.6801971374
686,0.4663721404219023
687,0.3333333333333332
688,1.3333333333333328
2,21, 1,21, 0,14,30.00,40.00,Monday
250,23.165498577027943
251,3942617.5094702803
336,0.0
385,23.120000000000008
386,30.210000000000015
387,3.371230457187341
388,0.0
425,0.0
450,0.0
451,0.0
452,10.897471711045458
453,0.0
490,0.0
515,0.0
516,0.0
542,0.0
592,2419219.0538691236
632,1613397.6352741132
686,0.5261538333252498
687,0.25
688,1.0
2,21, 1,21, 0,14,40.00,50.00,Monday
250,23.363468375654087
251,4207408.875316865
336,0.0
385,23.45333333333335
386,30.210000000000022
387,3.4099474251733426
388,0.0
425,0.0
450,0.0
451,0.0
452,10.525593475692462
453,0.0
490,0.0
515,0.0
516,0.0
542,0.0
592,2319403.42130577
632,2087137.9999996524
686,0.4685932921603828
687,0.3333333333333336
688,1.3333333333333344
2,21, 1,21, 0,14,50.00,60.00,Monday
250,23.166255142856713