Program Version,EnergyPlus, Version 24.2.0-94a887817b, YMD=2025.02.04 15:52
1,5,Environment Title[],Latitude[deg],Longitude[deg],Time Zone[],Elevation[m]
2,8,Day of Simulation[],Month[],Day of Month[],DST Indicator[1=yes 0=no],Hour[],StartMinute[],EndMinute[],DayType
3,5,Cumulative Day of Simulation[],Month[],Day of Month[],DST Indicator[1=yes 0=no],DayType  ! When Daily Report Variables Requested
4,2,Cumulative Days of Simulation[],Month[]  ! When Monthly Report Variables Requested
5,1,Cumulative Days of Simulation[] ! When Run Period Report Variables Requested
6,1,Calendar Year of Simulation[] ! When Annual Report Variables Requested
250,1,LIVING ZONE,Zone Air Temperature [C] !TimeStep,REPORTSCH
251,1,LIVING ZONE,Zone Air System Sensible Heating Energy [J] !TimeStep,REPORTSCH
336,1,LIVING ZONE,Zone Air System Sensible Cooling Energy [J] !TimeStep,REPORTSCH
385,1,LIVING ZONE,Zone Thermostat Heating Setpoint Temperature [C] !TimeStep,REPORTSCH
386,1,LIVING ZONE,Zone Thermostat Cooling Setpoint Temperature [C] !TimeStep,REPORTSCH
387,1,GARAGE ZONE,Zone Air Temperature [C] !TimeStep,REPORTSCH
388,1,GARAGE ZONE,Zone Air System Sensible Heating Energy [J] !TimeStep,REPORTSCH
425,1,GARAGE ZONE,Zone Air System Sensible Cooling Energy [J] !TimeStep,REPORTSCH
450,1,GARAGE ZONE,Zone Thermostat Heating Setpoint Temperature [C] !TimeStep,REPORTSCH
451,1,GARAGE ZONE,Zone Thermostat Cooling Setpoint Temperature [C] !TimeStep,REPORTSCH
452,1,ATTIC ZONE,Zone Air Temperature [C] !TimeStep,REPORTSCH
453,1,ATTIC ZONE,Zone Air System Sensible Heating Energy [J] !TimeStep,REPORTSCH
490,1,ATTIC ZONE,Zone Air System Sensible Cooling Energy [J] !TimeStep,REPORTSCH
515,1,ATTIC ZONE,Zone Thermostat Heating Setpoint Temperature [C] !TimeStep,REPORTSCH
516,1,ATTIC ZONE,Zone Thermostat Cooling Setpoint Temperature [C] !TimeStep,REPORTSCH
542,1,ACDXCOIL 1,Cooling Coil Total Cooling Energy [J] !TimeStep,REPORTSCH
592,1,HEAT PUMP DX HEATING COIL 1,Heating Coil Heating Energy [J] !TimeStep,REPORTSCH
632,1,SUPP HEATING COIL 1,Heating Coil Heating Energy [J] !TimeStep,REPORTSCH
686,1,TWOSPEED HEAT PUMP 1,Unitary System DX Coil Cycling Ratio [] !TimeStep,REPORTSCH
687,1,TWOSPEED HEAT PUMP 1,Unitary System DX Coil Speed Ratio [] !TimeStep,REPORTSCH
688,1,TWOSPEED HEAT PUMP 1,Unitary System DX Coil Speed Level [] !TimeStep,REPORTSCH
End of Data Dictionary
1,RUN PERIOD 1,  41.98, -87.92,  -6.00, 201.00
2,21, 1,21, 0, 1, 0.00,10.00,Monday
250,27.166314012801635
251,0.0
336,5646224.364875607
385,22.520000000000003
386,26.009999999999998
387,0.8234513531115795
388,0.0
425,0.0
450,0.0
451,0.0
452,-1.5937061142799267
453,0.0
490,0.0
515,0.0
516,0.0
542,7129817.960621497
592,0.0
632,0.0
686,0.75
687,0.75
688,1.5
2,21, 1,21, 0, 1,10.00,20.00,Monday
250,27.068694665620974
251,0.0
336,5830439.707561561
385,22.52
386,25.26
387,0.7932467153602596
388,0.0
425,0.0
450,0.0
451,0.0
452,-1.5804754394249079
453,0.0
490,0.0
515,0.0
516,0.0
542,10651938.154541787
592,0.0
632,0.0
686,1.0
687,1.0
688,2.0
2,21, 1,21, 0, 1,20.00,30.00,Monday
250,27.12037425603641
251,0.0
336,4478936.015592094
385,22.52
386,25.26
387,0.7630603359774017
388,0.0
425,0.0
450,0.0
451,0.0
452,-1.5662170059784648
453,0.0
490,0.0
515,0.0
516,0.0
542,10801940.453041485
592,0.0
632,0.0
686,1.0
687,1.0
688,2.0
2,21, 1,21, 0, 1,30.00,40.00,Monday
250,28.61856359729722
251,0.0
336,2779037.6174614457
385,22.520000000000003
386,25.26
387,0.7456407595473803
388,0.0
425,0.0
450,0.0
451,0.0
452,-1.5534275866329779
453,0.0
490,0.0
515,0.0
516,0.0
542,10801940.453041485
592,0.0
632,0.0
686,1.0
687,1.0
688,2.0
2,21, 1,21, 0, 1,40.00,50.00,Monday
250,28.465582825030143
251,0.0
336,1787536.1805849597
385,22.52
386,25.26
387,0.7285667615788954
388,0.0
425,0.0
450,0.0
451,0.0
452,-1.5355379208992204
453,0.0
490,0.0
515,0.0
516,0.0
542,10801940.453041486
592,0.0
632,0.0
686,1.0
687,1.0
688,2.0
2,21, 1,21, 0, 1,50.00,60.00,Monday
250,28.410042169780944
251,0.0
336,2439974.338868914
385,22.52
386,25.26
387,0.7103944353676015
388,0.0
425,0.0
450,0.0
451,0.0
452,-1.5132981645784276
453,0.0
490,0.0
515,0.0
516,0.0
542,10801940.453041486
592,0.0
632,0.0
686,1.0
687,1.0
688,2.0
2,21, 1,21, 0, 2, 0.00,10.00,Monday
250,28.65143815074201
251,0.0
336,2613318.4810481034
385,22.52
386,25.26
387,0.6936476648257315
388,0.0
425,0.0
450,0.0
451,0.0
452,-1.4913131171792002
453,0.0
490,0.0
515,0.0
516,0.0
542,10801940.453041486
592,0.0
632,0.0
686,1.0
687,1.0
688,2.0
2,21, 1,21, 0, 2,10.00,20.00,Monday
250,28.796716989063558
251,0.0
336,2532409.0431336937
385,22.52
386,25.26
387,0.678861293497755
388,0.0
425,0.0
450,0.0
451,0.0
452,-1.4729947226255775
453,0.0
490,0.0
515,0.0
516,0.0
542,10801940.453041486
592,0.0
632,0.0
686,1.0
687,1.0
688,2.0
2,21, 1,21, 0, 2,20.00,30.00,Monday
250,28.813019054211445
251,0.0
336,2443927.0111587266
385,22.52
386,25.26
387,0.6649623604831185
388,0.0
425,0.0
450,0.0
451,0.0
452,-1.4596291516570696
453,0.0
490,0.0
515,0.0
516,0.0
542,10801940.453041486
592,0.0
632,0.0
686,1.0
687,1.0
688,2.0
2,21, 1,21, 0, 2,30.00,40.00,Monday
250,28.84471905036061
251,0.0
336,2450751.889966237
385,22.52
386,25.26
387,0.6509320011183921
388,0.0
425,0.0
450,0.0
451,0.0
452,-1.4511107506775387
453,0.0
490,0.0
515,0.0
516,0.0
542,10801940.45304148
592,0.0
632,0.0
686,1.0
687,1.0
688,2.0
2,21, 1,21, 0, 2,40.00,50.00,Monday
250,28.911091451898752
251,0.0
336,2466681.6509415437
385,22.52
386,25.26
387,0.6359504698528667
388,0.0
425,0.0
450,0.0
451,0.0
452,-1.446951820692577
453,0.0
490,0.0
515,0.0
516,0.0
542,10801940.453041486
592,0.0
632,0.0
686,1.0
687,1.0
688,2.0
2,21, 1,21, 0, 2,50.00,60.00,Monday
250,28.966039686515934
251,0.0
336,2452932.2245297227
385,22.52
386,25.26
387,0.6198429004485195
388,0.0
425,0.0
450,0.0
451,0.0
452,-1.4467444993046803
453,0.0
490,0.0
515,0.0
516,0.0
542,10801940.45304148
592,0.0
632,0.0
686,1.0
687,1.0
688,2.0
2,21, 1,21, 0, 3, 0.00,10.00,Monday
250,28.99700174613709
251,0.0
336,2433411.8293451816
385,22.52
386,25.26
387,0.6032485480719698
388,0.0
425,0.0
450,0.0
451,0.0
452,-1.447707603561081
453,0.0
490,0.0
515,0.0
516,0.0
542,10801940.45304148
592,0.0
632,0.0
686,1.0
687,1.0
688,2.0
2,21, 1,21, 0, 3,10.00,20.00,Monday
250,29.025329491387254
251,0.0
336,2428522.351983216
385,22.52
386,25.26
387,0.5868118178550782
388,0.0
425,0.0
450,0.0
451,0.0
452,-1.4454168825010891
453,0.0
490,0.0
515,0.0
516,0.0
542,10801940.453041486
592,0.0
632,0.0
686,1.0
687,1.0
688,2.0
2,21, 1,21, 0, 3,20.00,30.00,Monday
250,29.05794679513886
251,0.0
336,2427812.412074897
385,22.52
386,25.26
387,0.5708251174264521
388,0.0
425,0.0
450,0.0
451,0.0
452,-1.4371694966444173
453,0.0
490,0.0
515,0.0
516,0.0
542,10801940.453041486
592,0.0
632,0.0
686,1.0
687,1.0
688,2.0
2,21, 1,21, 0, 3,30.00,40.00,Monday
250,29.087918287605326
251,0.0
336,2422742.9289546674
385,22.52
386,25.26
387,0.5553694282931618
388,0.0
425,0.0
450,0.0
451,0.0
452,-1.4235321421503557
453,0.0
490,0.0
515,0.0
516,0.0
542,10801940.453041496
592,0.0
632,0.0
686,1.0
687,1.0
688,2.0
2,21, 1,21, 0, 3,40.00,50.00,Monday
250,29.1137123335285
251,0.0
336,2417108.4001967763
385,22.52
386,25.26
387,0.5405179445381791
388,0.0
425,0.0
450,0.0
451,0.0
452,-1.4065913624818844
453,0.0
490,0.0
515,0.0
516,0.0
542,10801940.45304148
592,0.0
632,0.0
686,1.0
687,1.0
688,2.0
2,21, 1,21, 0, 3,50.00,60.00,Monday
250,29.13798226770254
251,0.0
336,2413425.3427742575
385,22.52
386,25.26
387,0.5263498734885335
388,0.0
425,0.0
450,0.0
451,0.0
452,-1.3876493190757875
453,0.0
490,0.0
515,0.0
516,0.0
542,10801940.45304148
592,0.0
632,0.0
686,1.0
687,1.0
688,2.0
2,21, 1,21, 0, 4, 0.00,10.00,Monday
250,29.126156056156564
251,0.0
336,2390276.9595234236
385,22.52
386,25.26
387,0.5103384585911808
388,0.0
425,0.0
450,0.0
451,0.0
452,-1.3686176778854144
453,0.0
490,0.0
515,0.0
516,0.0
542,10801940.453041496
592,0.0
632,0.0
686,1.0
687,1.0
688,2.0
2,21, 1,21, 0, 4,10.00,20.00,Monday
250,29.103302119994648
251,0.0
336,2385451.2042072425
385,22.52
386,25.26
387,0.4907461799112638
388,0.0
425,0.0
450,0.0
451,0.0
452,-1.3522030858956344
453,0.0
490,0.0
515,0.0
516,0.0
542,10801940.453041486
592,0.0
632,0.0
686,1.0
687,1.0
688,2.0
2,21, 1,21, 0, 4,20.00,30.00,Monday
250,29.0885195324208
251,0.0
336,2392555.5118419915
385,22.52
386,25.26
387,0.46798371714883
388,0.0
425,0.0
450,0.0
451,0.0
452,-1.3407160096958042
453,0.0
490,0.0
515,0.0
516,0.0
542,10801940.45304148
592,0.0
632,0.0
686,1.0
687,1.0
688,2.0
2,21, 1,21, 0, 4,30.00,40.00,Monday
250,29.075254348692827
251,0.0
336,2395097.9070883426
385,22.52
386,25.26
387,0.44319244845587835
388,0.0
425,0.0
450,0.0
451,0.0
452,-1.3353868624219767
453,0.0
490,0.0
515,0.0
516,0.0
542,10801940.453041486
592,0.0
632,0.0
686,1.0
687,1.0
688,2.0
2,21, 1,21, 0, 4,40.00,50.00,Monday
250,29.057212671444614
251,0.0
336,2393942.9155105804
385,22.52
386,25.26
387,0.41707352634016015
388,0.0
425,0.0
450,0.0
451,0.0
452,-1.336573613701377
453,0.0
490,0.0
515,0.0
516,0.0
542,10801940.45304148
592,0.0
632,0.0
686,1.0
687,1.0
688,2.0
2,21, 1,21, 0, 4,50.00,60.00,Monday
250,29.035930075310606
251,0.0
336,2394175.461121569
385,22.52
386,25.26
387,0.38940558893810756
388,0.0
425,0.0
450,0.0
451,0.0
452,-1.3424929495015188
453,0.0
490,0.0
515,0.0
516,0.0
542,10801940.45304148
592,0.0
632,0.0
686,1.0
687,1.0
688,2.0
2,21, 1,21, 0, 5, 0.00,10.00,Monday
250,29.074781550804236
251,0.0
336,2430786.555016794
385,22.52
386,25.26
387,0.36558637648982356
388,0.0
425,0.0
450,0.0
451,0.0
452,-1.3482666042955282
453,0.0
490,0.0
515,0.0
516,0.0
542,10801940.453041486
592,0.0
632,0.0
686,1.0
687,1.0
688,2.0
2,21, 1,21, 0, 5,10.00,20.00,Monday
250,29.129281207706423
251,0.0
336,2435232.1271364195
385,22.52
386,25.26
387,0.3489530590684232
388,0.0
425,0.0
450,0.0
451,0.0
452,-1.3479069172866582
453,0.0
490,0.0
515,0.0
516,0.0
542,10801940.45304148
592,0.0
632,0.0
686,1.0
687,1.0
688,2.0
2,21, 1,21, 0, 5,20.00,30.00,Monday
250,29.165427218453473
251,0.0
336,2418889.8994869175
385,22.52
386,25.26
387,0.33828214695835995
388,0.0
425,0.0
450,0.0
451,0.0
452,-1.3375756435459092
453,0.0
490,0.0
515,0.0
516,0.0
542,10801940.45304148
592,0.0
632,0.0
686,1.0
687,1.0
688,2.0
2,21, 1,21, 0, 5,30.00,40.00,Monday
250,29.19541574118218
251,0.0
336,2411410.6367531638
385,22.52
386,25.26
387,0.3311259736855521
388,0.0
425,0.0
450,0.0
451,0.0
452,-1.31721700654069
453,0.0
490,0.0
515,0.0
516,0.0
542,10801940.45304148
592,0.0
632,0.0
686,1.0
687,1.0
688,2.0
2,21, 1,21, 0, 5,40.00,50.00,Monday
250,29.231103740051697
251,0.0
336,2411265.5541458414
385,22.52
386,25.26
387,0.3261979531936363
388,0.0
425,0.0
450,0.0
451,0.0
452,-1.2887631002753503
453,0.0
490,0.0
515,0.0
516,0.0
542,10801940.453041486
592,0.0
632,0.0
686,1.0
687,1.0
688,2.0
2,21, 1,21, 0, 5,50.00,60.00,Monday
250,29.26836619642542
251,0.0
336,2408187.996038935
385,22.52
386,25.26
387,0.3228739014721451
388,0.0
425,0.0
450,0.0
451,0.0
452,-1.2545860875278312
453,0.0
490,0.0
515,0.0
516,0.0
542,10801940.45304148
592,0.0
632,0.0
686,1.0
687,1.0
688,2.0
2,21, 1,21, 0, 6, 0.00,10.00,Monday
250,29.25792417923825
251,0.0
336,2376812.9405315183
385,22.52
386,25.26
387,0.31657740637653076
388,0.0
425,0.0
450,0.0
451,0.0
452,-1.2221694221330568
453,0.0
490,0.0
515,0.0
516,0.0
542,10801940.45304148
592,0.0
632,0.0
686,1.0
687,1.0
688,2.0
2,21, 1,21, 0, 6,10.00,20.00,Monday
250,29.233732744139942
251,0.0
336,2370298.56834604
385,22.52
386,25.26
387,0.3042848272940798
388,0.0
425,0.0
450,0.0
451,0.0
452,-1.2010718608251734
453,0.0
490,0.0
515,0.0
516,0.0
542,10801940.453041472
592,0.0
632,0.0
686,1.0
687,1.0
688,2.0
2,21, 1,21, 0, 6,20.00,30.00,Monday
250,29.222418528523683
251,0.0
336,2380234.7223313525
385,22.52
386,25.26
387,0.28660011791827933
388,0.0
425,0.0
450,0.0
451,0.0
452,-1.1957103445381747
453,0.0
490,0.0
515,0.0
516,0.0
542,10801940.453041486
592,0.0
632,0.0
686,1.0
687,1.0
688,2.0
2,21, 1,21, 0, 6,30.00,40.00,Monday
250,29.214790768567557
251,0.0
336,2383607.2367372834
385,22.52
386,25.26
387,0.26536960149974803
388,0.0
425,0.0
450,0.0
451,0.0
452,-1.204716598932849
453,0.0
490,0.0
515,0.0
516,0.0
542,10801940.453041501
592,0.0
632,0.0
686,1.0
687,1.0
688,2.0
2,21, 1,21, 0, 6,40.00,50.00,Monday
250,29.201613203445117
251,0.0
336,2381392.52683613
385,22.52
386,25.26
387,0.24179703218038587
388,0.0
425,0.0
450,0.0
451,0.0
452,-1.224693812819709
453,0.0
490,0.0
515,0.0
516,0.0
542,10801940.453041472
592,0.0
632,0.0
686,1.0
687,1.0
688,2.0
2,21, 1,21, 0, 6,50.00,60.00,Monday
250,29.18601805429162
251,0.0
336,2381542.8726357706
385,22.52
386,25.26
387,0.21609584025520434
388,0.0
425,0.0
450,0.0
451,0.0
452,-1.2531805310595518
453,0.0
490,0.0
515,0.0
516,0.0
542,10801940.453041496
592,0.0
632,0.0
686,1.0
687,1.0
688,2.0
2,21, 1,21, 0, 7, 0.00,10.00,Monday
250,24.792574444680834
251,2437266.307042264
336,554869.9061932924
385,22.92
386,26.46
387,0.19077429325837222
388,0.0
425,0.0
450,0.0
451,0.0
452,-1.2948145106867597
453,0.0
490,0.0
515,0.0
516,0.0
542,3240582.1359124463
592,569915.6880968985
632,1935338.907829675
686,0.4285799109407292
687,0.4
688,0.9000000000000001
2,21, 1,21, 0, 7,10.00,20.00,Monday
250,23.80701578186269
251,2645560.158007731
336,0.0
385,23.091428571428562
386,27.259999999999994
387,0.15557932945587594
388,0.0
425,0.0
450,0.0
451,0.0
452,-1.372440751849759
453,0.0
490,0.0
515,0.0
516,0.0
542,0.0
592,1030738.8276992111
632,1694468.9439215695
686,0.24569549996564535
687,0.1428571428571427
688,0.42857142857142827
2,21, 1,21, 0, 7,20.00,30.00,Monday
250,23.618423356078175
251,3234707.3204076104
336,0.0
385,23.52
386,27.26
387,0.10789077761755445
388,0.0
425,0.0
450,0.0
451,0.0
452,-1.494830992210414
453,0.0
490,0.0
515,0.0
516,0.0
542,0.0
592,1653860.000186028
632,1699666.1209982403
686,0.38464454996908937
687,0.25
688,0.75
2,21, 1,21, 0, 7,30.00,40.00,Monday
250,23.156716420116652
251,4008499.3312144405
336,0.0
385,23.186666666666675
386,27.260000000000012
387,0.0480197743642381
388,0.0
425,0.0
450,0.0
451,0.0
452,-1.6608978739939757
453,0.0
490,0.0
515,0.0
516,0.0
542,0.0
592,2754920.0701671573
632,1390363.428629416
686,0.6666666666666672
687,0.33846014312668316
688,1.3333333333333344
2,21, 1,21, 0, 7,40.00,50.00,Monday
250,23.540518301145095
251,3109628.5540004047
336,0.0
385,23.320000000000004
386,27.260000000000005
387,-0.020603614940200188
388,0.0
425,0.0
450,0.0
451,0.0
452,-1.8614976607010019
453,0.0
490,0.0
515,0.0
516,0.0
542,0.0
592,1990060.507498151
632,1141940.9219831272
686,0.4285584156915674
687,0.37757623695586945
688,1.0
2,21, 1,21, 0, 7,50.00,60.00,Monday
250,24.424972731663217
251,4083690.070071982
336,0.0
385,24.52
386,27.26
387,-0.10365502819326568
388,0.0
425,0.0
450,0.0
451,0.0
452,-2.104895620836008
453,0.0
490,0.0
515,0.0
516,0.0
542,0.0
592,3936966.953030098
632,174252.54172661752
686,0.9413475168873056
687,0.5
688,1.5
2,21, 1,21, 0, 8, 0.00,10.00,Monday
250,26.322625307842305
251,0.0
336,1429111.961976511
385,22.74222222222222
386,26.815555555555548
387,-0.18021863933293844
388,0.0
425,0.0
450,0.0
451,0.0
452,-2.3373639951995626
453,0.0
490,0.0
515,0.0
516,0.0
542,2877080.4390750728
592,0.0
632,0.0
686,0.2818247352235189
687,0.22222222222222215
688,0.5555555555555554
2,21, 1,21, 0, 8,10.00,20.00,Monday
250,25.512751943678857
251,0.0
336,1854288.6955131786
385,22.519999999999996
386,25.926666666666662
387,-0.24944689194936237
388,0.0
425,0.0
450,0.0
451,0.0
452,-2.494739524798028
453,0.0
490,0.0
515,0.0
516,0.0
542,3777805.4460128113
592,0.0
632,0.0
686,0.3687096661797749
687,0.33333333333333337
688,1.0
2,21, 1,21, 0, 8,20.00,30.00,Monday
250,26.852504249593952
251,0.0
336,1394165.446629148
385,22.51999999999999
386,26.593333333333327
387,-0.3298050046893558
388,0.0
425,0.0
450,0.0
451,0.0
452,-2.5705264589828882
453,0.0
490,0.0
515,0.0
516,0.0
542,4012135.5515745683
592,0.0
632,0.0
686,0.3847878646903846
687,0.3333333333333332
688,0.9999999999999996
2,21, 1,21, 0, 8,30.00,40.00,Monday
250,25.691668505197978
251,0.0
336,2008039.9845170104
385,22.52
386,25.76
387,-0.3621059004614205
388,0.0
425,0.0
450,0.0
451,0.0
452,-2.476115842098299
453,0.0
490,0.0
515,0.0
516,0.0
542,6198882.176138191
592,0.0
632,0.0
686,0.599774749707548
687,0.5
688,1.25
2,21, 1,21, 0, 8,40.00,50.00,Monday
250,26.84594593531525
251,0.0
336,724163.1804356391
385,22.520000000000017
386,27.260000000000026
387,-0.37676787172221693
388,0.0
425,0.0
450,0.0
451,0.0
452,-2.2621674172009456
453,0.0
490,0.0
515,0.0
516,0.0
542,2157155.998227741
592,0.0
632,0.0
686,0.26974116618569133
687,0.0
688,0.3333333333333336
2,21, 1,21, 0, 8,50.00,60.00,Monday
250,25.66464465086311
251,0.0
336,2140555.573003958
385,22.520000000000017
386,25.26000000000002
387,-0.37537101435258396
388,0.0
425,0.0
450,0.0
451,0.0
452,-1.8695873982947555
453,0.0
490,0.0
515,0.0
516,0.0
542,7740139.563918538
592,0.0
632,0.0
686,0.7751726365087405
687,0.5494070105161025
688,1.6666666666666679
2,21, 1,21, 0, 9, 0.00,10.00,Monday
250,30.951847125034188
251,0.0
336,3963909.205560322
385,22.52
386,25.66
387,-0.34732191431840725
388,0.0
425,0.0
450,0.0
451,0.0
452,-1.5034210119732554
453,0.0
490,0.0
515,0.0
516,0.0
542,9721746.407737335
592,0.0
632,0.0
686,0.8999999999999999
687,0.8999999999999999
688,1.7999999999999998
2,21, 1,21, 0, 9,10.00,20.00,Monday
250,27.13310697881251
251,0.0
336,2310864.863655316
385,22.519999999999992
386,25.25999999999999
387,-0.29881048977148705
388,0.0
425,0.0
450,0.0
451,0.0
452,-1.0392715039459508
453,0.0
490,0.0
515,0.0
516,0.0
542,10106039.642591236
592,0.0
632,0.0
686,0.9630850158438222
687,0.8571428571428569
688,1.8571428571428565
2,21, 1,21, 0, 9,20.00,30.00,Monday
250,31.096549625646137
251,0.0
336,3880994.3167987606
385,22.51999999999998
386,25.831428571428546
387,-0.21009794634048812
388,0.0
425,0.0
450,0.0
451,0.0
452,-0.3245122705926353
453,0.0
490,0.0
515,0.0
516,0.0
542,9258806.102606984
592,0.0
632,0.0
686,0.8571428571428562
687,0.8571428571428562
688,1.7142857142857124
2,21, 1,21, 0, 9,30.00,40.00,Monday
250,28.40253519488655
251,0.0
336,2473994.3411236014
385,22.520000000000014
386,25.26000000000002
387,-0.11263914430508265
388,0.0
425,0.0
450,0.0
451,0.0
452,0.34254156554237525
453,0.0
490,0.0
515,0.0
516,0.0
542,10801940.453041483
592,0.0
632,0.0
686,1.0000000000000007
687,1.0000000000000007
688,2.0000000000000013
2,21, 1,21, 0, 9,40.00,50.00,Monday
250,32.12129757616468
251,0.0
336,3845547.4164151726
385,22.519999999999968
386,25.259999999999966
387,-0.03763812679334381
388,0.0
425,0.0
450,0.0
451,0.0
452,0.851217558027318
453,0.0
490,0.0
515,0.0
516,0.0
542,10801940.453041485
592,0.0
632,0.0
686,0.9999999999999986
687,0.9999999999999986
688,1.9999999999999971
2,21, 1,21, 0, 9,50.00,60.00,Monday
250,27.713893249449818
251,0.0
336,2302393.951625349
385,22.520000000000064
386,25.260000000000076
387,0.034332861260271054
388,0.0
425,0.0
450,0.0
451,0.0
452,1.368982440889876
453,0.0
490,0.0
515,0.0
516,0.0
542,10801940.453041483
592,0.0
632,0.0
686,1.0000000000000027
687,1.0000000000000027
688,2.0000000000000053
2,21, 1,21, 0,10, 0.00,10.00,Monday
250,32.194206044780536
251,0.0
336,4109717.216849084
385,22.52
386,25.260000000000005
387,0.12177422726896094
388,0.0
425,0.0
450,0.0
451,0.0
452,1.9025963756634798
453,0.0
490,0.0
515,0.0
516,0.0
542,10801940.453041483
592,0.0
632,0.0
686,1.0
687,1.0
688,2.0
2,21, 1,21, 0,10,10.00,20.00,Monday
250,27.50509060755501
251,0.0
336,2067261.3062464017
385,22.519999999999992
386,25.25999999999999
387,0.22155141789084978
388,0.0
425,0.0
450,0.0
451,0.0
452,2.4513590987947644
453,0.0
490,0.0
515,0.0
516,0.0
542,9601724.847147984
592,0.0
632,0.0
686,0.8888888888888885
687,0.8888888888888885
688,1.777777777777777
2,21, 1,21, 0,10,20.00,30.00,Monday
250,32.24870599648343
251,0.0
336,4245725.849836051
385,22.51999999999998
386,25.54571428571426
387,0.3354339382682397
388,0.0
425,0.0
450,0.0
451,0.0
452,3.028285615169634
453,0.0
490,0.0
515,0.0
516,0.0
542,10801940.453041479
592,0.0
632,0.0
686,0.9999999999999989
687,0.9999999999999989
688,1.9999999999999978
2,21, 1,21, 0,10,30.00,40.00,Monday
250,27.49245523624643
251,0.0
336,2090924.2946464056
385,22.52000000000005
386,25.26000000000006
387,0.46272851810413146
388,0.0
425,0.0
450,0.0
451,0.0
452,3.637362423665218
453,0.0
490,0.0
515,0.0
516,0.0
542,9601724.847147983
592,0.0
632,0.0
686,0.8888888888888906
687,0.8888888888888906
688,1.7777777777777812
2,21, 1,21, 0,10,40.00,50.00,Monday
250,32.45547776208514
251,0.0
336,4300280.607687723
385,22.520000000000003
386,25.509999999999998
387,0.6058051622032555
388,0.0
425,0.0
450,0.0
451,0.0
452,4.312646802066835
453,0.0
490,0.0
515,0.0
516,0.0
542,10801940.45304148
592,0.0
632,0.0
686,1.0
687,1.0
688,2.0
2,21, 1,21, 0,10,50.00,60.00,Monday
250,27.507540280023008
251,0.0
336,1989332.1125462414
385,22.520000000000064
386,25.482222222222298
387,0.7625130348137368
388,0.0
425,0.0
450,0.0
451,0.0
452,5.060822024001945
453,0.0
490,0.0
515,0.0
516,0.0
542,9165390.835201964
592,0.0
632,0.0
686,0.8732972080593464
687,0.7777777777777799
688,1.6666666666666712
2,21, 1,21, 0,11, 0.00,10.00,Monday
250,32.60990651712292
251,0.0
336,4360666.229984806
385,22.520000000000003
386,25.509999999999998
387,0.9329036774918407
388,0.0
425,0.0
450,0.0
451,0.0
452,5.8765421796841215
453,0.0
490,0.0
515,0.0
516,0.0
542,10801940.453041483
592,0.0
632,0.0
686,1.0
687,1.0
688,2.0
2,21, 1,21, 0,11,10.00,20.00,Monday
250,27.534313892198334
251,0.0
336,1935050.3131610013
385,22.519999999999992
386,25.482222222222212
387,1.1157080534543882
388,0.0
425,0.0
450,0.0
451,0.0
452,6.7412359755405005
453,0.0
490,0.0
515,0.0
516,0.0
542,8932062.407802397
592,0.0
632,0.0
686,0.8441206987281962
687,0.7777777777777775
688,1.666666666666666
2,21, 1,21, 0,11,20.00,30.00,Monday
250,32.7914315759854
251,0.0
336,4424682.131011149
385,22.520000000000003
386,25.509999999999998
387,1.3144071591376105
388,0.0
425,0.0
450,0.0
451,0.0
452,7.661934455398951
453,0.0
490,0.0
515,0.0
516,0.0
542,10801940.453041483
592,0.0
632,0.0
686,1.0
687,1.0
688,2.0
2,21, 1,21, 0,11,30.00,40.00,Monday
250,27.503022594216915
251,0.0
336,1898197.8765602387
385,22.519999999999992
386,25.45999999999999
387,1.5248714350156771
388,0.0
425,0.0
450,0.0
451,0.0
452,8.585075037186279
453,0.0
490,0.0
515,0.0
516,0.0
542,8641552.362433188
592,0.0
632,0.0
686,0.7999999999999996
687,0.7999999999999996
688,1.5999999999999992
2,21, 1,21, 0,11,40.00,50.00,Monday
250,32.96238303551104
251,0.0
336,4483376.584204473
385,22.520000000000064
386,25.4822222222223
387,1.7462601402240652
388,0.0
425,0.0
450,0.0
451,0.0
452,9.458950757876378
453,0.0
490,0.0
515,0.0
516,0.0
542,10801940.453041483
592,0.0
632,0.0
686,1.0000000000000027
687,1.0000000000000027
688,2.0000000000000053
2,21, 1,21, 0,11,50.00,60.00,Monday
250,27.470791049857578
251,0.0
336,1873810.250916827
385,22.52
386,25.46
387,1.9717460499344486
388,0.0
425,0.0
450,0.0
451,0.0
452,10.246741526687336
453,0.0
490,0.0
515,0.0
516,0.0
542,8520092.684875254
592,0.0
632,0.0
686,0.7999999999999999
687,0.7566958936515513
688,1.5999999999999999
2,21, 1,21, 0,12, 0.00,10.00,Monday
250,33.10849051664217
251,0.0
336,4577321.956118669
385,22.52
386,25.482222222222216
387,2.1973444881381368
388,0.0
425,0.0
450,0.0
451,0.0
452,10.92330398610384
453,0.0
490,0.0
515,0.0
516,0.0
542,10801940.453041483
592,0.0
632,0.0
686,0.9999999999999998
687,0.9999999999999998
688,1.9999999999999996
2,21, 1,21, 0,12,10.00,20.00,Monday
250,27.579639058859687
251,0.0
336,1920759.7377558048
385,22.519999999999996
386,25.459999999999994
387,2.4159663984344935
388,0.0
425,0.0
450,0.0
451,0.0
452,11.475483661485017
453,0.0
490,0.0
515,0.0
516,0.0
542,8641552.362433186
592,0.0
632,0.0
686,0.7999999999999998
687,0.7999999999999998
688,1.5999999999999996
2,21, 1,21, 0,12,20.00,30.00,Monday
250,33.10287237651919
251,0.0
336,4543020.057000301
385,22.519999999999992
386,25.482222222222216
387,2.6245586447875096
388,0.0
425,0.0
450,0.0
451,0.0
452,11.909156825540409
453,0.0
490,0.0
515,0.0
516,0.0
542,10801940.453041479
592,0.0
632,0.0
686,0.9999999999999996
687,0.9999999999999996
688,1.9999999999999991
2,21, 1,21, 0,12,30.00,40.00,Monday
250,27.59218041313566
251,0.0
336,1913340.2763833187
385,22.52
386,25.46
387,2.8159393926960816
388,0.0
425,0.0
450,0.0
451,0.0
452,12.211438456618104
453,0.0
490,0.0
515,0.0
516,0.0
542,8641552.362433184
592,0.0
632,0.0
686,0.7999999999999999
687,0.7999999999999999
688,1.5999999999999999
2,21, 1,21, 0,12,40.00,50.00,Monday
250,33.09659282790224
251,0.0
336,4539840.528160644
385,22.520000000000064
386,25.4822222222223
387,2.98771175193827
388,0.0
425,0.0
450,0.0
451,0.0
452,12.367558680816224
453,0.0
490,0.0
515,0.0
516,0.0
542,10801940.453041483
592,0.0
632,0.0
686,1.0000000000000027
687,1.0000000000000027
688,2.0000000000000053
2,21, 1,21, 0,12,50.00,60.00,Monday
250,27.592250484281607
251,0.0
336,1914434.1127018228
385,22.52
386,25.46
387,3.1359062132407964
388,0.0
425,0.0
450,0.0
451,0.0
452,12.38832752344901
453,0.0
490,0.0
515,0.0
516,0.0
542,8641552.362433188
592,0.0
632,0.0
686,0.7999999999999999
687,0.7999999999999999
688,1.5999999999999999
2,21, 1,21, 0,13, 0.00,10.00,Monday
250,28.565194067709577
251,0.0
336,3515417.764061819
385,22.52
386,25.92666666666667
387,3.2739762043600082
388,0.0
425,0.0
450,0.0
451,0.0
452,12.336451919160261
453,0.0
490,0.0
515,0.0
516,0.0
542,10801940.453041485
592,0.0
632,0.0
686,1.0
687,1.0
688,2.0
2,21, 1,21, 0,13,10.00,20.00,Monday
250,27.569236264118235
251,0.0
336,3335388.04026336
385,22.52
386,25.26
387,3.4009558096199255
388,0.0
425,0.0
450,0.0
451,0.0
452,12.266206202925897
453,0.0
490,0.0
515,0.0
516,0.0
542,10801940.453041486
592,0.0
632,0.0
686,1.0
687,1.0
688,2.0
2,21, 1,21, 0,13,20.00,30.00,Monday
250,27.411186138860078
251,0.0
336,3680428.036963792
385,22.52
386,25.26
387,3.5268644123293433
388,0.0
425,0.0
450,0.0
451,0.0
452,12.202479392770497
453,0.0
490,0.0
515,0.0
516,0.0
542,10801940.453041486
592,0.0
632,0.0
686,1.0
687,1.0
688,2.0
2,21, 1,21, 0,13,30.00,40.00,Monday
250,27.525568579773772
251,0.0
336,3916497.137695201
385,22.52
386,25.26
387,3.6388203225246225
388,0.0
425,0.0
450,0.0
451,0.0
452,12.167197228956226
453,0.0
490,0.0
515,0.0
516,0.0
542,10801940.453041485
592,0.0
632,0.0
686,1.0
687,1.0
688,2.0
2,21, 1,21, 0,13,40.00,50.00,Monday
250,27.447721171258788
251,0.0
336,4094662.444612799
385,22.52
386,25.26
387,3.73167795156638
388,0.0
425,0.0
450,0.0
451,0.0
452,12.155243219239779
453,0.0
490,0.0
515,0.0
516,0.0
542,10801940.453041485
592,0.0
632,0.0
686,1.0
687,1.0
688,2.0
2,21, 1,21, 0,13,50.00,60.00,Monday
250,27.2973630678221
251,0.0
336,4199326.355242692
385,22.52
386,25.26
387,3.812252910501283
388,0.0
425,0.0
450,0.0
451,0.0
452,12.150634338454905
453,0.0
490,0.0
515,0.0
516,0.0
542,10801940.453041486
592,0.0
632,0.0
686,1.0
687,1.0
688,2.0
2,21, 1,21, 0,14, 0.00,10.00,Monday
250,31.0722854478176
251,0.0
336,4674380.25476604
385,22.52
386,25.26
387,3.868373970001319
388,0.0
425,0.0
450,0.0
451,0.0
452,12.111332875427182
453,0.0
490,0.0
515,0.0
516,0.0
542,10801940.453041483
592,0.0
632,0.0
686,0.9999999999999999
687,0.9999999999999999
688,1.9999999999999998
2,21, 1,21, 0,14,10.00,20.00,Monday
250,28.60636908605138
251,0.0
336,2609335.7334055593
385,22.52
386,25.26
387,3.92855430930137
388,0.0
425,0.0
450,0.0
451,0.0
452,12.00772709896394
453,0.0
490,0.0
515,0.0
516,0.0
542,10801940.453041483
592,0.0
632,0.0
686,1.0
687,1.0
688,2.0
2,21, 1,21, 0,14,20.00,30.00,Monday
250,32.48096190988153
251,0.0
336,3672270.0632607643
385,22.520000000000003
386,25.259999999999998
387,3.9879377108565226
388,0.0
425,0.0
450,0.0
451,0.0
452,11.842842848327606
453,0.0
490,0.0
515,0.0
516,0.0
542,10801940.45304148
592,0.0
632,0.0
686,1.0
687,1.0
688,2.0
2,21, 1,21, 0,14,30.00,40.00,Monday
250,28.59636132563563
251,0.0
336,2143450.478137614
385,22.520000000000014
386,25.26000000000002
387,4.038662065253058
388,0.0
425,0.0
450,0.0
451,0.0
452,11.59151703706244
453,0.0
490,0.0
515,0.0
516,0.0
542,10801940.453041483
592,0.0
632,0.0
686,1.0000000000000007
687,1.0000000000000007
688,2.0000000000000013
2,21, 1,21, 0,14,40.00,50.00,Monday
250,33.136689978214704
251,0.0
336,3955903.2616656898
385,22.520000000000003
386,25.259999999999998
387,4.075251162663868
388,0.0
425,0.0
450,0.0
451,0.0
452,11.224208628726347
453,0.0
490,0.0
515,0.0
516,0.0
542,10801940.453041483
592,0.0
632,0.0
686,1.0
687,1.0
688,2.0
2,21, 1,21, 0,14,50.00,60.00,Monday
250,28.06906930988783
251,0.0
336,2147503.0339584053
385,22.52
386,25.26
387,4.094872349887602
388,0.0
425,0.0
450,0.0
451,0.0
452,10.748273389085481
453,0.0
490,0.0
515,0.0
516,0.0
542,10308182.428815853
592,0.0
632,0.0
686,0.9733307819874761
687,0.8999999999999999
688,1.9
2,21, 1,21, 0,15, 0.00,10.00,Monday
250,33.42953891855747
251,0.0
336,4381716.584099063
385,22.52
386,25.482222222222216
387,4.096299369141466
388,0.0
425,0.0
450,0.0
451,0.0
452,10.195834676108653
453,0.0
490,0.0
515,0.0
516,0.0
542,10801940.45304148
592,0.0
632,0.0
686,0.9999999999999998
687,0.9999999999999998
688,1.9999999999999996
2,21, 1,21, 0,15,10.00,20.00,Monday
250,27.97972113949547
251,0.0
336,2107509.829811663
385,22.519999999999996
386,25.259999999999994
387,4.081118993090329
388,0.0
425,0.0
450,0.0
451,0.0
452,9.58214691324158
453,0.0
490,0.0
515,0.0
516,0.0
542,9721746.407737337
592,0.0
632,0.0
686,0.8999999999999998
687,0.8999999999999998
688,1.7999999999999996
2,21, 1,21, 0,15,20.00,30.00,Monday
250,33.31883982429575
251,0.0
336,4469012.856480551
385,22.520000000000003
386,25.509999999999998
387,4.051948844039775
388,0.0
425,0.0
450,0.0
451,0.0
452,8.900836475191838
453,0.0
490,0.0
515,0.0
516,0.0
542,10801940.453041485
592,0.0
632,0.0
686,1.0
687,1.0
688,2.0
2,21, 1,21, 0,15,30.00,40.00,Monday
250,27.908942819345498
251,0.0
336,2129581.002677665
385,22.519999999999992
386,25.25999999999999
387,4.016225372689203
388,0.0
425,0.0
450,0.0
451,0.0
452,8.253397718405195
453,0.0
490,0.0
515,0.0
516,0.0
542,9721746.407737333
592,0.0
632,0.0
686,0.8999999999999996
687,0.8999999999999996
688,1.7999999999999992
2,21, 1,21, 0,15,40.00,50.00,Monday
250,33.31235981138497
251,0.0
336,4502233.817503789
385,22.520000000000003
386,25.509999999999998
387,3.978965618762112
388,0.0
425,0.0
450,0.0
451,0.0