Program Version,EnergyPlus, Version 24.2.0-94a887817b, YMD=2025.02.11 00:15
1,5,Environment Title[],Latitude[deg],Longitude[deg],Time Zone[],Elevation[m]
2,8,Day of Simulation[],Month[],Day of Month[],DST Indicator[1=yes 0=no],Hour[],StartMinute[],EndMinute[],DayType
3,5,Cumulative Day of Simulation[],Month[],Day of Month[],DST Indicator[1=yes 0=no],DayType  ! When Daily Meters Requested
4,2,Cumulative Days of Simulation[],Month[]  ! When Monthly Meters Requested
5,1,Cumulative Days of Simulation[] ! When Run Period Meters Requested
6,1,Calendar Year of Simulation[] ! When Annual Meters Requested
11,9,Electricity:Facility [J] !Monthly [Value,Min,Day,Hour,Minute,Max,Day,Hour,Minute]
23,9,Electricity:Building [J] !Monthly [Value,Min,Day,Hour,Minute,Max,Day,Hour,Minute]
59,9,InteriorLights:Electricity [J] !Monthly [Value,Min,Day,Hour,Minute,Max,Day,Hour,Minute]
521,9,Electricity:HVAC [J] !Monthly [Value,Min,Day,Hour,Minute,Max,Day,Hour,Minute]
637,9,NaturalGas:Facility [J] !Monthly [Value,Min,Day,Hour,Minute,Max,Day,Hour,Minute]
649,9,NaturalGas:HVAC [J] !Monthly [Value,Min,Day,Hour,Minute,Max,Day,Hour,Minute]
13,11,Electricity:Facility [J] !RunPeriod [Value,Min,Month,Day,Hour,Minute,Max,Month,Day,Hour,Minute]
25,11,Electricity:Building [J] !RunPeriod [Value,Min,Month,Day,Hour,Minute,Max,Month,Day,Hour,Minute]
61,11,InteriorLights:Electricity [J] !RunPeriod [Value,Min,Month,Day,Hour,Minute,Max,Month,Day,Hour,Minute]
523,11,Electricity:HVAC [J] !RunPeriod [Value,Min,Month,Day,Hour,Minute,Max,Month,Day,Hour,Minute]
639,11,NaturalGas:Facility [J] !RunPeriod [Value,Min,Month,Day,Hour,Minute,Max,Month,Day,Hour,Minute]
651,11,NaturalGas:HVAC [J] !RunPeriod [Value,Min,Month,Day,Hour,Minute,Max,Month,Day,Hour,Minute]
End of Data Dictionary
1,RUN PERIOD 1,  41.98, -87.92,  -6.00, 201.00
4,31, 1
11,10151042648.58793,560547.0147000075,31,21,30,3559982.5217002053, 9,12,30
23,1882057093.451702,115658.34966198078,11,20,60,1023086.2336736362,31,13,60
59,920159268.0515386,28452.66753405952, 1, 1,10,569053.3506811904, 1, 8,10
521,8268985555.136226,0.0,11,15,30,2589399.5970780686,27,18,30
637,20527774305.82999,0.0, 3,11,60,22657088.41437846,31, 7,50
649,20527774305.82999,0.0, 3,11,60,22657088.41437846,31, 7,50
4,59, 2
11,8583051529.922208,99999999999999.0,31,21,30,3578260.8760573287,22,11,40
23,1661267806.533688,99999999999999.0,11,20,60,1023748.5630448302, 4, 9,50
59,804413816.522958,99999999999999.0, 1, 1,10,-99999999999999.0, 1, 8,10
521,6921783723.388513,99999999999999.0,11,15,30,2615115.1402974594, 5, 1,50
637,16635507214.050253,99999999999999.0, 3,11,60,24258764.94339282, 3, 9,40
649,16635507214.050253,99999999999999.0, 3,11,60,24258764.94339282, 3, 9,40
4,90, 3
11,8778034249.550169,107122.74111164248,31,17,30,-99999999999999.0,22,11,40
23,1753432608.021211,101867.98176979934,31,16,60,1033124.2528700217,18, 9,60
59,851190001.948971,99999999999999.0, 1, 1,10,-99999999999999.0, 1, 8,10
521,7024601641.52898,99999999999999.0,11,15,30,-99999999999999.0, 5, 1,50
637,12618165629.09993,99999999999999.0, 3,11,60,-99999999999999.0, 3, 9,40
649,12618165629.09993,99999999999999.0, 3,11,60,-99999999999999.0, 3, 9,40
4,120, 4
11,5782986575.212948,28452.66753405952,12,19,10,-99999999999999.0,22,11,40
23,1685157244.3593917,28452.66753405952,11,19,20,-99999999999999.0,18, 9,60
59,881577450.8753501,99999999999999.0, 1, 1,10,-99999999999999.0, 1, 8,10
521,4097829330.853563,99999999999999.0,11,15,30,-99999999999999.0, 5, 1,50
637,5346483234.943016,99999999999999.0, 3,11,60,-99999999999999.0, 3, 9,40
649,5346483234.943016,99999999999999.0, 3,11,60,-99999999999999.0, 3, 9,40
4,151, 5
11,4118847886.9017262,99999999999999.0,12,19,10,-99999999999999.0,22,11,40
23,1662540131.6052856,99999999999999.0,11,19,20,-99999999999999.0,18, 9,60
59,920159268.0515214,99999999999999.0, 1, 1,10,-99999999999999.0, 1, 8,10
521,2456307755.296454,99999999999999.0,11,15,30,-99999999999999.0, 5, 1,50
637,1814343654.5838072,99999999999999.0, 3,11,60,-99999999999999.0, 3, 9,40
649,1814343654.5838072,99999999999999.0, 3,11,60,-99999999999999.0, 3, 9,40
4,181, 6
11,3376405292.5895247,99999999999999.0,12,19,10,-99999999999999.0,22,11,40
23,1403165453.3498957,99999999999999.0,11,19,20,-99999999999999.0,18, 9,60
59,812608184.7727822,99999999999999.0, 1, 1,10,-99999999999999.0, 1, 8,10
521,1973239839.239663,99999999999999.0,11,15,30,-99999999999999.0, 5, 1,50
637,318585908.17005444,99999999999999.0, 3,11,60,-99999999999999.0, 3, 9,40
649,318585908.17005444,99999999999999.0, 3,11,60,-99999999999999.0, 3, 9,40
4,212, 7
11,3758941442.849482,99999999999999.0,12,19,10,-99999999999999.0,22,11,40
23,1507232041.0181487,99999999999999.0,11,19,20,-99999999999999.0,18, 9,60
59,920159268.0515386,99999999999999.0, 1, 1,10,-99999999999999.0, 1, 8,10
521,2251709401.831378,99999999999999.0,11,15,30,-99999999999999.0, 5, 1,50
637,72356520.0418705,99999999999999.0, 3,11,60,-99999999999999.0, 3, 9,40
649,72356520.0418705,99999999999999.0, 3,11,60,-99999999999999.0, 3, 9,40
4,243, 8
11,3463958991.270506,99999999999999.0,12,19,10,-99999999999999.0,22,11,40
23,1488581206.805677,99999999999999.0,11,19,20,-99999999999999.0,18, 9,60
59,885674635.0002452,99999999999999.0, 1, 1,10,-99999999999999.0, 1, 8,10
521,1975377784.4648547,99999999999999.0,11,15,30,-99999999999999.0, 5, 1,50
637,124004101.30288105,99999999999999.0, 3,11,60,-99999999999999.0, 3, 9,40
649,124004101.30288105,99999999999999.0, 3,11,60,-99999999999999.0, 3, 9,40
4,273, 9
11,3362407159.182663,99999999999999.0,12,19,10,-99999999999999.0,22,11,40
23,1483812949.894092,99999999999999.0,11,19,20,-99999999999999.0,18, 9,60
59,847092817.8240662,99999999999999.0, 1, 1,10,-99999999999999.0, 1, 8,10
521,1878594209.2885633,99999999999999.0,11,15,30,-99999999999999.0, 5, 1,50
637,333347127.05192405,99999999999999.0, 3,11,60,-99999999999999.0, 3, 9,40
649,333347127.05192405,99999999999999.0, 3,11,60,-99999999999999.0, 3, 9,40
4,304,10
11,4767541391.294534,99999999999999.0,12,19,10,-99999999999999.0,22,11,40
23,1710468954.0865464,99999999999999.0,11,19,20,-99999999999999.0,18, 9,60
59,920159268.0515386,99999999999999.0, 1, 1,10,-99999999999999.0, 1, 8,10
521,3057072437.2079782,99999999999999.0,11,15,30,-99999999999999.0, 5, 1,50
637,3199728073.8636947,99999999999999.0, 3,11,60,-99999999999999.0, 3, 9,40
649,3199728073.8636947,99999999999999.0, 3,11,60,-99999999999999.0, 3, 9,40
4,334,11
11,7442607630.28246,99999999999999.0,12,19,10,-99999999999999.0,22,11,40
23,1689007293.509029,99999999999999.0,11,19,20,-99999999999999.0,18, 9,60
59,847092817.8240588,99999999999999.0, 1, 1,10,-99999999999999.0, 1, 8,10
521,5753600336.773428,99999999999999.0,11,15,30,-99999999999999.0, 5, 1,50
637,10742113191.696978,99999999999999.0, 3,11,60,-99999999999999.0, 3, 9,40
649,10742113191.696978,99999999999999.0, 3,11,60,-99999999999999.0, 3, 9,40
4,365,12
11,9103095709.129168,99999999999999.0,12,19,10,-99999999999999.0,22,11,40
23,1780606166.9922645,99999999999999.0,11,19,20,-99999999999999.0,18, 9,60
59,885674635.0002546,99999999999999.0, 1, 1,10,-99999999999999.0, 1, 8,10
521,7322489542.136935,99999999999999.0,11,15,30,-99999999999999.0, 5, 1,50
637,13156166218.454437,99999999999999.0, 3,11,60,-99999999999999.0, 3, 9,40
649,13156166218.454437,99999999999999.0, 3,11,60,-99999999999999.0, 3, 9,40
5,365
13,72688920506.77263,28452.66753405952, 4,12,19,10,3578260.8760573287, 2,22,11,40
25,19707328949.62597,28452.66753405952, 4,11,19,20,1033124.2528700217, 3,18, 9,60
61,10495961431.971228,28452.66753405952, 1, 1, 1,10,569053.3506811904, 1, 1, 8,10
523,52981591557.14689,0.0, 1,11,15,30,2615115.1402974594, 2, 5, 1,50
639,84888575179.08922,0.0, 1, 3,11,60,24258764.94339282, 2, 3, 9,40
651,84888575179.08922,0.0, 1, 3,11,60,24258764.94339282, 2, 3, 9,40
1,RUN PERIOD 2,  41.98, -87.92,  -6.00, 201.00
4,1, 7
11,118243285.4895241,99999999999999.0,12,19,10,-99999999999999.0,22,11,40
23,63324277.55316904,99999999999999.0,11,19,20,-99999999999999.0,18, 9,60
59,38581817.176184714,99999999999999.0, 1, 1,10,-99999999999999.0, 1, 8,10
521,54919007.93635507,99999999999999.0,11,15,30,-99999999999999.0, 5, 1,50
637,6452848.252656173,99999999999999.0, 3,11,60,-99999999999999.0, 3, 9,40
649,6452848.252656173,99999999999999.0, 3,11,60,-99999999999999.0, 3, 9,40
5,1
13,118243285.4895241,99999999999999.0, 4,12,19,10,-99999999999999.0, 2,22,11,40
25,63324277.55316904,99999999999999.0, 4,11,19,20,-99999999999999.0, 3,18, 9,60
61,38581817.176184714,99999999999999.0, 1, 1, 1,10,-99999999999999.0, 1, 1, 8,10
523,54919007.93635507,99999999999999.0, 1,11,15,30,-99999999999999.0, 2, 5, 1,50
639,6452848.252656173,99999999999999.0, 1, 3,11,60,-99999999999999.0, 2, 3, 9,40
651,6452848.252656173,99999999999999.0, 1, 3,11,60,-99999999999999.0, 2, 3, 9,40
End of Data
 Number of Records Written=          90
