Program Version,EnergyPlus, Version 24.2.0-94a887817b, YMD=2025.02.11 00:15
1,5,Environment Title[],Latitude[deg],Longitude[deg],Time Zone[],Elevation[m]
2,8,Day of Simulation[],Month[],Day of Month[],DST Indicator[1=yes 0=no],Hour[],StartMinute[],EndMinute[],DayType
3,5,Cumulative Day of Simulation[],Month[],Day of Month[],DST Indicator[1=yes 0=no],DayType  ! When Daily Report Variables Requested
4,2,Cumulative Days of Simulation[],Month[]  ! When Monthly Report Variables Requested
5,1,Cumulative Days of Simulation[] ! When Run Period Report Variables Requested
6,1,Calendar Year of Simulation[] ! When Annual Report Variables Requested
250,1,LIVING ZONE,Zone Air Temperature [C] !TimeStep,REPORTSCH
251,1,LIVING ZONE,Zone Air System Sensible Heating Energy [J] !TimeStep,REPORTSCH
336,1,LIVING ZONE,Zone Air System Sensible Cooling Energy [J] !TimeStep,REPORTSCH
385,1,LIVING ZONE,Zone Thermostat Heating Setpoint Temperature [C] !TimeStep,REPORTSCH
386,1,LIVING ZONE,Zone Thermostat Cooling Setpoint Temperature [C] !TimeStep,REPORTSCH
387,1,GARAGE ZONE,Zone Air Temperature [C] !TimeStep,REPORTSCH
388,1,GARAGE ZONE,Zone Air System Sensible Heating Energy [J] !TimeStep,REPORTSCH
425,1,GARAGE ZONE,Zone Air System Sensible Cooling Energy [J] !TimeStep,REPORTSCH
450,1,GARAGE ZONE,Zone Thermostat Heating Setpoint Temperature [C] !TimeStep,REPORTSCH
451,1,GARAGE ZONE,Zone Thermostat Cooling Setpoint Temperature [C] !TimeStep,REPORTSCH
452,1,ATTIC ZONE,Zone Air Temperature [C] !TimeStep,REPORTSCH
453,1,ATTIC ZONE,Zone Air System Sensible Heating Energy [J] !TimeStep,REPORTSCH
490,1,ATTIC ZONE,Zone Air System Sensible Cooling Energy [J] !TimeStep,REPORTSCH
515,1,ATTIC ZONE,Zone Thermostat Heating Setpoint Temperature [C] !TimeStep,REPORTSCH
516,1,ATTIC ZONE,Zone Thermostat Cooling Setpoint Temperature [C] !TimeStep,REPORTSCH
542,1,ACDXCOIL 1,Cooling Coil Total Cooling Energy [J] !TimeStep,REPORTSCH
592,1,HEAT PUMP DX HEATING COIL 1,Heating Coil Heating Energy [J] !TimeStep,REPORTSCH
632,1,SUPP HEATING COIL 1,Heating Coil Heating Energy [J] !TimeStep,REPORTSCH
686,1,TWOSPEED HEAT PUMP 1,Unitary System DX Coil Cycling Ratio [] !TimeStep,REPORTSCH
687,1,TWOSPEED HEAT PUMP 1,Unitary System DX Coil Speed Ratio [] !TimeStep,REPORTSCH
688,1,TWOSPEED HEAT PUMP 1,Unitary System DX Coil Speed Level [] !TimeStep,REPORTSCH
End of Data Dictionary
1,RUN PERIOD 1,  41.98, -87.92,  -6.00, 201.00
2,21, 1,21, 0, 1, 0.00,10.00,Monday
250,26.976971621437556
251,9371053.992807284
336,0.0
385,27.02
386,27.35
387,0.700355873653973
388,0.0
425,0.0
450,0.0
451,0.0
452,-1.5121736260313288
453,0.0
490,0.0
515,0.0
516,0.0
542,0.0
592,4876118.623349026
632,4355042.488044053
686,1.0
687,1.0
688,2.0
2,21, 1,21, 0, 1,10.00,20.00,Monday
250,25.83964003159489
251,7262273.0389334
336,0.0
385,25.68666666666666
386,27.35
387,0.679129351110664
388,0.0
425,0.0
450,0.0
451,0.0
452,-1.5016997442292825
453,0.0
490,0.0
515,0.0
516,0.0
542,0.0
592,2867024.2469480652
632,4325807.572698576
686,0.6245840016818627
687,0.5
688,1.1666666666666665
2,21, 1,21, 0, 1,20.00,30.00,Monday
250,26.335892285511775
251,7237672.167081134
336,0.0
385,26.35333333333332
386,27.34999999999999
387,0.6560129038632923
388,0.0
425,0.0
450,0.0
451,0.0
452,-1.492763331618103
453,0.0
490,0.0
515,0.0
516,0.0
542,0.0
592,3849328.5922409813
632,3239625.735132072
686,0.8439573276453735
687,0.6666666666666664
688,1.666666666666666
2,21, 1,21, 0, 1,30.00,40.00,Monday
250,26.574782748333607
251,8323589.350348732
336,0.0
385,27.01999999999999
386,27.34999999999999
387,0.6278096878348749
388,0.0
425,0.0
450,0.0
451,0.0
452,-1.4847642284579157
453,0.0
490,0.0
515,0.0
516,0.0
542,0.0
592,4828658.37722809
632,4009278.8814687445
686,0.9999999999999997
687,0.9999999999999997
688,1.9999999999999993
2,21, 1,21, 0, 1,40.00,50.00,Monday
250,26.977912853012086
251,9484849.40701092
336,0.0
385,27.02
386,27.35
387,0.6026704079676568
388,0.0
425,0.0
450,0.0
451,0.0
452,-1.4803067991203172
453,0.0
490,0.0
515,0.0
516,0.0
542,0.0
592,4812841.120457529
632,4529803.804746778
686,1.0
687,1.0
688,2.0
2,21, 1,21, 0, 1,50.00,60.00,Monday
250,25.83469221588001
251,7358926.523458846
336,0.0
385,25.686666666666632
386,27.349999999999962
387,0.5812583321634436
388,0.0
425,0.0
450,0.0
451,0.0
452,-1.4789201521976518
453,0.0
490,0.0
515,0.0
516,0.0
542,0.0
592,2851849.284469714
632,4439155.832541039
686,0.6309833355253296
687,0.49999999999999933
688,1.166666666666665
2,21, 1,21, 0, 2, 0.00,10.00,Monday
250,26.337292610464786
251,7319192.9624640355
336,0.0
385,26.35333333333333
386,27.35
387,0.5583922359084654
388,0.0
425,0.0
450,0.0
451,0.0
452,-1.479522316515535
453,0.0
490,0.0
515,0.0
516,0.0
542,0.0
592,3838395.45658669
632,3325469.128895904
686,0.8516923566383167
687,0.6666666666666666
688,1.6666666666666665
2,21, 1,21, 0, 2,10.00,20.00,Monday
250,26.576602520143553
251,8375529.692322493
336,0.0
385,27.02
386,27.35
387,0.5306075380292749
388,0.0
425,0.0
450,0.0
451,0.0
452,-1.48343590465015
453,0.0
490,0.0
515,0.0
516,0.0
542,0.0
592,4797025.27600521
632,4091471.207010883
686,1.0
687,1.0
688,2.0
2,21, 1,21, 0, 2,20.00,30.00,Monday
250,26.978107609176902
251,9518053.622967836
336,0.0
385,27.02
386,27.35
387,0.5057532659504745
388,0.0
425,0.0
450,0.0
451,0.0
452,-1.4908570586624164
453,0.0
490,0.0
515,0.0
516,0.0
542,0.0
592,4797025.27600521
632,4578373.21456148
686,1.0
687,1.0
688,2.0
2,21, 1,21, 0, 2,30.00,40.00,Monday
250,25.83403403952703
251,7371876.34040122
336,0.0
385,25.68666666666665
386,27.34999999999998
387,0.48434835262730197
388,0.0
425,0.0
450,0.0
451,0.0
452,-1.5014983890256315
453,0.0
490,0.0
515,0.0
516,0.0
542,0.0
592,2854213.0988501827
632,4449979.288544223
686,0.6316663164723356
687,0.49999999999999967
688,1.1666666666666659
2,21, 1,21, 0, 2,40.00,50.00,Monday
250,26.337419068497404
251,7330294.457389386
336,0.0
385,26.353333333333353
386,27.350000000000023
387,0.4611870743693744
388,0.0
425,0.0
450,0.0
451,0.0
452,-1.5154588458212839
453,0.0
490,0.0
515,0.0
516,0.0
542,0.0
592,3840941.91664436
632,3333439.747847099
686,0.8524281097143922
687,0.6666666666666672
688,1.6666666666666679
2,21, 1,21, 0, 2,50.00,60.00,Monday
250,26.57692767694947
251,8383964.288336529
336,0.0
385,27.02
386,27.35
387,0.43272449410431185
388,0.0
425,0.0
450,0.0
451,0.0
452,-1.5342765087345778
453,0.0
490,0.0
515,0.0
516,0.0
542,0.0
592,4797025.27600521
632,4099946.7825374915
686,1.0
687,1.0
688,2.0
2,21, 1,21, 0, 3, 0.00,10.00,Monday
250,26.978150058469577
251,9537005.334223539
336,0.0
385,27.02
386,27.35
387,0.4076735223746457
388,0.0
425,0.0
450,0.0
451,0.0
452,-1.5505070353769823
453,0.0
490,0.0
515,0.0
516,0.0
542,0.0
592,4797025.27600521
632,4597253.539402329
686,1.0
687,1.0
688,2.0
2,21, 1,21, 0, 3,10.00,20.00,Monday
250,25.832519430328897
251,7400751.362507934
336,0.0
385,25.68666666666666
386,27.35
387,0.38696822367914513
388,0.0
425,0.0
450,0.0
451,0.0
452,-1.5606620905669883
453,0.0
490,0.0
515,0.0
516,0.0
542,0.0
592,2859333.4630339546
632,4474268.061138375
686,0.6331457520862922
687,0.5
688,1.1666666666666665
2,21, 1,21, 0, 3,20.00,30.00,Monday
250,26.33805746302187
251,7373518.602133017
336,0.0
385,26.35333333333332
386,27.34999999999999
387,0.36544398193082817
388,0.0
425,0.0
450,0.0
451,0.0
452,-1.5662531566339
453,0.0
490,0.0
515,0.0
516,0.0
542,0.0
592,3852627.574048256
632,3361990.0308363447
686,0.8558044667693456
687,0.6666666666666664
688,1.666666666666666
2,21, 1,21, 0, 3,30.00,40.00,Monday
250,26.577930059888917
251,8437245.750558326
336,0.0
385,27.01999999999999
386,27.34999999999999
387,0.34009265647414955
388,0.0
425,0.0
450,0.0
451,0.0
452,-1.5669600386529856
453,0.0
490,0.0
515,0.0
516,0.0
542,0.0
592,4797025.27600521
632,4152719.15940557
686,0.9999999999999997
687,0.9999999999999997
688,1.9999999999999993
2,21, 1,21, 0, 3,40.00,50.00,Monday
250,26.978273898803096
251,9588901.436472364
336,0.0
385,27.02
386,27.35
387,0.3185615910467551
388,0.0
425,0.0
450,0.0
451,0.0
452,-1.5628623251787503
453,0.0
490,0.0
515,0.0
516,0.0
542,0.0
592,4797025.27600521
632,4648896.885784598
686,1.0
687,1.0
688,2.0
2,21, 1,21, 0, 3,50.00,60.00,Monday
250,25.82993492535089
251,7449915.789658
336,0.0
385,25.686666666666632
386,27.349999999999962
387,0.30133627237528726
388,0.0
425,0.0
450,0.0
451,0.0
452,-1.55539897339629
453,0.0
490,0.0
515,0.0
516,0.0
542,0.0
592,2867999.455535054
632,4515673.5951796
686,0.6356496321768984
687,0.49999999999999933
688,1.166666666666665
2,21, 1,21, 0, 4, 0.00,10.00,Monday
250,26.340195876669704
251,7504265.585626909
336,0.0
385,26.35333333333333
386,27.35
387,0.27894256615598917
388,0.0
425,0.0
450,0.0
451,0.0
452,-1.5471724082309857
453,0.0
490,0.0
515,0.0
516,0.0
542,0.0
592,3885963.0128103727
632,3449425.4377872455
686,0.8666645905839088
687,0.6666666666666666
688,1.6666666666666665
2,21, 1,21, 0, 4,10.00,20.00,Monday
250,26.580746138147045
251,8633139.975530533
336,0.0
385,27.02
386,27.35
387,0.24741924178618188
388,0.0
425,0.0
450,0.0
451,0.0
452,-1.5388546381501016
453,0.0
490,0.0
515,0.0
516,0.0
542,0.0
592,4787110.239197659
632,4356512.52121401
686,1.0
687,1.0
688,2.0
2,21, 1,21, 0, 4,20.00,30.00,Monday
250,26.978651843826107
251,9860831.22748883
336,0.0
385,27.02
386,27.35
387,0.21630640470783696
388,0.0
425,0.0
450,0.0
451,0.0
452,-1.5353626635625373
453,0.0
490,0.0
515,0.0
516,0.0
542,0.0
592,4781920.349114438
632,4935208.535583371
686,1.0
687,1.0
688,2.0
2,21, 1,21, 0, 4,30.00,40.00,Monday
250,25.811684044465746
251,7796607.42617132
336,0.0
385,25.68666666666665
386,27.34999999999998
387,0.1872959591663118
388,0.0
425,0.0
450,0.0
451,0.0
452,-1.537836010481352
453,0.0
490,0.0
515,0.0
516,0.0
542,0.0
592,2918463.0838412335
632,4818275.132812999
686,0.6540994821462448
687,0.49999999999999967
688,1.1666666666666659
2,21, 1,21, 0, 4,40.00,50.00,Monday
250,26.345832674624095
251,7879767.19059195
336,0.0
385,26.353333333333353
386,27.350000000000023
387,0.15488285207766836
388,0.0
425,0.0
450,0.0
451,0.0
452,-1.5451389335081027
453,0.0
490,0.0
515,0.0
516,0.0
542,0.0
592,3977223.4599776682
632,3706742.503279397
686,0.8985390096636167
687,0.6666666666666672
688,1.6666666666666679
2,21, 1,21, 0, 4,50.00,60.00,Monday
250,26.587359177791033
251,8972468.452110354
336,0.0
385,27.02
386,27.35
387,0.11355938611710503
388,0.0
425,0.0
450,0.0
451,0.0
452,-1.5574445284780043
453,0.0
490,0.0
515,0.0
516,0.0
542,0.0
592,4765435.086161593
632,4710754.788944287
686,1.0
687,1.0
688,2.0
2,21, 1,21, 0, 5, 0.00,10.00,Monday
250,26.979375743304473
251,10085340.716557749
336,0.0
385,27.02
386,27.35
387,0.08511390445019243
388,0.0
425,0.0
450,0.0
451,0.0
452,-1.56635048993561
453,0.0
490,0.0
515,0.0
516,0.0
542,0.0
592,4759821.308645792
632,5180085.426605404
686,1.0
687,1.0
688,2.0
2,21, 1,21, 0, 5,10.00,20.00,Monday
250,25.806410758953422
251,7896087.270698321
336,0.0
385,25.68666666666666
386,27.35
387,0.07047841843074261
388,0.0
425,0.0
450,0.0
451,0.0
452,-1.5678532257677498
453,0.0
490,0.0
515,0.0
516,0.0
542,0.0
592,2924296.087159584
632,4913686.591032814
686,0.6598679647486684
687,0.5
688,1.1666666666666665
2,21, 1,21, 0, 5,20.00,30.00,Monday
250,26.34530962730003
251,7857417.0438212035
336,0.0
385,26.35333333333332
386,27.34999999999999
387,0.059481283604602087
388,0.0
425,0.0
450,0.0
451,0.0
452,-1.5614858178126048
453,0.0
490,0.0
515,0.0
516,0.0
542,0.0
592,3953438.3686463623
632,3710379.352175973
686,0.8971750378724048
687,0.6666666666666664
688,1.666666666666666
2,21, 1,21, 0, 5,30.00,40.00,Monday
250,26.586800102467237
251,8821104.732222637
336,0.0
385,27.01999999999999
386,27.34999999999999
387,0.05030098586793122
388,0.0
425,0.0
450,0.0
451,0.0
452,-1.5445555585721882
453,0.0
490,0.0
515,0.0
516,0.0
542,0.0
592,4740495.740094985
632,4584489.457141001
686,0.9999999999999997
687,0.9999999999999997
688,1.9999999999999993
2,21, 1,21, 0, 5,40.00,50.00,Monday
250,26.97928703445431
251,9934326.046823133
336,0.0
385,27.02
386,27.35
387,0.04504602254863119
388,0.0
425,0.0
450,0.0
451,0.0
452,-1.5213621057041835
453,0.0
490,0.0
515,0.0
516,0.0
542,0.0
592,4733209.01846427
632,5055827.763111027
686,1.0
687,1.0
688,2.0
2,21, 1,21, 0, 5,50.00,60.00,Monday
250,25.81463647519991
251,7742486.519044582
336,0.0
385,25.686666666666632
386,27.349999999999962
387,0.04336748513174042
388,0.0
425,0.0
450,0.0
451,0.0
452,-1.4941893734386054
453,0.0
490,0.0
515,0.0
516,0.0
542,0.0
592,2883631.2572785984
632,4797742.684839936
686,0.6527786102311823
687,0.49999999999999933
688,1.166666666666665
2,21, 1,21, 0, 6, 0.00,10.00,Monday
250,26.344787825737352
251,7792003.349472287
336,0.0
385,26.35333333333333
386,27.35
387,0.034442491003283865
388,0.0
425,0.0
450,0.0
451,0.0
452,-1.4680972982562253
453,0.0
490,0.0
515,0.0
516,0.0
542,0.0
592,3916992.081693149
632,3684219.0405062716
686,0.8926205844440659
687,0.6666666666666666
688,1.6666666666666665
2,21, 1,21, 0, 6,10.00,20.00,Monday
250,26.586395842603757
251,8862608.75650333
336,0.0
385,27.02
386,27.35
387,0.015952594113408044
388,0.0
425,0.0
450,0.0
451,0.0
452,-1.4468754693501804
453,0.0
490,0.0
515,0.0
516,0.0
542,0.0
592,4717184.630480875
632,4650650.096731953
686,1.0
687,1.0
688,2.0
2,21, 1,21, 0, 6,20.00,30.00,Monday
250,26.97929175234779
251,10066170.709055725
336,0.0
385,27.02
386,27.35
387,-0.006331238535500659
388,0.0
425,0.0
450,0.0
451,0.0
452,-1.4426231934650384
453,0.0
490,0.0
515,0.0
516,0.0
542,0.0
592,4712787.238344823
632,5208219.542403201
686,1.0
687,1.0
688,2.0
2,21, 1,21, 0, 6,30.00,40.00,Monday
250,25.802476589061452
251,7969356.982137224
336,0.0
385,25.68666666666665
386,27.34999999999998
387,-0.030157868709450152
388,0.0
425,0.0
450,0.0
451,0.0
452,-1.453595708616386
453,0.0
490,0.0
515,0.0
516,0.0
542,0.0
592,2914020.808022036
632,4998454.114813531
686,0.6651037649740482
687,0.49999999999999967
688,1.1666666666666659
2,21, 1,21, 0, 6,40.00,50.00,Monday
250,26.348559124743673
251,8038120.587137943
336,0.0
385,26.353333333333353
386,27.350000000000023
387,-0.05818890629504159
388,0.0
425,0.0
450,0.0
451,0.0
452,-1.4740052186519812
453,0.0
490,0.0
515,0.0
516,0.0
542,0.0
592,3974349.866642511
632,3854908.5026169736
686,0.914323826430532
687,0.6666666666666672
688,1.6666666666666679
2,21, 1,21, 0, 6,50.00,60.00,Monday
250,26.59056932802246
251,9082588.136201832
336,0.0
385,27.02
386,27.35
387,-0.0952439623444513
388,0.0
425,0.0
450,0.0
451,0.0
452,-1.5066706838407473
453,0.0
490,0.0
515,0.0
516,0.0
542,0.0
592,4698633.733564452
632,4884532.784956926
686,1.0
687,1.0
688,2.0
2,21, 1,21, 0, 7, 0.00,10.00,Monday
250,26.979740421793707
251,10256167.837808484
336,0.0
385,27.02
386,27.35
387,-0.13387194634479047
388,0.0
425,0.0
450,0.0
451,0.0
452,-1.554387056376152
453,0.0
490,0.0
515,0.0
516,0.0
542,0.0
592,4720142.751070037
632,5389770.360808971
686,1.0
687,1.0
688,2.0
2,21, 1,21, 0, 7,10.00,20.00,Monday
250,25.794875137359405
251,8113068.191915279
336,0.0
385,25.68666666666666
386,27.35
387,-0.17523691474735226
388,0.0
425,0.0
450,0.0
451,0.0
452,-1.6334809224082731
453,0.0
490,0.0
515,0.0
516,0.0
542,0.0
592,2955792.850039497
632,5103323.4552586675
686,0.6666666666666665
687,0.5127494166914721
688,1.333333333333333
2,21, 1,21, 0, 7,20.00,30.00,Monday
250,26.349721533341096
251,8156887.150903688
336,0.0
385,26.35333333333332
386,27.34999999999999
387,-0.2263907426929302
388,0.0
425,0.0
450,0.0
451,0.0
452,-1.7542702938840176
453,0.0
490,0.0
515,0.0
516,0.0
542,0.0
592,4048457.4372310927
632,3893809.574261298
686,0.9220430381250238
687,0.6666666666666664
688,1.666666666666666
2,21, 1,21, 0, 7,30.00,40.00,Monday
250,26.59168687275352
251,9142198.970660223
336,0.0
385,27.01999999999999
386,27.34999999999999
387,-0.29726863578800955
388,0.0
425,0.0
450,0.0
451,0.0
452,-1.936179058993543
453,0.0
490,0.0
515,0.0
516,0.0
542,0.0
592,4781101.268487236
632,4859604.108229978
686,0.9999999999999997
687,0.9999999999999997
688,1.9999999999999993
2,21, 1,21, 0, 7,40.00,50.00,Monday
250,26.979848551360565
251,10306439.891157689
336,0.0
385,27.02
386,27.35
387,-0.3679592484010834
388,0.0
425,0.0
450,0.0
451,0.0
452,-2.132780267847089
453,0.0
490,0.0
515,0.0
516,0.0
542,0.0
592,4800253.518875453
632,5359595.913680078
686,1.0
687,1.0
688,2.0
2,21, 1,21, 0, 7,50.00,60.00,Monday
250,25.792015256063177
251,8165465.361051705
336,0.0
385,25.686666666666632
386,27.349999999999962
387,-0.43601496135007745
388,0.0
425,0.0
450,0.0
451,0.0
452,-2.3386018329468348
453,0.0
490,0.0
515,0.0
516,0.0
542,0.0
592,3004199.1314633666
632,5108629.3373214435
686,0.6666666666666657
687,0.513207093772403
688,1.3333333333333315
2,21, 1,21, 0, 8, 0.00,10.00,Monday
250,26.343779025099522
251,7849929.720507913
336,0.0
385,26.35333333333333
386,27.35
387,-0.5050291045172705
388,0.0
425,0.0
450,0.0
451,0.0
452,-2.5601370327146573
453,0.0
490,0.0
515,0.0
516,0.0
542,0.0
592,4004278.7934899013
632,3658602.3003979777
686,0.8928982091941586
687,0.6666666666666666
688,1.6666666666666665
2,21, 1,21, 0, 8,10.00,20.00,Monday
250,26.587219907413804
251,8762025.905658402
336,0.0
385,27.02
386,27.35
387,-0.5764110507035118
388,0.0
425,0.0
450,0.0
451,0.0
452,-2.737491461556802
453,0.0
490,0.0
515,0.0
516,0.0
542,0.0
592,4839846.964497664
632,4427423.905937938
686,1.0
687,1.0
688,2.0
2,21, 1,21, 0, 8,20.00,30.00,Monday
250,26.979375624715587
251,9883627.242347077
336,0.0
385,27.02
386,27.35
387,-0.6250046573829477
388,0.0
425,0.0
450,0.0
451,0.0
452,-2.7608902376150075
453,0.0
490,0.0
515,0.0
516,0.0
542,0.0
592,4850353.090971849
632,4887811.028502233
686,1.0
687,1.0
688,2.0
2,21, 1,21, 0, 8,30.00,40.00,Monday
250,25.8192136637437
251,7652430.420914399
336,0.0
385,25.68666666666665
386,27.34999999999998
387,-0.6497891473890244
388,0.0
425,0.0
450,0.0
451,0.0
452,-2.6494435120077777
453,0.0
490,0.0
515,0.0
516,0.0
542,0.0
592,2936828.716378173
632,4653201.164219723
686,0.6450464787797185
687,0.49999999999999967
688,1.1666666666666659
2,21, 1,21, 0, 8,40.00,50.00,Monday
250,26.340111805619635
251,7560563.8608761765
336,0.0
385,26.353333333333353
386,27.350000000000023
387,-0.6623964886725081
388,0.0
425,0.0
450,0.0
451,0.0
452,-2.431484991393555
453,0.0
490,0.0
515,0.0
516,0.0
542,0.0
592,3954097.6487414194
632,3437602.8871976356
686,0.8685972260688095
687,0.6666666666666672
688,1.6666666666666679
2,21, 1,21, 0, 8,50.00,60.00,Monday
250,26.95454321475343
251,9386076.480101783
336,0.0
385,27.02
386,27.35
387,-0.6590379626295915
388,0.0
425,0.0
450,0.0
451,0.0
452,-2.1048901198623198
453,0.0
490,0.0
515,0.0
516,0.0
542,0.0
592,4881868.245072942
632,4423272.700092547
686,1.0
687,1.0
688,2.0
2,21, 1,21, 0, 9, 0.00,10.00,Monday
250,25.90059010518922
251,6415011.330050359
336,0.0
385,25.820000000000004
386,27.35
387,-0.6332108197916735
388,0.0
425,0.0
450,0.0
451,0.0
452,-1.70976973778197
453,0.0
490,0.0
515,0.0
516,0.0
542,0.0
592,2749607.2787328493
632,3688145.858978029
686,0.6000000000000001
687,0.4622857646027226
688,1.2000000000000002
2,21, 1,21, 0, 9,10.00,20.00,Monday
250,26.299345815891286
251,8580323.140213568
336,0.0
385,26.35333333333333
386,27.35
387,-0.5879487126358024
388,0.0
425,0.0
450,0.0
451,0.0
452,-1.2248543010443715
453,0.0
490,0.0
515,0.0
516,0.0
542,0.0
592,4852448.207870129
632,3670129.6752042198
686,1.0
687,0.9535155450894635
688,2.0
2,21, 1,21, 0, 9,20.00,30.00,Monday
250,26.34585224714683
251,6767525.276444367
336,0.0
385,26.35333333333332
386,27.34999999999999
387,-0.5079415542936884
388,0.0
425,0.0
450,0.0
451,0.0
452,-0.5206555996690316
453,0.0
490,0.0
515,0.0
516,0.0
542,0.0
592,3710909.969604497
632,2884492.4248888236
686,0.7854369430043898
687,0.6666666666666664
688,1.666666666666666
2,21, 1,21, 0, 9,30.00,40.00,Monday
250,26.362943011093567
251,8064583.422642928
336,0.0
385,26.353333333333342
386,27.350000000000012
387,-0.4207650312539779
388,0.0
425,0.0
450,0.0
451,0.0
452,0.12500320915790855
453,0.0
490,0.0
515,0.0
516,0.0
542,0.0
592,3713023.8784009865
632,4110610.880698255
686,0.8541803753699116
687,0.4824293663801754
688,1.666666666666667
2,21, 1,21, 0, 9,40.00,50.00,Monday
250,26.36415667043617
251,8096285.6182516385
336,0.0
385,26.353333333333353
386,27.350000000000023
387,-0.3401039397512419
388,0.0
425,0.0
450,0.0
451,0.0
452,0.7376291409814201
453,0.0
490,0.0
515,0.0
516,0.0
542,0.0
592,3788188.6996081676
632,4060246.2106718607
686,0.8565732149180704
687,0.5202815005841253
688,1.6666666666666679
2,21, 1,21, 0, 9,50.00,60.00,Monday
250,26.956308071734092
251,8800865.475904858
336,0.0
385,27.02
386,27.35
387,-0.268433881079925
388,0.0
425,0.0
450,0.0
451,0.0
452,1.2437850734640716
453,0.0
490,0.0
515,0.0
516,0.0
542,0.0
592,4987886.410218769
632,3725668.0104045076
686,1.0
687,1.0
688,2.0
2,21, 1,21, 0,10, 0.00,10.00,Monday
250,25.92761554502355
251,6132699.37435107
336,0.0
385,25.820000000000004
386,27.35
387,-0.1954699442943041
388,0.0
425,0.0
450,0.0
451,0.0
452,1.7113328251248763
453,0.0
490,0.0
515,0.0
516,0.0
542,0.0
592,2717672.525144104
632,3433552.624027307
686,0.596247871788973
687,0.4
688,1.0
2,21, 1,21, 0,10,10.00,20.00,Monday
250,26.29755688681624
251,8202622.554489614
336,0.0
385,26.35333333333333
386,27.35
387,-0.10922281727440958
388,0.0
425,0.0
450,0.0
451,0.0
452,2.218876053759905
453,0.0
490,0.0
515,0.0
516,0.0
542,0.0
592,4811828.373106595
632,3344416.1802242175
686,1.0
687,0.8286822235833222
688,2.0
2,21, 1,21, 0,10,20.00,30.00,Monday
250,26.33841361143749
251,6365359.490075557
336,0.0
385,26.35333333333332
386,27.34999999999999
387,0.02456592935720464
388,0.0
425,0.0
450,0.0
451,0.0
452,2.9038236923940097
453,0.0
490,0.0
515,0.0
516,0.0
542,0.0
592,3703963.5246075983
632,2524360.054645446
686,0.7518822986919149
687,0.6666666666666664
688,1.666666666666666
2,21, 1,21, 0,10,30.00,40.00,Monday
250,26.3548789913608
251,7644321.810996597
336,0.0
385,26.353333333333342
386,27.350000000000012
387,0.15463081814525298
388,0.0
425,0.0
450,0.0
451,0.0
452,3.5318833072240983
453,0.0
490,0.0
515,0.0
516,0.0
542,0.0
592,3503711.3064580304
632,3943667.8352895933
686,0.8168195477807721
687,0.3435476242530943
688,1.666666666666667
2,21, 1,21, 0,10,40.00,50.00,Monday
250,26.354665074973102
251,7593039.176635234
336,0.0
385,26.353333333333353
386,27.350000000000023
387,0.29281233261962347
388,0.0
425,0.0
450,0.0
451,0.0
452,4.207454877030194
453,0.0
490,0.0
515,0.0
516,0.0
542,0.0
592,3533164.730649081
632,3863858.6320498623
686,0.8123987831788674
687,0.3595018248602331
688,1.6666666666666679
2,21, 1,21, 0,10,50.00,60.00,Monday
250,26.353162633818418
251,7508190.238746716
336,0.0
385,26.353333333333353
386,27.350000000000023
387,0.44891112855239756
388,0.0
425,0.0
450,0.0
451,0.0
452,4.963785494896154
453,0.0
490,0.0
515,0.0
516,0.0
542,0.0
592,3491741.151674783
632,3828664.1945509515
686,0.8053200589431005
687,0.33348411872405104
688,1.6666666666666679
2,21, 1,21, 0,11, 0.00,10.00,Monday
250,26.35161439152725
251,7415122.586534502
336,0.0
385,26.35333333333333
386,27.35
387,0.6184765115803577
388,0.0
425,0.0
450,0.0
451,0.0
452,5.783975782486015
453,0.0
490,0.0
515,0.0
516,0.0
542,0.0
592,3438977.1243731203
632,3797656.0287867584
686,0.7879677240616246
687,0.3333333333333333
688,1.3333333333333335
2,21, 1,21, 0,11,10.00,20.00,Monday
250,26.349966441409514
251,7313497.195162579
336,0.0
385,26.35333333333333
386,27.35
387,0.7985797949497022
388,0.0
425,0.0
450,0.0
451,0.0
452,6.649094823030554
453,0.0
490,0.0
515,0.0
516,0.0
542,0.0
592,3380828.928736675
632,3764105.2665248383
686,0.7692488400554192
687,0.33333333333333337
688,1.3333333333333333
2,21, 1,21, 0,11,20.00,30.00,Monday
250,26.068181665978237
251,6498187.785944719
336,0.0
385,26.02
386,27.35
387,0.9479074458677658
388,0.0
425,0.0
450,0.0
451,0.0
452,7.422229798084183
453,0.0
490,0.0
515,0.0
516,0.0
542,0.0
592,3932604.2076550294
632,2431037.8063893733
686,0.75
687,0.75
688,1.5
2,21, 1,21, 0,11,30.00,40.00,Monday
250,26.016205601788165
251,6919163.424545899
336,0.0
385,26.02
386,27.35
387,1.1780369091666643
388,0.0
425,0.0
450,0.0
451,0.0
452,8.443954140269364
453,0.0
490,0.0
515,0.0
516,0.0
542,0.0
592,3390907.1963032205
632,3468107.7005386706
686,0.700662982954332
687,0.5
688,1.25
2,21, 1,21, 0,11,40.00,50.00,Monday
250,26.018888517269314
251,6756504.803870085
336,0.0
385,26.02
386,27.35
387,1.4034510959312363
388,0.0
425,0.0
450,0.0
451,0.0
452,9.314534272455072
453,0.0
490,0.0
515,0.0
516,0.0
542,0.0
592,3403616.716356665
632,3297577.9208466853
686,0.70086635641188
687,0.5
688,1.25
2,21, 1,21, 0,11,50.00,60.00,Monday
250,26.316235096713783
251,5546061.382435641
336,0.0
385,26.353333333333353
386,27.350000000000023
387,1.5793118851394787
388,0.0
425,0.0
450,0.0
451,0.0
452,9.96185915177077
453,0.0
490,0.0
515,0.0
516,0.0
542,0.0
592,3729193.481705032
632,1764465.933019789
686,0.7181918522367305
687,0.6666666666666672
688,1.6666666666666679
2,21, 1,21, 0,12, 0.00,10.00,Monday
250,26.34256527650078
251,6974846.495067405
336,0.0
385,26.35333333333333
386,27.35
387,1.820644431573792
388,0.0
425,0.0
450,0.0
451,0.0
452,10.675392283925678
453,0.0
490,0.0
515,0.0
516,0.0
542,0.0
592,3156887.2601738325
632,3689542.078332206
686,0.6968051025128769
687,0.3333333333333333
688,1.3333333333333335
2,21, 1,21, 0,12,10.00,20.00,Monday
250,26.951931715209163
251,7577912.983565908
336,0.0
385,27.02
386,27.35
387,2.0038358829216105
388,0.0
425,0.0
450,0.0
451,0.0
452,11.139981505233635
453,0.0
490,0.0
515,0.0
516,0.0
542,0.0
592,5313791.73372639
632,2182024.768304946
686,1.0
687,1.0
688,2.0
2,21, 1,21, 0,12,20.00,30.00,Monday
250,25.92110896701861
251,5703210.48584163
336,0.0
385,25.68666666666669
386,27.350000000000023
387,2.157519483782716
388,0.0
425,0.0
450,0.0
451,0.0
452,11.456477251979335
453,0.0
490,0.0
515,0.0
516,0.0
542,0.0
592,2805601.73692894
632,2803114.916733798
686,0.5431520747290545
687,0.48643322417427753
688,1.1666666666666674
2,21, 1,21, 0,12,30.00,40.00,Monday
250,26.30794608231858
251,5437352.717769102
336,0.0
385,26.353333333333353
386,27.350000000000023
387,2.31211450095024
388,0.0
425,0.0
450,0.0
451,0.0
452,11.695901755548746
453,0.0
490,0.0
515,0.0
516,0.0
542,0.0
592,3703546.0241314108
632,1711562.699449376
686,0.7060896807171786
687,0.6666666666666672
688,1.6666666666666679
2,21, 1,21, 0,12,40.00,50.00,Monday
250,26.52352947036404
251,6544655.857076809
336,0.0
385,27.02
386,27.35
387,2.4868220855357364
388,0.0
425,0.0
450,0.0
451,0.0
452,11.83833502155515
453,0.0
490,0.0
515,0.0
516,0.0
542,0.0
592,5335923.472596238
632,1742894.4535915623
686,1.0
687,1.0
688,2.0
2,21, 1,21, 0,12,50.00,60.00,Monday
250,26.97154907696614
251,7653609.033962989
336,0.0
385,27.02
386,27.35
387,2.6205357739583333
388,0.0
425,0.0
450,0.0
451,0.0
452,11.824597244925148
453,0.0
490,0.0
515,0.0
516,0.0
542,0.0
592,5343302.612699688
632,2181158.1934550526
686,1.0
687,1.0
688,2.0
2,21, 1,21, 0,13, 0.00,10.00,Monday
250,25.931383617404585
251,5515162.277139303
336,0.0
385,25.686666666666667
386,27.35
387,2.7126841240351642
388,0.0
425,0.0
450,0.0
451,0.0
452,11.726033073289901
453,0.0
490,0.0
515,0.0
516,0.0
542,0.0
592,2706272.956989448
632,2716965.3958682795
686,0.5333488515588599
687,0.4387644671219252
688,1.1666666666666667
2,21, 1,21, 0,13,10.00,20.00,Monday
250,26.906910633574157
251,7396255.351158498
336,0.0
385,27.02
386,27.35
387,2.804921570054157
388,0.0
425,0.0
450,0.0
451,0.0
452,11.629232028472241
453,0.0
490,0.0
515,0.0
516,0.0
542,0.0
592,5335793.470214102
632,2085100.2697312334
686,1.0
687,1.0
688,2.0
2,21, 1,21, 0,13,20.00,30.00,Monday
250,27.011893897018844
251,6615139.930553036
336,0.0
385,27.02
386,27.35
387,2.904979450864667
388,0.0
425,0.0
450,0.0
451,0.0
452,11.549892194082855
453,0.0
490,0.0
515,0.0
516,0.0
542,0.0
592,5332036.951629101
632,1038100.230613313
686,1.0
687,1.0
688,2.0
2,21, 1,21, 0,13,30.00,40.00,Monday
250,25.948033089459656
251,5220622.319339981
336,0.0
385,25.68666666666665
386,27.34999999999998
387,2.9756161801073877
388,0.0
425,0.0
450,0.0
451,0.0
452,11.520758409862776
453,0.0
490,0.0
515,0.0
516,0.0
542,0.0
592,2535576.5399173424
632,2597267.3621994113
686,0.5187489889756896
687,0.36578687844978597
688,1.1666666666666659
2,21, 1,21, 0,13,40.00,50.00,Monday
250,26.906225309769027
251,7065916.118430547
336,0.0
385,27.02
386,27.35
387,3.0480495347970784
388,0.0
425,0.0
450,0.0
451,0.0
452,11.502878142475776
453,0.0
490,0.0
515,0.0
516,0.0
542,0.0
592,5324520.016407276
632,1761328.5421948216
686,1.0
687,1.0
688,2.0
2,21, 1,21, 0,13,50.00,60.00,Monday
250,27.01165180437325
251,6365547.616057306
336,0.0
385,27.02
386,27.35
387,3.1324467570916954
388,0.0
425,0.0
450,0.0
451,0.0
452,11.489830521481855
453,0.0
490,0.0
515,0.0
516,0.0
542,0.0
592,5320759.598422099
632,800056.9172623146
686,1.0
687,1.0
688,2.0
2,21, 1,21, 0,14, 0.00,10.00,Monday
250,25.95892314413038
251,4996147.848374181
336,0.0
385,25.686666666666667
386,27.35
387,3.1985256174526313
388,0.0
425,0.0
450,0.0
451,0.0
452,11.449003447747051
453,0.0
490,0.0
515,0.0
516,0.0
542,0.0
592,2413155.4345277795
632,2501445.7724248
686,0.4988697664303797
687,0.33333333333333326
688,1.0
2,21, 1,21, 0,14,10.00,20.00,Monday
250,26.90742668976892
251,6905590.038638698
336,0.0
385,27.02
386,27.35
387,3.2668465687496226
388,0.0
425,0.0
450,0.0
451,0.0
452,11.345060676666542
453,0.0
490,0.0
515,0.0
516,0.0
542,0.0
592,5327096.986030042
632,1596007.7768223546
686,1.0
687,0.9882642321812765
688,2.0
2,21, 1,21, 0,14,20.00,30.00,Monday
250,27.01173587085712
251,6222239.018368501
336,0.0
385,27.02
386,27.35
387,3.343344186310644
388,0.0
425,0.0
450,0.0
451,0.0
452,11.15636921579964
453,0.0
490,0.0
515,0.0
516,0.0
542,0.0
592,5356447.289610303
632,620855.1662551486
686,1.0
687,1.0
688,2.0
2,21, 1,21, 0,14,30.00,40.00,Monday
250,25.96306801801098
251,4906474.903617645
336,0.0
385,25.68666666666665
386,27.34999999999998
387,3.390227714457872
388,0.0
425,0.0
450,0.0
451,0.0
452,10.910320501356868
453,0.0
490,0.0
515,0.0
516,0.0
542,0.0
592,2376040.8236824516
632,2453169.697406074
686,0.48493088792509387
687,0.33333333333333287
688,0.9999999999999989
2,21, 1,21, 0,14,40.00,50.00,Monday
250,26.907400048955996
251,6827714.17801629
336,0.0
385,27.02
386,27.35
387,3.4249329354194424
388,0.0
425,0.0
450,0.0
451,0.0
452,10.541045303249629
453,0.0
490,0.0
515,0.0
516,0.0
542,0.0