Program Version,EnergyPlus, Version 24.2.0-94a887817b, YMD=2025.02.12 11:47
1,5,Environment Title[],Latitude[deg],Longitude[deg],Time Zone[],Elevation[m]
2,8,Day of Simulation[],Month[],Day of Month[],DST Indicator[1=yes 0=no],Hour[],StartMinute[],EndMinute[],DayType
3,5,Cumulative Day of Simulation[],Month[],Day of Month[],DST Indicator[1=yes 0=no],DayType  ! When Daily Report Variables Requested
4,2,Cumulative Days of Simulation[],Month[]  ! When Monthly Report Variables Requested
5,1,Cumulative Days of Simulation[] ! When Run Period Report Variables Requested
6,1,Calendar Year of Simulation[] ! When Annual Report Variables Requested
250,1,LIVING ZONE,Zone Air Temperature [C] !TimeStep,REPORTSCH
251,1,LIVING ZONE,Zone Air System Sensible Heating Energy [J] !TimeStep,REPORTSCH
336,1,LIVING ZONE,Zone Air System Sensible Cooling Energy [J] !TimeStep,REPORTSCH
385,1,LIVING ZONE,Zone Thermostat Heating Setpoint Temperature [C] !TimeStep,REPORTSCH
386,1,LIVING ZONE,Zone Thermostat Cooling Setpoint Temperature [C] !TimeStep,REPORTSCH
387,1,GARAGE ZONE,Zone Air Temperature [C] !TimeStep,REPORTSCH
388,1,GARAGE ZONE,Zone Air System Sensible Heating Energy [J] !TimeStep,REPORTSCH
425,1,GARAGE ZONE,Zone Air System Sensible Cooling Energy [J] !TimeStep,REPORTSCH
450,1,GARAGE ZONE,Zone Thermostat Heating Setpoint Temperature [C] !TimeStep,REPORTSCH
451,1,GARAGE ZONE,Zone Thermostat Cooling Setpoint Temperature [C] !TimeStep,REPORTSCH
452,1,ATTIC ZONE,Zone Air Temperature [C] !TimeStep,REPORTSCH
453,1,ATTIC ZONE,Zone Air System Sensible Heating Energy [J] !TimeStep,REPORTSCH
490,1,ATTIC ZONE,Zone Air System Sensible Cooling Energy [J] !TimeStep,REPORTSCH
515,1,ATTIC ZONE,Zone Thermostat Heating Setpoint Temperature [C] !TimeStep,REPORTSCH
516,1,ATTIC ZONE,Zone Thermostat Cooling Setpoint Temperature [C] !TimeStep,REPORTSCH
542,1,ACDXCOIL 1,Cooling Coil Total Cooling Energy [J] !TimeStep,REPORTSCH
592,1,HEAT PUMP DX HEATING COIL 1,Heating Coil Heating Energy [J] !TimeStep,REPORTSCH
632,1,SUPP HEATING COIL 1,Heating Coil Heating Energy [J] !TimeStep,REPORTSCH
686,1,TWOSPEED HEAT PUMP 1,Unitary System DX Coil Cycling Ratio [] !TimeStep,REPORTSCH
687,1,TWOSPEED HEAT PUMP 1,Unitary System DX Coil Speed Ratio [] !TimeStep,REPORTSCH
688,1,TWOSPEED HEAT PUMP 1,Unitary System DX Coil Speed Level [] !TimeStep,REPORTSCH
End of Data Dictionary
1,RUN PERIOD 1,  41.98, -87.92,  -6.00, 201.00
2,21, 1,21, 0, 1, 0.00,10.00,Monday
250,22.370980326336202
251,5622880.544664021
336,0.0
385,22.126666666666665
386,26.57
387,0.6069733520066406
388,0.0
425,0.0
450,0.0
451,0.0
452,-1.6400171031187285
453,0.0
490,0.0
515,0.0
516,0.0
542,0.0
592,2577372.6095841574
632,2945503.3745119176
686,0.5395462891831267
687,0.4991598828953776
688,1.1666666666666667
2,21, 1,21, 0, 1,10.00,20.00,Monday
250,22.747796217213896
251,5459916.340821703
336,0.0
385,22.793333333333333
386,26.57
387,0.582506495520358
388,0.0
425,0.0
450,0.0
451,0.0
452,-1.6282816582782464
453,0.0
490,0.0
515,0.0
516,0.0
542,0.0
592,3348388.1119111
632,2097468.9702998474
686,0.6972311761582639
687,0.6666666666666667
688,1.6666666666666667
2,21, 1,21, 0, 1,20.00,30.00,Monday
250,22.983578851142973
251,6753241.952456026
336,0.0
385,23.46
386,26.57
387,0.5530210246014644
388,0.0
425,0.0
450,0.0
451,0.0
452,-1.6166821183844462
453,0.0
490,0.0
515,0.0
516,0.0
542,0.0
592,4846495.320678508
632,2456461.9173491388
686,1.0
687,1.0
688,2.0
2,21, 1,21, 0, 1,30.00,40.00,Monday
250,23.414708996000748
251,7855916.639954112
336,0.0
385,23.46
386,26.57
387,0.5270434789945495
388,0.0
425,0.0
450,0.0
451,0.0
452,-1.609488480379036
453,0.0
490,0.0
515,0.0
516,0.0
542,0.0
592,4829474.847676471
632,2892371.435917895
686,1.0
687,1.0
688,2.0
2,21, 1,21, 0, 1,40.00,50.00,Monday
250,22.36682215662309
251,5704431.453354476
336,0.0
385,22.126666666666637
386,26.569999999999965
387,0.5051471037603366
388,0.0
425,0.0
450,0.0
451,0.0
452,-1.6062279242445185
453,0.0
490,0.0
515,0.0
516,0.0
542,0.0
592,2560633.9578124154
632,3044934.992815576
686,0.5440381778429325
687,0.49999999999999933
688,1.166666666666665
2,21, 1,21, 0, 1,50.00,60.00,Monday
250,22.74921813478649
251,5545214.530157347
336,0.0
385,22.79333333333335
386,26.57000000000002
387,0.4818321934619727
388,0.0
425,0.0
450,0.0
451,0.0
452,-1.6041333985833182
453,0.0
490,0.0
515,0.0
516,0.0
542,0.0
592,3327970.93972353
632,2196700.170612127
686,0.7039259536044697
687,0.6666666666666672
688,1.6666666666666679
2,21, 1,21, 0, 2, 0.00,10.00,Monday
250,22.98567997886166
251,6816858.965796497
336,0.0
385,23.46
386,26.57
387,0.45359398850898947
388,0.0
425,0.0
450,0.0
451,0.0
452,-1.603803308912099
453,0.0
490,0.0
515,0.0
516,0.0
542,0.0
592,4799033.723606651
632,2566344.878407389
686,1.0
687,1.0
688,2.0
2,21, 1,21, 0, 2,10.00,20.00,Monday
250,23.414948244169754
251,7904892.520675814
336,0.0
385,23.46
386,26.57
387,0.4284381008578711
388,0.0
425,0.0
450,0.0
451,0.0
452,-1.6071134493037622
453,0.0
490,0.0
515,0.0
516,0.0
542,0.0
592,4797832.878144772
632,2972468.21309625
686,1.0
687,1.0
688,2.0
2,21, 1,21, 0, 2,20.00,30.00,Monday
250,22.36516009082162
251,5736745.568909142
336,0.0
385,22.126666666666686
386,26.570000000000025
387,0.40686299482225685
388,0.0
425,0.0
450,0.0
451,0.0
452,-1.6144963475448533
453,0.0
490,0.0
515,0.0
516,0.0
542,0.0
592,2558287.12121463
632,3080106.6207072493
686,0.5457904272717402
687,0.5000000000000004
688,1.1666666666666674
2,21, 1,21, 0, 2,30.00,40.00,Monday
250,22.749487135527644
251,5565706.207970817
336,0.0
385,22.79333333333335
386,26.57000000000002
387,0.383531542457436
388,0.0
425,0.0
450,0.0
451,0.0
452,-1.6254437373360373
453,0.0
490,0.0
515,0.0
516,0.0
542,0.0
592,3332869.2822530326
632,2211086.057227392
686,0.705341025378049
687,0.6666666666666672
688,1.6666666666666679
2,21, 1,21, 0, 2,40.00,50.00,Monday
250,22.986321043064702
251,6834236.762735536
336,0.0
385,23.46
386,26.57
387,0.35484726015015444
388,0.0
425,0.0
450,0.0
451,0.0
452,-1.6413158079368728
453,0.0
490,0.0
515,0.0
516,0.0
542,0.0
592,4799035.704686079
632,2583648.108641069
686,1.0
687,1.0
688,2.0
2,21, 1,21, 0, 2,50.00,60.00,Monday
250,23.415021750917013
251,7920265.453277316
336,0.0
385,23.46
386,26.57
387,0.3290622229179374
388,0.0
425,0.0
450,0.0
451,0.0
452,-1.6578776727708622
453,0.0
490,0.0
515,0.0
516,0.0
542,0.0
592,4797831.8891651165
632,2987690.10822569
686,1.0
687,1.0
688,2.0
2,21, 1,21, 0, 3, 0.00,10.00,Monday
250,22.363916593093386
251,5760492.094379315
336,0.0
385,22.126666666666665
386,26.57
387,0.3073269039898719
388,0.0
425,0.0
450,0.0
451,0.0
452,-1.6725011486184702
453,0.0
490,0.0
515,0.0
516,0.0
542,0.0
592,2562465.367815163
632,3100073.859240955
686,0.5469969901788375
687,0.5
688,1.1666666666666667
2,21, 1,21, 0, 3,10.00,20.00,Monday
250,22.750088939747002
251,5602272.43614792
336,0.0
385,22.793333333333333
386,26.57
387,0.2845614981347931
388,0.0
425,0.0
450,0.0
451,0.0
452,-1.6844135194610899
453,0.0
490,0.0
515,0.0
516,0.0
542,0.0
592,3342371.5650067218
632,2235422.6531979647
686,0.70808639690925
687,0.6666666666666667
688,1.6666666666666667
2,21, 1,21, 0, 3,20.00,30.00,Monday
250,22.98739238550688
251,6879313.116502303
336,0.0
385,23.46
386,26.57
387,0.25755692630861615
388,0.0
425,0.0
450,0.0
451,0.0
452,-1.6923114541908892
453,0.0
490,0.0
515,0.0
516,0.0
542,0.0
592,4799039.740541276
632,2628338.0633255634
686,1.0
687,1.0
688,2.0
2,21, 1,21, 0, 3,30.00,40.00,Monday
250,23.415161615029888
251,7975567.367490261
336,0.0
385,23.46
386,26.57
387,0.23452837167348567
388,0.0
425,0.0
450,0.0
451,0.0
452,-1.6929207983275143
453,0.0
490,0.0
515,0.0
516,0.0
542,0.0
592,4797829.968376873
632,3042725.756043573
686,1.0
687,1.0
688,2.0
2,21, 1,21, 0, 3,40.00,50.00,Monday
250,22.36115031678692
251,5813147.929505108
336,0.0
385,22.126666666666637
386,26.569999999999965
387,0.2160255336456638
388,0.0
425,0.0
450,0.0
451,0.0
452,-1.6884913440476228
453,0.0
490,0.0
515,0.0
516,0.0
542,0.0
592,2571652.4118392076
632,3144431.1327016638
686,0.5496499521236486
687,0.49999999999999933
688,1.166666666666665
2,21, 1,21, 0, 3,50.00,60.00,Monday
250,22.750972651666164
251,5658034.875345845
336,0.0
385,22.79333333333335
386,26.57000000000002
387,0.1970364735132191
388,0.0
425,0.0
450,0.0
451,0.0
452,-1.6809999515535279
453,0.0
490,0.0
515,0.0
516,0.0
542,0.0
592,3357146.9255258758
632,2272313.299772172
686,0.7123551592733609
687,0.6666666666666672
688,1.6666666666666679
2,21, 1,21, 0, 4, 0.00,10.00,Monday
250,22.98915203403009
251,6995357.710354263
336,0.0
385,23.46
386,26.57
387,0.17028731081019652
388,0.0
425,0.0
450,0.0
451,0.0
452,-1.670930195896239
453,0.0
490,0.0
515,0.0
516,0.0
542,0.0
592,4794678.525667194
632,2748147.056114915
686,1.0
687,1.0
688,2.0
2,21, 1,21, 0, 4,10.00,20.00,Monday
250,23.415424434380398
251,8158519.712884412
336,0.0
385,23.46
386,26.57
387,0.14202598171817077
388,0.0
425,0.0
450,0.0
451,0.0
452,-1.66356954342494
453,0.0
490,0.0
515,0.0
516,0.0
542,0.0
592,4788032.586853675
632,3235030.1437172247
686,1.0
687,1.0
688,2.0
2,21, 1,21, 0, 4,20.00,30.00,Monday
250,22.348013166770095
251,6061940.183559598
336,0.0
385,22.126666666666686
386,26.570000000000025
387,0.1146405547725568
388,0.0
425,0.0
450,0.0
451,0.0
452,-1.6609110071868518
453,0.0
490,0.0
515,0.0
516,0.0
542,0.0
592,2607631.0347153014
632,3361481.2023279113
686,0.5623228002824249
687,0.5000000000000004
688,1.1666666666666674
2,21, 1,21, 0, 4,30.00,40.00,Monday
250,22.75669687536798
251,5997132.876848574
336,0.0
385,22.79333333333335
386,26.57000000000002
387,0.08385016635129938
388,0.0
425,0.0
450,0.0
451,0.0
452,-1.6620713453070581
453,0.0
490,0.0
515,0.0
516,0.0
542,0.0
592,3437553.9741238733
632,2504106.7846610993
686,0.7398387646646445
687,0.6666666666666672
688,1.6666666666666679
2,21, 1,21, 0, 4,40.00,50.00,Monday
250,22.996048015540037
251,7304101.437358274
336,0.0
385,23.46
386,26.57
387,0.04468620484380039
388,0.0
425,0.0
450,0.0
451,0.0
452,-1.6685133194150612
453,0.0
490,0.0
515,0.0
516,0.0
542,0.0
592,4775697.339970166
632,3069525.2325482746
686,1.0
687,1.0
688,2.0
2,21, 1,21, 0, 4,50.00,60.00,Monday
250,23.41623593380921
251,8476179.736364909
336,0.0
385,23.46
386,26.57
387,0.008415687750820779
388,0.0
425,0.0
450,0.0
451,0.0
452,-1.678233190426623
453,0.0
490,0.0
515,0.0
516,0.0
542,0.0
592,4766582.24520484
632,3572345.198853282
686,1.0
687,1.0
688,2.0
2,21, 1,21, 0, 5, 0.00,10.00,Monday
250,22.337178388106047
251,6268082.334934534
336,0.0
385,22.126666666666665
386,26.57
387,-0.014423646765910243
388,0.0
425,0.0
450,0.0
451,0.0
452,-1.6856829339105288
453,0.0
490,0.0
515,0.0
516,0.0
542,0.0
592,2632629.498333725
632,3546118.4302632613
686,0.5730563783382187
687,0.5
688,1.1666666666666667
2,21, 1,21, 0, 5,10.00,20.00,Monday
250,22.758140387394885
251,6103265.044122737
336,0.0
385,22.793333333333333
386,26.57
387,-0.031954784116575534
388,0.0
425,0.0
450,0.0
451,0.0
452,-1.6881020466366987
453,0.0
490,0.0
515,0.0
516,0.0
542,0.0
592,3450487.8054781714
632,2590233.2544027334
686,0.7484016390120717
687,0.6666666666666667
688,1.6666666666666667
2,21, 1,21, 0, 5,20.00,30.00,Monday
250,22.99783062007954
251,7283528.577137984
336,0.0
385,23.46
386,26.57
387,-0.047452914892581424
388,0.0
425,0.0
450,0.0
451,0.0
452,-1.6820504438172446
453,0.0
490,0.0
515,0.0
516,0.0
542,0.0
592,4750926.246653336
632,3071581.2343064942
686,1.0
687,1.0
688,2.0
2,21, 1,21, 0, 5,30.00,40.00,Monday
250,23.416374930096236
251,8345866.663152361
336,0.0
385,23.46
386,26.57
387,-0.05711263712882703
388,0.0
425,0.0
450,0.0
451,0.0
452,-1.667044355903771
453,0.0
490,0.0
515,0.0
516,0.0
542,0.0
592,4741390.433810213
632,3466749.232230039
686,1.0
687,1.0
688,2.0
2,21, 1,21, 0, 5,40.00,50.00,Monday
250,22.34419703269801
251,6135653.934763589
336,0.0
385,22.126666666666637
386,26.569999999999965
387,-0.0616018770259251
388,0.0
425,0.0
450,0.0
451,0.0
452,-1.6453683185261754
453,0.0
490,0.0
515,0.0
516,0.0
542,0.0
592,2595800.2142083636
632,3448155.1486563124
686,0.5666992608272993
687,0.49999999999999933
688,1.166666666666665
2,21, 1,21, 0, 5,50.00,60.00,Monday
250,22.755866903322794
251,5960747.459775937
336,0.0
385,22.79333333333335
386,26.57000000000002
387,-0.06399405889517874
388,0.0
425,0.0
450,0.0
451,0.0
452,-1.6170591739209321
453,0.0
490,0.0
515,0.0
516,0.0
542,0.0
592,3390534.4585711355
632,2518582.7343897033
686,0.7368296004338775
687,0.6666666666666672
688,1.6666666666666679
2,21, 1,21, 0, 6, 0.00,10.00,Monday
250,22.995872388617773
251,7241921.911835893
336,0.0
385,23.46
386,26.57
387,-0.07335847517909581
388,0.0
425,0.0
450,0.0
451,0.0
452,-1.584990445353486
453,0.0
490,0.0
515,0.0
516,0.0
542,0.0
592,4723945.919875701
632,3060164.401672592
686,1.0
687,1.0
688,2.0
2,21, 1,21, 0, 6,10.00,20.00,Monday
250,23.416208932875954
251,8385044.243918053
336,0.0
385,23.46
386,26.57
387,-0.09018839017305932
388,0.0
425,0.0
450,0.0
451,0.0
452,-1.5673586085770723
453,0.0
490,0.0
515,0.0
516,0.0
542,0.0
592,4718079.158737995
632,3529769.0929793417
686,1.0
687,1.0
688,2.0
2,21, 1,21, 0, 6,20.00,30.00,Monday
250,22.33766354927437
251,6259227.997666292
336,0.0
385,22.126666666666686
386,26.570000000000025
387,-0.11095624401498097
388,0.0
425,0.0
450,0.0
451,0.0
452,-1.5665064322146516
453,0.0
490,0.0
515,0.0
516,0.0
542,0.0
592,2607250.5710880375
632,3562379.2181863594
686,0.5733021961558511
687,0.5000000000000004
688,1.1666666666666674
2,21, 1,21, 0, 6,30.00,40.00,Monday
250,22.759793655203268
251,6184384.389999661
336,0.0
385,22.79333333333335
386,26.57000000000002
387,-0.13609782376705487
388,0.0
425,0.0
450,0.0
451,0.0
452,-1.5757828208100535
453,0.0
490,0.0
515,0.0
516,0.0
542,0.0
592,3441736.3445693464
632,2672561.265182454
686,0.755574227859318
687,0.6666666666666672
688,1.6666666666666679
2,21, 1,21, 0, 6,40.00,50.00,Monday
250,23.0001883522275
251,7446979.5532425465
336,0.0
385,23.46
386,26.57
387,-0.16998268914293704
388,0.0
425,0.0
450,0.0
451,0.0
452,-1.5972590506492632
453,0.0
490,0.0
515,0.0
516,0.0
542,0.0
592,4708068.803493426
632,3276735.8747010743
686,1.0
687,1.0
688,2.0
2,21, 1,21, 0, 6,50.00,60.00,Monday
250,23.416702503285425
251,8594701.551339226
336,0.0
385,23.46
386,26.57
387,-0.20254712444631867
388,0.0
425,0.0
450,0.0
451,0.0
452,-1.6252652417308193
453,0.0
490,0.0
515,0.0
516,0.0
542,0.0
592,4699753.541947659
632,3756632.630386482
686,1.0
687,1.0
688,2.0
2,21, 1,21, 0, 7, 0.00,10.00,Monday
250,22.32708660387425
251,6459538.015516379
336,0.0
385,22.126666666666665
386,26.57
387,-0.23633594847984774
388,0.0
425,0.0
450,0.0
451,0.0
452,-1.6701678976832335
453,0.0
490,0.0
515,0.0
516,0.0
542,0.0
592,2646148.8313390156
632,3727299.359395313
686,0.5834307898054688
687,0.5
688,1.1666666666666667
2,21, 1,21, 0, 7,10.00,20.00,Monday
250,22.7626385994716
251,6371621.767048135
336,0.0
385,22.793333333333333
386,26.57
387,-0.2796119196363169
388,0.0
425,0.0
450,0.0
451,0.0
452,-1.750368783858924
453,0.0
490,0.0
515,0.0
516,0.0
542,0.0
592,3517123.2738968283
632,2770682.355468405
686,0.7706603641724219
687,0.6666666666666667
688,1.6666666666666667
2,21, 1,21, 0, 7,20.00,30.00,Monday
250,23.003045774789516
251,7573349.868252523
336,0.0
385,23.46
386,26.57
387,-0.34131689635449597
388,0.0
425,0.0
450,0.0
451,0.0
452,-1.8868767526729022
453,0.0
490,0.0
515,0.0
516,0.0
542,0.0
592,4767811.639318044
632,3339389.5575153357
686,1.0
687,1.0
688,2.0
2,21, 1,21, 0, 7,30.00,40.00,Monday
250,23.416977538410542
251,8680991.923448402
336,0.0
385,23.46
386,26.57
387,-0.4040617157363707
388,0.0
425,0.0
450,0.0
451,0.0
452,-2.0487358914942666
453,0.0
490,0.0
515,0.0
516,0.0
542,0.0
592,4782436.768484273
632,3759458.3323315047
686,1.0
687,1.0
688,2.0
2,21, 1,21, 0, 7,40.00,50.00,Monday
250,22.323913269483835
251,6518374.03012507
336,0.0
385,22.126666666666637
386,26.569999999999965
387,-0.46566752511012555
388,0.0
425,0.0
450,0.0
451,0.0
452,-2.2289569911995653
453,0.0
490,0.0
515,0.0
516,0.0
542,0.0
592,2697312.790919509
632,3736212.8418615875
686,0.5851438159214126
687,0.49999999999999933
688,1.166666666666665
2,21, 1,21, 0, 7,50.00,60.00,Monday
250,22.763360385971875
251,6434229.296069287
336,0.0
385,22.79333333333335
386,26.57000000000002
387,-0.538139743824109
388,0.0
425,0.0
450,0.0
451,0.0
452,-2.4485556989053814
453,0.0
490,0.0
515,0.0
516,0.0
542,0.0
592,3588394.9641323616
632,2758489.8672114704
686,0.7746090113933084
687,0.6666666666666672
688,1.6666666666666679
2,21, 1,21, 0, 8, 0.00,10.00,Monday
250,23.003940091760207
251,7255752.980394093
336,0.0
385,23.46
386,26.57
387,-0.6241139480262623
388,0.0
425,0.0
450,0.0
451,0.0
452,-2.713234393724877
453,0.0
490,0.0
515,0.0
516,0.0
542,0.0
592,4837214.763271282
632,2951195.3297659615
686,1.0
687,1.0
688,2.0
2,21, 1,21, 0, 8,10.00,20.00,Monday
250,23.417047362520254
251,8273864.213729789
336,0.0
385,23.46
386,26.57
387,-0.6861476174664773
388,0.0
425,0.0
450,0.0
451,0.0
452,-2.8604003703302663
453,0.0
490,0.0
515,0.0
516,0.0
542,0.0
592,4841299.807694996
632,3293189.332224539
686,1.0
687,1.0
688,2.0
2,21, 1,21, 0, 8,20.00,30.00,Monday
250,22.348506543900186
251,6052450.267701817
336,0.0
385,22.126666666666686
386,26.570000000000025
387,-0.7239950156948574
388,0.0
425,0.0
450,0.0
451,0.0
452,-2.8589197936623982
453,0.0
490,0.0
515,0.0
516,0.0
542,0.0
592,2643330.5594782755
632,3316155.156977418
686,0.5615808209446251
687,0.5000000000000004
688,1.1666666666666674
2,21, 1,21, 0, 8,30.00,40.00,Monday
250,22.753760239315298
251,5849971.395032395
336,0.0
385,22.79333333333335
386,26.57000000000002
387,-0.7527494917531965
388,0.0
425,0.0
450,0.0
451,0.0
452,-2.761273579311092
453,0.0
490,0.0
515,0.0
516,0.0
542,0.0
592,3451473.9336495874
632,2357024.627607322
686,0.7264383761524416
687,0.6666666666666672
688,1.6666666666666679
2,21, 1,21, 0, 8,40.00,50.00,Monday
250,22.993323321794872
251,7001631.877073574
336,0.0
385,23.46
386,26.57
387,-0.771534599509765
388,0.0
425,0.0
450,0.0
451,0.0
452,-2.5265644833294756
453,0.0
490,0.0
515,0.0
516,0.0
542,0.0
592,4879334.519750663
632,2666297.071796025
686,1.0
687,1.0
688,2.0
2,21, 1,21, 0, 8,50.00,60.00,Monday
250,23.415863278652125
251,7988434.757918457
336,0.0
385,23.46
386,26.57
387,-0.7692978705642841
388,0.0
425,0.0
450,0.0
451,0.0
452,-2.2127811810989026
453,0.0
490,0.0
515,0.0
516,0.0
542,0.0
592,4883372.9875922445
632,2968419.6142168827
686,1.0
687,1.0
688,2.0
2,21, 1,21, 0, 9, 0.00,10.00,Monday
250,22.381159345159546
251,5417692.7221937515
336,0.0
385,22.126666666666665
386,26.57
387,-0.743128406576688
388,0.0
425,0.0
450,0.0
451,0.0
452,-1.8330976020075558
453,0.0
490,0.0
515,0.0
516,0.0
542,0.0
592,2471602.502829011
632,2850698.7964865747
686,0.5293856994382865
687,0.43731454359479915
688,1.1666666666666667
2,21, 1,21, 0, 9,10.00,20.00,Monday
250,22.742089527597685
251,5138598.365254249
336,0.0
385,22.793333333333333
386,26.57
387,-0.6977866766215317
388,0.0
425,0.0
450,0.0
451,0.0
452,-1.3512020054791796
453,0.0
490,0.0
515,0.0
516,0.0
542,0.0
592,3293241.218377748
632,1858869.5681310717
686,0.6704602769643516
687,0.6666666666666667
688,1.6666666666666667
2,21, 1,21, 0, 9,20.00,30.00,Monday
250,22.772891674147566
251,6533460.3175960705
336,0.0
385,22.793333333333326
386,26.569999999999993
387,-0.6180924903436398
388,0.0
425,0.0
450,0.0
451,0.0
452,-0.6438102371590768
453,0.0
490,0.0
515,0.0
516,0.0
542,0.0
592,2681475.753344693
632,3775152.7220090427
686,0.6251611329239087
687,0.3333333333333332
688,1.3333333333333328
2,21, 1,21, 0, 9,30.00,40.00,Monday
250,22.773890920405336
251,6493635.755754446
336,0.0
385,22.793333333333344
386,26.570000000000014
387,-0.5315714653645922
388,0.0
425,0.0
450,0.0
451,0.0
452,0.006132030253245109
453,0.0
490,0.0
515,0.0
516,0.0
542,0.0
592,2700152.994453865
632,3712621.1627941085
686,0.6276367415951248
687,0.3333333333333332
688,1.3333333333333335
2,21, 1,21, 0, 9,40.00,50.00,Monday
250,22.773481061509614
251,6468410.312518632
336,0.0
385,22.79333333333335
386,26.57000000000002
387,-0.45081286476932336
388,0.0
425,0.0
450,0.0
451,0.0
452,0.6226295573982146
453,0.0
490,0.0
515,0.0
516,0.0
542,0.0
592,2690313.8213605774
632,3699868.286863742
686,0.6220817611413716
687,0.3333333333333336
688,1.3333333333333344
2,21, 1,21, 0, 9,50.00,60.00,Monday
250,23.392772129975754
251,7159322.068548517
336,0.0
385,23.46
386,26.57
387,-0.37903717793258374
388,0.0
425,0.0
450,0.0
451,0.0
452,1.1301849753089326
453,0.0
490,0.0
515,0.0
516,0.0
542,0.0
592,4989689.455095494
632,2090262.3719747213
686,1.0
687,1.0
688,2.0
2,21, 1,21, 0,10, 0.00,10.00,Monday
250,22.392300557816682
251,5164484.975631577
336,0.0
385,22.126666666666665
386,26.57
387,-0.30672215563381655
388,0.0
425,0.0
450,0.0
451,0.0
452,1.5940060025505978
453,0.0
490,0.0
515,0.0
516,0.0
542,0.0
592,2372887.1781473877
632,2703744.25493719
686,0.5156810158158643
687,0.3573607334186556
688,1.1666666666666667
2,21, 1,21, 0,10,10.00,20.00,Monday
250,23.35436356657069
251,7129311.912378056
336,0.0
385,23.46
386,26.57
387,-0.21682946868115208
388,0.0
425,0.0
450,0.0
451,0.0
452,2.1183405707138983
453,0.0
490,0.0
515,0.0
516,0.0
542,0.0
592,5057216.429717287
632,2092247.4251730319
686,1.0
687,1.0
688,2.0
2,21, 1,21, 0,10,20.00,30.00,Monday
250,22.170043144364836
251,5075764.057543767
336,0.0
385,22.126666666666658
386,26.569999999999993
387,-0.11758087689609252
388,0.0
425,0.0
450,0.0
451,0.0
452,2.6633080265088007
453,0.0
490,0.0
515,0.0
516,0.0
542,0.0
592,3393878.8133350746
632,1505868.5500448868
686,0.6666666666666664
687,0.6666666666666664
688,1.3333333333333328
2,21, 1,21, 0,10,30.00,40.00,Monday
250,22.732826192146277
251,4717330.965959191
336,0.0
385,22.793333333333344
386,26.570000000000014
387,0.03148692417818178
388,0.0
425,0.0
450,0.0
451,0.0
452,3.3909779232874135
453,0.0
490,0.0
515,0.0
516,0.0
542,0.0
592,2805533.898770011
632,1983208.6007802063
686,0.6306232056477191
687,0.3333333333333332
688,1.0
2,21, 1,21, 0,10,40.00,50.00,Monday
250,22.41447080364848
251,4655896.622152637
336,0.0
385,22.260000000000005
386,26.57
387,0.14063204840386845
388,0.0
425,0.0
450,0.0
451,0.0
452,3.969936588727074
453,0.0
490,0.0
515,0.0
516,0.0
542,0.0
592,2331927.9158005067
632,2375297.8067763443
686,0.4721671182607426
687,0.4
688,1.0
2,21, 1,21, 0,10,50.00,60.00,Monday
250,22.72297038580537
251,6234739.368664652
336,0.0
385,22.793333333333354
386,26.57000000000002
387,0.27008767180914484
388,0.0
425,0.0
450,0.0
451,0.0
452,4.661701279923048
453,0.0
490,0.0
515,0.0
516,0.0
542,0.0
592,3564358.64795027
632,2735768.310793973
686,0.822279437407885
687,0.3333333333333336
688,1.3333333333333344
2,21, 1,21, 0,11, 0.00,10.00,Monday
250,22.857357711801015
251,4533212.294124763
336,0.0
385,22.793333333333337
386,26.57
387,0.4777323297635891
388,0.0
425,0.0
450,0.0
451,0.0
452,5.632350020579919
453,0.0
490,0.0
515,0.0
516,0.0
542,0.0
592,3472217.9122698
632,1018574.874920028
686,0.6666666666666666
687,0.6666666666666666
688,1.3333333333333333
2,21, 1,21, 0,11,10.00,20.00,Monday
250,22.459401223439418
251,4325677.377992588
336,0.0
385,22.260000000000005
386,26.57
387,0.6258914807303703
388,0.0
425,0.0
450,0.0
451,0.0
452,6.3781328883360535
453,0.0
490,0.0
515,0.0
516,0.0
542,0.0
592,2264670.3180793677
632,2101502.6945860344
686,0.44583719944236055
687,0.4
688,1.0
2,21, 1,21, 0,11,20.00,30.00,Monday
250,22.538995572118452
251,4419565.841923212
336,0.0
385,22.46
386,26.57
387,0.7933748402377071
388,0.0
425,0.0
450,0.0
451,0.0
452,7.218688464104191
453,0.0
490,0.0
515,0.0
516,0.0
542,0.0
592,1907204.8672593168
632,2636633.2448698906
686,0.4071626546873903
687,0.25
688,1.0
2,21, 1,21, 0,11,30.00,40.00,Monday
250,22.571424679385405
251,5278862.757516109
336,0.0
385,22.46
386,26.57
387,1.0552607307468571
388,0.0
425,0.0
450,0.0
451,0.0
452,8.323390888519011
453,0.0
490,0.0
515,0.0
516,0.0
542,0.0
592,3137383.359382971
632,2090210.84248077
686,0.6329291642221985
687,0.5
688,1.25
2,21, 1,21, 0,11,40.00,50.00,Monday
250,22.575944561800384
251,5202684.486103422
336,0.0
385,22.46
386,26.57
387,1.2964057129369464
388,0.0
425,0.0
450,0.0
451,0.0
452,9.216462011827318
453,0.0
490,0.0
515,0.0
516,0.0
542,0.0
592,3128329.1032863474
632,2019417.1583742518
686,0.6276550020659112
687,0.5
688,1.25
2,21, 1,21, 0,11,50.00,60.00,Monday
250,22.578882989886544
251,5150260.337629628
336,0.0
385,22.46
386,26.57
387,1.5242036110243473
388,0.0
425,0.0
450,0.0
451,0.0
452,9.978156576982688
453,0.0
490,0.0
515,0.0
516,0.0
542,0.0
592,3122222.474341213
632,1973029.0295602141
686,0.6231834225991192
687,0.5
688,1.25
2,21, 1,21, 0,12, 0.00,10.00,Monday
250,22.580064452001835
251,5124140.372631037
336,0.0
385,22.46
386,26.57
387,1.7430284777175709
388,0.0
425,0.0
450,0.0
451,0.0
452,10.619541128358403
453,0.0
490,0.0
515,0.0
516,0.0
542,0.0
592,3118979.628327339
632,1949988.6339851993
686,0.6211996980265442
687,0.5
688,1.25
2,21, 1,21, 0,12,10.00,20.00,Monday
250,22.58141614396402
251,5099906.467165185
336,0.0
385,22.46
386,26.57
387,1.9501142263269602
388,0.0
425,0.0
450,0.0
451,0.0
452,11.123117214663187
453,0.0
490,0.0
515,0.0
516,0.0
542,0.0
592,3115061.2128396607
632,1929758.2324684055
686,0.619044352966469
687,0.5
688,1.25
2,21, 1,21, 0,12,20.00,30.00,Monday
250,22.582823926381586
251,5073979.377293339
336,0.0
385,22.46
386,26.57
387,2.1418846940770937
388,0.0
425,0.0
450,0.0
451,0.0
452,11.497124468005644
453,0.0
490,0.0
515,0.0
516,0.0
542,0.0
592,3110676.172578678
632,1908294.4767947157
686,0.6167731415784996
687,0.5
688,1.25
2,21, 1,21, 0,12,30.00,40.00,Monday
250,22.583679835293655
251,5054699.357888053
336,0.0
385,22.46
386,26.57
387,2.314006608876577
388,0.0
425,0.0
450,0.0
451,0.0
452,11.743618980711819
453,0.0
490,0.0
515,0.0
516,0.0
542,0.0
592,3108360.6858080463
632,1891330.6789111067
686,0.6150470164019055
687,0.5
688,1.25
2,21, 1,21, 0,12,40.00,50.00,Monday
250,22.58426088024656
251,5041878.488198691
336,0.0
385,22.46
386,26.57
387,2.4630337417615698
388,0.0
425,0.0
450,0.0
451,0.0
452,11.839561620801078
453,0.0
490,0.0
515,0.0
516,0.0
542,0.0
592,3108031.5448986352
632,1878855.3193413443
686,0.6138420694940804
687,0.5
688,1.25
2,21, 1,21, 0,12,50.00,60.00,Monday
250,22.584742844023616
251,5031298.762935718
336,0.0
385,22.46
386,26.57
387,2.588133968652457
388,0.0
425,0.0
450,0.0
451,0.0
452,11.793588541811719
453,0.0
490,0.0
515,0.0
516,0.0
542,0.0
592,3108298.7742312117
632,1868043.239821132
686,0.6127951329320359
687,0.5
688,1.25
2,21, 1,21, 0,13, 0.00,10.00,Monday
250,22.584996807168256
251,5022559.6326646935
336,0.0
385,22.46
386,26.57
387,2.692586694815348
388,0.0
425,0.0
450,0.0
451,0.0
452,11.674860157801996
453,0.0
490,0.0
515,0.0
516,0.0
542,0.0
592,3103430.1463050335
632,1864195.1073082187
686,0.6120971902772486
687,0.5
688,1.25
2,21, 1,21, 0,13,10.00,20.00,Monday
250,22.58830379043563
251,4975571.634642866
336,0.0
385,22.46
386,26.57
387,2.782021963572589
388,0.0
425,0.0
450,0.0
451,0.0
452,11.56476108349201
453,0.0
490,0.0
515,0.0
516,0.0
542,0.0
592,3086270.173237063
632,1834819.565385172
686,0.6082016278736448
687,0.5
688,1.25
2,21, 1,21, 0,13,20.00,30.00,Monday
250,22.591272604271317
251,4916969.938999143
336,0.0
385,22.46
386,26.57
387,2.8615757558090236
388,0.0
425,0.0
450,0.0
451,0.0
452,11.496952892630588
453,0.0
490,0.0
515,0.0
516,0.0
542,0.0
592,3036442.7021812536
632,1829216.7533049998
686,0.6035934907961245
687,0.4796542928631237
688,1.25
2,21, 1,21, 0,13,30.00,40.00,Monday
250,22.59416547285573
251,4858653.466800393
336,0.0
385,22.46
386,26.57
387,2.9362275800925
388,0.0
425,0.0
450,0.0
451,0.0
452,11.462639027844165
453,0.0
490,0.0
515,0.0
516,0.0
542,0.0
592,2985054.0194757916
632,1825676.3563133331
686,0.5989613037813742
687,0.45826664001944895
688,1.25
2,21, 1,21, 0,13,40.00,50.00,Monday
250,22.597004458808897
251,4801607.857505849
336,0.0
385,22.46
386,26.57
387,3.0090665407332233
388,0.0
425,0.0
450,0.0
451,0.0
452,11.44509946592489
453,0.0
490,0.0
515,0.0
516,0.0
542,0.0
592,2934488.7622090927
632,1822578.462984702
686,0.5944407960117979
687,0.4371030057392131
688,1.25
2,21, 1,21, 0,13,50.00,60.00,Monday
250,22.59979837531536
251,4745346.38318526
336,0.0
385,22.46
386,26.57
387,3.0807361751644735
388,0.0
425,0.0
450,0.0
451,0.0
452,11.433424119058632
453,0.0
490,0.0
515,0.0
516,0.0
542,0.0
592,2884759.082365268
632,1819389.8931598633
686,0.5899626597829011
687,0.4163534257373581
688,1.25
2,21, 1,21, 0,14, 0.00,10.00,Monday
250,22.603732044179075
251,4674095.94283463
336,0.0
385,22.46
386,26.57
387,3.15288064128526
388,0.0
425,0.0
450,0.0
451,0.0
452,11.391062480643374
453,0.0
490,0.0
515,0.0
516,0.0
542,0.0
592,2829058.0696036452
632,1808277.2777347069
686,0.5839120754542788
687,0.3898296197827631
688,1.25
2,21, 1,21, 0,14,10.00,20.00,Monday
250,22.6049410440682
251,4636584.925843384
336,0.0
385,22.46
386,26.57
387,3.2236609684242374
388,0.0
425,0.0
450,0.0
451,0.0
452,11.274376569283712
453,0.0
490,0.0
515,0.0
516,0.0
542,0.0
592,2788170.716051903
632,1815312.5968340691
686,0.5810680440317006
687,0.365151164783358
688,1.25
2,21, 1,21, 0,14,20.00,30.00,Monday
250,22.606435156757847
251,4606292.652511253
336,0.0
385,22.46
386,26.57
387,3.288354631862501
388,0.0
425,0.0
450,0.0
451,0.0
452,11.08221285136914
453,0.0
490,0.0
515,0.0
516,0.0
542,0.0
592,2765348.6023977613
632,1809999.525058631
686,0.5784077537306608
687,0.3523602737205469
688,1.25
2,21, 1,21, 0,14,30.00,40.00,Monday
250,22.60695798937303
251,4588938.307833129
336,0.0
385,22.46
386,26.57
387,3.3394328717885307
388,0.0
425,0.0
450,0.0
451,0.0
452,10.79965809310561
453,0.0
490,0.0
515,0.0
516,0.0
542,0.0
592,2750242.201678434
632,1809379.8538966605
686,0.5768835037325912
687,0.34190869094680615
688,1.25
2,21, 1,21, 0,14,40.00,50.00,Monday
250,22.606821657424334
251,4588375.23683793
336,0.0
385,22.46
386,26.57
387,3.3707481590911064
388,0.0
425,0.0
450,0.0
451,0.0
452,10.39158953084704
453,0.0
490,0.0
515,0.0
516,0.0
542,0.0
592,2748504.8471684847
632,1811339.6857363018
686,0.5768849862186202
687,0.33656413872182256
688,1.25
2,21, 1,21, 0,14,50.00,60.00,Monday
250,22.606197639384426
251,4598964.159864371
336,0.0
385,22.46
386,26.57
387,3.3812743528960874
388,0.0
425,0.0
450,0.0
451,0.0
452,9.86222026943281
453,0.0
490,0.0
515,0.0
516,0.0
542,0.0
592,2756761.3229804835
632,1813749.610945991