Program Version,EnergyPlus, Version 24.2.0-94a887817b, YMD=2025.02.04 15:39
1,5,Environment Title[],Latitude[deg],Longitude[deg],Time Zone[],Elevation[m]
2,8,Day of Simulation[],Month[],Day of Month[],DST Indicator[1=yes 0=no],Hour[],StartMinute[],EndMinute[],DayType
3,5,Cumulative Day of Simulation[],Month[],Day of Month[],DST Indicator[1=yes 0=no],DayType  ! When Daily Report Variables Requested
4,2,Cumulative Days of Simulation[],Month[]  ! When Monthly Report Variables Requested
5,1,Cumulative Days of Simulation[] ! When Run Period Report Variables Requested
6,1,Calendar Year of Simulation[] ! When Annual Report Variables Requested
250,1,LIVING ZONE,Zone Air Temperature [C] !TimeStep,REPORTSCH
251,1,LIVING ZONE,Zone Air System Sensible Heating Energy [J] !TimeStep,REPORTSCH
336,1,LIVING ZONE,Zone Air System Sensible Cooling Energy [J] !TimeStep,REPORTSCH
385,1,LIVING ZONE,Zone Thermostat Heating Setpoint Temperature [C] !TimeStep,REPORTSCH
386,1,LIVING ZONE,Zone Thermostat Cooling Setpoint Temperature [C] !TimeStep,REPORTSCH
387,1,GARAGE ZONE,Zone Air Temperature [C] !TimeStep,REPORTSCH
388,1,GARAGE ZONE,Zone Air System Sensible Heating Energy [J] !TimeStep,REPORTSCH
425,1,GARAGE ZONE,Zone Air System Sensible Cooling Energy [J] !TimeStep,REPORTSCH
450,1,GARAGE ZONE,Zone Thermostat Heating Setpoint Temperature [C] !TimeStep,REPORTSCH
451,1,GARAGE ZONE,Zone Thermostat Cooling Setpoint Temperature [C] !TimeStep,REPORTSCH
452,1,ATTIC ZONE,Zone Air Temperature [C] !TimeStep,REPORTSCH
453,1,ATTIC ZONE,Zone Air System Sensible Heating Energy [J] !TimeStep,REPORTSCH
490,1,ATTIC ZONE,Zone Air System Sensible Cooling Energy [J] !TimeStep,REPORTSCH
515,1,ATTIC ZONE,Zone Thermostat Heating Setpoint Temperature [C] !TimeStep,REPORTSCH
516,1,ATTIC ZONE,Zone Thermostat Cooling Setpoint Temperature [C] !TimeStep,REPORTSCH
542,1,ACDXCOIL 1,Cooling Coil Total Cooling Energy [J] !TimeStep,REPORTSCH
592,1,HEAT PUMP DX HEATING COIL 1,Heating Coil Heating Energy [J] !TimeStep,REPORTSCH
632,1,SUPP HEATING COIL 1,Heating Coil Heating Energy [J] !TimeStep,REPORTSCH
686,1,TWOSPEED HEAT PUMP 1,Unitary System DX Coil Cycling Ratio [] !TimeStep,REPORTSCH
687,1,TWOSPEED HEAT PUMP 1,Unitary System DX Coil Speed Ratio [] !TimeStep,REPORTSCH
688,1,TWOSPEED HEAT PUMP 1,Unitary System DX Coil Speed Level [] !TimeStep,REPORTSCH
End of Data Dictionary
1,RUN PERIOD 1,  41.98, -87.92,  -6.00, 201.00
2,21, 1,21, 0, 1, 0.00,10.00,Monday
250,-0.449082552150668
251,37922051.75929845
336,0.0
385,17.3630103937302
386,24.236629639904898
387,-0.9393603893515522
388,0.0
425,0.0
450,0.0
451,0.0
452,-1.9660863994969442
453,0.0
490,0.0
515,0.0
516,0.0
542,0.0
592,4839743.985079642
632,32824819.88374194
686,1.0
687,1.0
688,2.0
2,21, 1,21, 0, 1,10.00,20.00,Monday
250,-0.4491283782982648
251,37923679.85765851
336,0.0
385,17.3630103937302
386,24.236629639904898
387,-0.9477420450282531
388,0.0
425,0.0
450,0.0
451,0.0
452,-1.9479774594138273
453,0.0
490,0.0
515,0.0
516,0.0
542,0.0
592,4823801.676011793
632,32840962.08426546
686,1.0
687,1.0
688,2.0
2,21, 1,21, 0, 1,20.00,30.00,Monday
250,-0.4493252467475921
251,37925448.988758415
336,0.0
385,17.3630103937302
386,24.236629639904898
387,-0.9573520670328414
388,0.0
425,0.0
450,0.0
451,0.0
452,-1.944887791309663
453,0.0
490,0.0
515,0.0
516,0.0
542,0.0
592,4807858.162905221
632,32858593.41579356
686,1.0
687,1.0
688,2.0
2,21, 1,21, 0, 1,30.00,40.00,Monday
250,-0.4494861680359207
251,37927178.37416876
336,0.0
385,17.3630103937302
386,24.236629639904898
387,-0.9683952711918016
388,0.0
425,0.0
450,0.0
451,0.0
452,-1.9577378672915307
453,0.0
490,0.0
515,0.0
516,0.0
542,0.0
592,4791913.445623512
632,32876286.86640503
686,1.0
687,1.0
688,2.0
2,21, 1,21, 0, 1,40.00,50.00,Monday
250,-0.4496545360658799
251,37928915.345737554
336,0.0
385,17.3630103937302
386,24.236629639904898
387,-0.981029217389991
388,0.0
425,0.0
450,0.0
451,0.0
452,-1.9849119524346384
453,0.0
490,0.0
515,0.0
516,0.0
542,0.0
592,4775967.524030239
632,32893965.746605437
686,1.0
687,1.0
688,2.0
2,21, 1,21, 0, 1,50.00,60.00,Monday
250,-0.44982387190230155
251,37930653.577847935
336,0.0
385,17.3630103937302
386,24.236629639904898
387,-0.9954428772968757
388,0.0
425,0.0
450,0.0
451,0.0
452,-2.0248756812937767
453,0.0
490,0.0
515,0.0
516,0.0
542,0.0
592,4760020.397988958
632,32911650.579747338
686,1.0
687,1.0
688,2.0
2,21, 1,21, 0, 2, 0.00,10.00,Monday
250,-0.4499828775608215
251,37932386.28921362
336,0.0
385,17.3630103937302
386,24.236629639904898
387,-1.0109578063147027
388,0.0
425,0.0
450,0.0
451,0.0
452,-2.07159054909691
453,0.0
490,0.0
515,0.0
516,0.0
542,0.0
592,4760020.397988958
632,32913388.84923198
686,1.0
687,1.0
688,2.0
2,21, 1,21, 0, 2,10.00,20.00,Monday
250,-0.4501655604599986
251,37932527.75551654
336,0.0
385,17.3630103937302
386,24.236629639904898
387,-1.0266355998363543
388,0.0
425,0.0
450,0.0
451,0.0
452,-2.114283119261305
453,0.0
490,0.0
515,0.0
516,0.0
542,0.0
592,4760020.397988958
632,32913517.56688576
686,1.0
687,1.0
688,2.0
2,21, 1,21, 0, 2,20.00,30.00,Monday
250,-0.4503480864322845
251,37932609.464662716
336,0.0
385,17.3630103937302
386,24.236629639904898
387,-1.041924819626238
388,0.0
425,0.0
450,0.0
451,0.0
452,-2.145727704392367
453,0.0
490,0.0
515,0.0
516,0.0
542,0.0
592,4760020.397988958
632,32913599.360569116
686,1.0
687,1.0
688,2.0
2,21, 1,21, 0, 2,30.00,40.00,Monday
250,-0.4505267087550652
251,37932709.60451536
336,0.0
385,17.3630103937302
386,24.236629639904898
387,-1.0565044672517014
388,0.0
425,0.0
450,0.0
451,0.0
452,-2.1651053221269994
453,0.0
490,0.0
515,0.0
516,0.0
542,0.0
592,4760020.397988958
632,32913701.60225529
686,1.0
687,1.0
688,2.0
2,21, 1,21, 0, 2,40.00,50.00,Monday
250,-0.4507027256459547
251,37932804.895742744
336,0.0
385,17.3630103937302
386,24.236629639904898
387,-1.0702337275387386
388,0.0
425,0.0
450,0.0
451,0.0
452,-2.1752487673175387
453,0.0
490,0.0
515,0.0
516,0.0
542,0.0
592,4760020.397988958
632,32913798.296325274
686,1.0
687,1.0
688,2.0
2,21, 1,21, 0, 2,50.00,60.00,Monday
250,-0.45087561255134323
251,37932897.89414378
336,0.0
385,17.3630103937302
386,24.236629639904898
387,-1.0830747215581196
388,0.0
425,0.0
450,0.0
451,0.0
452,-2.1793042703362624
453,0.0
490,0.0
515,0.0
516,0.0
542,0.0
592,4760020.397988956
632,32913892.980006102
686,1.0
687,1.0
688,2.0
2,21, 1,21, 0, 3, 0.00,10.00,Monday
250,-0.3700307933449448
251,37889368.58216071
336,0.0
385,17.3630103937302
386,24.236629639904898
387,-1.084645788163863
388,0.0
425,0.0
450,0.0
451,0.0
452,-2.1718510810975684
453,0.0
490,0.0
515,0.0
516,0.0
542,0.0
592,4762558.894114006
632,32911447.57328025
686,1.0
687,1.0
688,2.0
2,21, 1,21, 0, 3,10.00,20.00,Monday
250,-0.2869104250422061
251,37846133.0658869
336,0.0
385,17.3630103937302
386,24.236629639904898
387,-1.0736493607806579
388,0.0
425,0.0
450,0.0
451,0.0
452,-2.1469103546883788
453,0.0
490,0.0
515,0.0
516,0.0
542,0.0
592,4764988.4357309695
632,32867009.53672924
686,1.0
687,1.0
688,2.0
2,21, 1,21, 0, 3,20.00,30.00,Monday
250,-0.20480582508861433
251,37803507.346567675
336,0.0
385,17.3630103937302
386,24.236629639904898
387,-1.0545049629793342
388,0.0
425,0.0
450,0.0
451,0.0
452,-2.1030272966638295
453,0.0
490,0.0
515,0.0
516,0.0
542,0.0
592,4767308.250738333
632,32821518.91193062
686,1.0
687,1.0
688,2.0
2,21, 1,21, 0, 3,30.00,40.00,Monday
250,-0.12246398418001062
251,37760741.16787677
336,0.0
385,17.3630103937302
386,24.236629639904898
387,-1.0310127003621705
388,0.0
425,0.0
450,0.0
451,0.0
452,-2.0433269900259163
453,0.0
490,0.0
515,0.0
516,0.0
542,0.0
592,4769517.689516207
632,32776672.889588173
686,1.0
687,1.0
688,2.0
2,21, 1,21, 0, 3,40.00,50.00,Monday
250,-0.040053438437010876
251,37717947.869717725
336,0.0
385,17.3630103937302
386,24.236629639904898
387,-1.00448808903865
388,0.0
425,0.0
450,0.0
451,0.0
452,-1.972290961794844
453,0.0
490,0.0
515,0.0
516,0.0
542,0.0
592,4771616.115684973
632,32731820.027012825
686,1.0
687,1.0
688,2.0
2,21, 1,21, 0, 3,50.00,60.00,Monday
250,0.042395334704743194
251,37675141.2207303
336,0.0
385,17.3630103937302
386,24.236629639904898
387,-0.9747486851573351
388,0.0
425,0.0
450,0.0
451,0.0
452,-1.8935396105590403
453,0.0
490,0.0
515,0.0
516,0.0
542,0.0
592,4773602.736238396
632,32687049.221867304
686,1.0
687,1.0
688,2.0
2,21, 1,21, 0, 4, 0.00,10.00,Monday
250,0.043860282773361806
251,37675956.26140109
336,0.0
385,17.3630103937302
386,24.236629639904898
387,-0.9522186306887364
388,0.0
425,0.0
450,0.0
451,0.0
452,-1.8173575503716186
453,0.0
490,0.0
515,0.0
516,0.0
542,0.0
592,4773428.98237163
632,32644424.82079832
686,1.0
687,1.0
688,2.0
2,21, 1,21, 0, 4,10.00,20.00,Monday
250,0.04307246193640131
251,37676460.073293254
336,0.0
385,17.3630103937302
386,24.236629639904898
387,-0.9395933980965562
388,0.0
425,0.0
450,0.0
451,0.0
452,-1.7527787365269678
453,0.0
490,0.0
515,0.0
516,0.0
542,0.0
592,4773255.169447958
632,32643889.181335393
686,1.0
687,1.0
688,2.0
2,21, 1,21, 0, 4,20.00,30.00,Monday
250,0.04334872345287589
251,37676333.942522734
336,0.0
385,17.3630103937302
386,24.236629639904898
387,-0.9335220821312193
388,0.0
425,0.0
450,0.0
451,0.0
452,-1.7034127809250874
453,0.0
490,0.0
515,0.0
516,0.0
542,0.0
592,4773081.297437258
632,32644510.001811232
686,1.0
687,1.0
688,2.0
2,21, 1,21, 0, 4,30.00,40.00,Monday
250,0.04342808740546022
251,37676333.40637603
336,0.0
385,17.3630103937302
386,24.236629639904898
387,-0.9302483977921274
388,0.0
425,0.0
450,0.0
451,0.0
452,-1.6676110371141846
453,0.0
490,0.0
515,0.0
516,0.0
542,0.0
592,4772907.3663094025
632,32644577.354337737
686,1.0
687,1.0
688,2.0
2,21, 1,21, 0, 4,40.00,50.00,Monday
250,0.04347809648495481
251,37676345.42174187
336,0.0
385,17.3630103937302
386,24.236629639904898
387,-0.9279947469394182
388,0.0
425,0.0
450,0.0
451,0.0
452,-1.6417069875544748
453,0.0
490,0.0
515,0.0
516,0.0
542,0.0
592,4772733.376034233
632,32644747.55042709
686,1.0
687,1.0
688,2.0
2,21, 1,21, 0, 4,50.00,60.00,Monday
250,0.04353225327787275
251,37676354.63800694
336,0.0
385,17.3630103937302
386,24.236629639904898
387,-0.9265455951708357
388,0.0
425,0.0
450,0.0
451,0.0
452,-1.6226383587215636
453,0.0
490,0.0
515,0.0
516,0.0
542,0.0
592,4772559.326581575
632,32644933.050000336
686,1.0
687,1.0
688,2.0
2,21, 1,21, 0, 5, 0.00,10.00,Monday
250,0.04358330017093499
251,37676365.62860932
336,0.0
385,17.3630103937302
386,24.236629639904898
387,-0.9259286568240777
388,0.0
425,0.0
450,0.0
451,0.0
452,-1.6077873796142221
453,0.0
490,0.0
515,0.0
516,0.0
542,0.0
592,4759720.85868958
632,32657780.83362848
686,1.0
687,1.0
688,2.0
2,21, 1,21, 0, 5,10.00,20.00,Monday
250,0.04365421706864246
251,37677614.36561118
336,0.0
385,17.3630103937302
386,24.236629639904898
387,-0.9260002879738283
388,0.0
425,0.0
450,0.0
451,0.0
452,-1.59484374819515
453,0.0
490,0.0
515,0.0
516,0.0
542,0.0
592,4746877.262331866
632,32671883.86966352
686,1.0
687,1.0
688,2.0
2,21, 1,21, 0, 5,20.00,30.00,Monday
250,0.04372624906239687
251,37678909.50012038
336,0.0
385,17.3630103937302
386,24.236629639904898
387,-0.9265328060113349
388,0.0
425,0.0
450,0.0
451,0.0
452,-1.5824054059280503
453,0.0
490,0.0
515,0.0
516,0.0
542,0.0
592,4734028.534436011
632,32686028.334018894
686,1.0
687,1.0
688,2.0
2,21, 1,21, 0, 5,30.00,40.00,Monday
250,0.043797757492838735
251,37680189.468090355
336,0.0
385,17.3630103937302
386,24.236629639904898
387,-0.9273247937914723
388,0.0
425,0.0
450,0.0
451,0.0
452,-1.5700372053543907
453,0.0
490,0.0
515,0.0
516,0.0
542,0.0
592,4721174.671927155
632,32700161.883850817
686,1.0
687,1.0
688,2.0
2,21, 1,21, 0, 5,40.00,50.00,Monday
250,0.043869559391271455
251,37681472.481752396
336,0.0
385,17.3630103937302
386,24.236629639904898
387,-0.9282405177141066
388,0.0
425,0.0
450,0.0
451,0.0
452,-1.5578063471266945
453,0.0
490,0.0
515,0.0
516,0.0
542,0.0
592,4708315.671727969
632,32714304.05713793
686,1.0
687,1.0
688,2.0
2,21, 1,21, 0, 5,50.00,60.00,Monday
250,0.043941791650289996
251,37682756.26090733
336,0.0
385,17.3630103937302
386,24.236629639904898
387,-0.9292002732527475
388,0.0
425,0.0
450,0.0
451,0.0
452,-1.545863166797653
453,0.0
490,0.0
515,0.0
516,0.0
542,0.0
592,4695451.530758674
632,32728452.210439168
686,1.0
687,1.0
688,2.0
2,21, 1,21, 0, 6, 0.00,10.00,Monday
250,0.0440174863730062
251,37684038.628892824
336,0.0
385,17.3630103937302
386,24.236629639904898
387,-0.930289966914797
388,0.0
425,0.0
450,0.0
451,0.0
452,-1.5349009507851086
453,0.0
490,0.0
515,0.0
516,0.0
542,0.0
592,4695264.08225586
632,32729923.89346104
686,1.0
687,1.0
688,2.0
2,21, 1,21, 0, 6,10.00,20.00,Monday
250,0.04407287095193124
251,37684082.325926416
336,0.0
385,17.3630103937302
386,24.236629639904898
387,-0.9315936046231194
388,0.0
425,0.0
450,0.0
451,0.0
452,-1.5257319652377626
453,0.0
490,0.0
515,0.0
516,0.0
542,0.0
592,4695076.569900009
632,32730144.162196897
686,1.0
687,1.0
688,2.0
2,21, 1,21, 0, 6,20.00,30.00,Monday
250,0.044127319224762734
251,37684079.99025507
336,0.0
385,17.3630103937302
386,24.236629639904898
387,-0.9331068779267367
388,0.0
425,0.0
450,0.0
451,0.0
452,-1.5186885250892366
453,0.0
490,0.0
515,0.0
516,0.0
542,0.0
592,4694888.993658494
632,32730328.898415715
686,1.0
687,1.0
688,2.0
2,21, 1,21, 0, 6,30.00,40.00,Monday
250,0.044183005308175025
251,37684092.99386359
336,0.0
385,17.3630103937302
386,24.236629639904898
387,-0.9347887605635181
388,0.0
425,0.0
450,0.0
451,0.0
452,-1.513564028178132
453,0.0
490,0.0
515,0.0
516,0.0
542,0.0
592,4694701.353498662
632,32730530.209006544
686,1.0
687,1.0
688,2.0
2,21, 1,21, 0, 6,40.00,50.00,Monday
250,0.04423941145441527
251,37684102.94020248
336,0.0
385,17.3630103937302
386,24.236629639904898
387,-0.9366077008317032
388,0.0
425,0.0
450,0.0
451,0.0
452,-1.5099072732193086
453,0.0
490,0.0
515,0.0
516,0.0
542,0.0
592,4694513.649387832
632,32730728.247375254
686,1.0
687,1.0
688,2.0
2,21, 1,21, 0, 6,50.00,60.00,Monday
250,0.04429663546614294
251,37684111.98595272
336,0.0
385,17.3630103937302
386,24.236629639904898
387,-0.938546642164219
388,0.0
425,0.0
450,0.0
451,0.0
452,-1.5072972123975352
453,0.0
490,0.0
515,0.0
516,0.0
542,0.0
592,4694325.88129331
632,32730925.501824304
686,1.0
687,1.0
688,2.0
2,21, 1,21, 0, 7, 0.00,10.00,Monday
250,0.042831744082814906
251,37684941.0581592
336,0.0
385,17.3630103937302
386,24.236629639904898
387,-0.9430327290329948
388,0.0
425,0.0
450,0.0
451,0.0
452,-1.5105990146987363
453,0.0
490,0.0
515,0.0
516,0.0
542,0.0
592,4723573.583255435
632,32701686.929979958
686,1.0
687,1.0
688,2.0
2,21, 1,21, 0, 7,10.00,20.00,Monday
250,0.04286056816698136
251,37682084.14947369
336,0.0
385,17.3630103937302
386,24.236629639904898
387,-0.9522436834430601
388,0.0
425,0.0
450,0.0
451,0.0
452,-1.5292796516723235
453,0.0
490,0.0
515,0.0
516,0.0
542,0.0
592,4752837.186047653
632,32670371.060811985
686,1.0
687,1.0
688,2.0
2,21, 1,21, 0, 7,20.00,30.00,Monday
250,0.04296147114212516
251,37679079.60696562
336,0.0
385,17.3630103937302
386,24.236629639904898
387,-0.9664204303721748
388,0.0
425,0.0
450,0.0
451,0.0
452,-1.5687161075699119
453,0.0
490,0.0
515,0.0
516,0.0
542,0.0
592,4782116.702651945
632,32638125.822400037
686,1.0
687,1.0
688,2.0
2,21, 1,21, 0, 7,30.00,40.00,Monday
250,0.04304215555069491
251,37676121.234033704
336,0.0
385,17.3630103937302
386,24.236629639904898
387,-0.9846063970642936
388,0.0
425,0.0
450,0.0
451,0.0
452,-1.6265429025240132
453,0.0
490,0.0
515,0.0
516,0.0
542,0.0
592,4811412.146064443
632,32605861.112910572
686,1.0
687,1.0
688,2.0
2,21, 1,21, 0, 7,40.00,50.00,Monday
250,0.04312789032810976
251,37673152.3819042
336,0.0
385,17.3630103937302
386,24.236629639904898
387,-1.005721440456974
388,0.0
425,0.0
450,0.0
451,0.0
452,-1.6965053440546563
453,0.0
490,0.0
515,0.0
516,0.0
542,0.0
592,4840723.52929546
632,32573583.593902208
686,1.0
687,1.0
688,2.0
2,21, 1,21, 0, 7,50.00,60.00,Monday
250,0.04321589662669297
251,37670179.63764608
336,0.0
385,17.3630103937302
386,24.236629639904898
387,-1.029017960737264
388,0.0
425,0.0
450,0.0
451,0.0
452,-1.7729023452545618
453,0.0
490,0.0
515,0.0
516,0.0
542,0.0
592,4870050.865369482
632,32541284.7331488
686,1.0
687,1.0
688,2.0
2,21, 1,21, 0, 8, 0.00,10.00,Monday
250,0.24388731044129505
251,37559204.14465254
336,0.0
385,17.3630103937302
386,24.236629639904898
387,-1.0250570992651997
388,0.0
425,0.0
450,0.0
451,0.0
452,-1.8318770511536608
453,0.0
490,0.0
515,0.0
516,0.0
542,0.0
592,4889730.300311493
632,32518631.134467598
686,1.0
687,1.0
688,2.0
2,21, 1,21, 0, 8,10.00,20.00,Monday
250,0.4447310846756509
251,37453285.530174695
336,0.0
385,17.3630103937302
386,24.236629639904898
387,-0.9833353370132639
388,0.0
425,0.0
450,0.0
451,0.0
452,-1.8231338660427927
453,0.0
490,0.0
515,0.0
516,0.0
542,0.0
592,4909380.719869504
632,32393161.324235644
686,1.0
687,1.0
688,2.0
2,21, 1,21, 0, 8,20.00,30.00,Monday
250,0.6424243510841009
251,37349253.709030926
336,0.0
385,17.3630103937302
386,24.236629639904898
387,-0.9122271967411014
388,0.0
425,0.0
450,0.0
451,0.0
452,-1.7158702637058716
453,0.0
490,0.0
515,0.0
516,0.0
542,0.0
592,4929009.6156952735
632,32267811.056577574
686,1.0
687,1.0
688,2.0
2,21, 1,21, 0, 8,30.00,40.00,Monday
250,0.8409888834039787
251,37244686.10784566
336,0.0
385,17.3630103937302
386,24.236629639904898
387,-0.8217495397151594
388,0.0
425,0.0
450,0.0
451,0.0
452,-1.5205927273793267
453,0.0
490,0.0
515,0.0
516,0.0
542,0.0
592,4952863.646772657
632,32139865.37929171
686,1.0
687,1.0
688,2.0
2,21, 1,21, 0, 8,40.00,50.00,Monday
250,1.0396716977742726
251,37139660.65748296
336,0.0
385,17.3630103937302
386,24.236629639904898
387,-0.7199270106265662
388,0.0
425,0.0
450,0.0
451,0.0
452,-1.244664019114877
453,0.0
490,0.0
515,0.0
516,0.0
542,0.0
592,4977062.298687914
632,32010710.659554005
686,1.0
687,1.0
688,2.0
2,21, 1,21, 0, 8,50.00,60.00,Monday
250,1.2394941304754095
251,37034934.961983904
336,0.0
385,17.3630103937302
386,24.236629639904898
387,-0.6239197379555925
388,0.0
425,0.0
450,0.0
451,0.0
452,-0.931345370803906
453,0.0
490,0.0
515,0.0
516,0.0
542,0.0
592,5001395.306277512
632,31829637.533396613
686,1.0
687,1.0
688,2.0
2,21, 1,21, 0, 9, 0.00,10.00,Monday
250,1.50427179098737
251,36896248.5406761
336,0.0
385,17.3630103937302
386,24.236629639904898
387,-0.4853954501051765
388,0.0
425,0.0
450,0.0
451,0.0
452,-0.45167021122186135
453,0.0
490,0.0
515,0.0
516,0.0
542,0.0
592,5029363.153609448
632,31679843.497742325
686,1.0
687,1.0
688,2.0
2,21, 1,21, 0, 9,10.00,20.00,Monday
250,1.7688720400065616
251,36756734.56852132
336,0.0
385,17.3630103937302
386,24.236629639904898
387,-0.33446855009565746
388,0.0
425,0.0
450,0.0
451,0.0
452,0.07257833138259064
453,0.0
490,0.0
515,0.0
516,0.0
542,0.0
592,5057356.862312016
632,31512271.67782916
686,1.0
687,1.0
688,2.0
2,21, 1,21, 0, 9,20.00,30.00,Monday
250,2.033669850566187
251,36617106.65219378
336,0.0
385,17.3630103937302
386,24.236629639904898
387,-0.17456249536770455
388,0.0
425,0.0
450,0.0
451,0.0
452,0.6372552178516411
453,0.0
490,0.0
515,0.0
516,0.0
542,0.0
592,5085392.284952975
632,31344661.897556476
686,1.0
687,1.0
688,2.0
2,21, 1,21, 0, 9,30.00,40.00,Monday
250,2.2983605852991493
251,36477535.06687167
336,0.0
385,17.3630103937302
386,24.236629639904898
387,-0.004870092699839342
388,0.0
425,0.0
450,0.0
451,0.0
452,1.2318813941544453
453,0.0
490,0.0
515,0.0
516,0.0
542,0.0
592,5113485.892141593
632,31176968.99128124
686,1.0
687,1.0
688,2.0
2,21, 1,21, 0, 9,40.00,50.00,Monday
250,2.5635278754540773
251,36336746.58908628
336,0.0
385,17.363010393730214
386,24.23662963990492
387,0.14022554119398156
388,0.0
425,0.0
450,0.0
451,0.0
452,1.7337751136856854
453,0.0
490,0.0
515,0.0
516,0.0
542,0.0
592,5141654.529350725
632,30983934.955433406
686,1.0000000000000009
687,1.0000000000000009
688,2.0000000000000018
2,21, 1,21, 0, 9,50.00,60.00,Monday
250,2.8287716286042075
251,36196331.06426051
336,0.0
385,17.3630103937302
386,24.236629639904898
387,0.2923485858899437
388,0.0
425,0.0
450,0.0
451,0.0
452,2.274443385862222
453,0.0
490,0.0
515,0.0
516,0.0
542,0.0
592,5169915.672059796
632,30840549.219074156
686,1.0
687,1.0
688,2.0
2,21, 1,21, 0,10, 0.00,10.00,Monday
250,3.288606473756785
251,35952370.2636064
336,0.0
385,17.3630103937302
386,24.236629639904898
387,0.48278005532858326
388,0.0
425,0.0
450,0.0
451,0.0
452,2.8339487816873774
453,0.0
490,0.0
515,0.0
516,0.0
542,0.0
592,5241404.10703412
632,30534936.98264329
686,1.0
687,1.0
688,2.0
2,21, 1,21, 0,10,10.00,20.00,Monday
250,3.749976561286527
251,35708178.63177174
336,0.0
385,17.3630103937302
386,24.236629639904898
387,0.7738289681548631
388,0.0
425,0.0
450,0.0
451,0.0
452,3.588865336798093
453,0.0
490,0.0
515,0.0
516,0.0
542,0.0
592,5315291.857316207
632,30216176.355319127
686,1.0
687,1.0
688,2.0
2,21, 1,21, 0,10,20.00,30.00,Monday
250,4.211964404318254
251,35462401.36797464
336,0.0
385,17.363010393730193
386,24.236629639904887
387,1.0542487822548914
388,0.0
425,0.0
450,0.0
451,0.0
452,4.278051671381831
453,0.0
490,0.0
515,0.0
516,0.0
542,0.0
592,5391793.298050372
632,29894051.746587113
686,0.9999999999999996
687,0.9999999999999996
688,1.9999999999999991
2,21, 1,21, 0,10,30.00,40.00,Monday
250,4.674275570837049
251,35216317.24914621
336,0.0
385,17.363010393730207
386,24.23662963990491
387,1.3360410393481286
388,0.0
425,0.0
450,0.0
451,0.0
452,4.979602295297496
453,0.0
490,0.0
515,0.0
516,0.0
542,0.0
592,5471132.199313744
632,29568730.93341008
686,1.0000000000000004
687,1.0000000000000004
688,2.000000000000001
2,21, 1,21, 0,10,40.00,50.00,Monday
250,5.137040697309397
251,34969848.472062476
336,0.0
385,17.363010393730214
386,24.23662963990492
387,1.6262003222305998
388,0.0
425,0.0
450,0.0
451,0.0
452,5.743617316186967
453,0.0
490,0.0
515,0.0
516,0.0
542,0.0
592,5553542.3757593315
632,29239980.190734103
686,1.0000000000000009
687,1.0000000000000009
688,2.0000000000000018
2,21, 1,21, 0,10,50.00,60.00,Monday
250,5.599835382495397
251,34723217.088597
336,0.0
385,17.363010393730214
386,24.23662963990492
387,1.9264432878139965
388,0.0
425,0.0
450,0.0
451,0.0
452,6.572753978315033
453,0.0
490,0.0
515,0.0
516,0.0
542,0.0
592,5639267.778995938
632,28907677.36518613
686,1.0000000000000009
687,1.0000000000000009
688,2.0000000000000018
2,21, 1,21, 0,11, 0.00,10.00,Monday
250,5.883422945835293
251,34572310.74998636
336,0.0
385,17.3630103937302
386,24.236629639904898
387,2.2129691931942084
388,0.0
425,0.0
450,0.0
451,0.0
452,7.428002741957048
453,0.0
490,0.0
515,0.0
516,0.0
542,0.0
592,5689519.861596227
632,28674470.927939713
686,1.0
687,1.0
688,2.0
2,21, 1,21, 0,11,10.00,20.00,Monday
250,6.165771004503119
251,34422004.133782074
336,0.0
385,17.3630103937302
386,24.236629639904898
387,2.4827480690500723
388,0.0
425,0.0
450,0.0
451,0.0
452,8.27856628318809
453,0.0
490,0.0
515,0.0
516,0.0
542,0.0
592,5740969.350869595
632,28472495.6673859
686,1.0
687,1.0
688,2.0
2,21, 1,21, 0,11,20.00,30.00,Monday
250,6.448149384687381
251,34271633.61238248
336,0.0
385,17.363010393730193
386,24.236629639904887
387,2.754911396804678
388,0.0
425,0.0
450,0.0
451,0.0
452,9.125218873181057
453,0.0
490,0.0
515,0.0
516,0.0
542,0.0
592,5793671.095282218
632,28269444.905712187
686,0.9999999999999996
687,0.9999999999999996
688,1.9999999999999991
2,21, 1,21, 0,11,30.00,40.00,Monday
250,6.730039727597838
251,34121473.173865065
336,0.0
385,17.363010393730207
386,24.23662963990491
387,3.032246515204581
388,0.0
425,0.0
450,0.0
451,0.0
452,9.947255540698634
453,0.0
490,0.0
515,0.0
516,0.0
542,0.0
592,5847681.427966583
632,28065203.500500623
686,1.0000000000000004
687,1.0000000000000004
688,2.000000000000001
2,21, 1,21, 0,11,40.00,50.00,Monday
250,7.0117107626214406
251,33971377.29959379
336,0.0
385,17.363010393730214
386,24.23662963990492
387,3.311351980185929
388,0.0
425,0.0
450,0.0
451,0.0
452,10.692762137874055
453,0.0
490,0.0
515,0.0
516,0.0
542,0.0
592,5903058.082199926
632,27859709.21573451
686,1.0000000000000009
687,1.0000000000000009
688,2.0000000000000018
2,21, 1,21, 0,11,50.00,60.00,Monday
250,7.293084877961032
251,33821386.39582835
336,0.0
385,17.363010393730214
386,24.23662963990492
387,3.588375198144556
388,0.0
425,0.0
450,0.0
451,0.0
452,11.328423527346432
453,0.0
490,0.0
515,0.0
516,0.0
542,0.0
592,5959860.237244541
632,27652880.890044115
686,1.0000000000000009
687,1.0000000000000009
688,2.0000000000000018
2,21, 1,21, 0,12, 0.00,10.00,Monday
250,7.559658751991622
251,33679285.13604231
336,0.0
385,17.3630103937302
386,24.236629639904898
387,3.828359733716439
388,0.0
425,0.0
450,0.0
451,0.0
452,11.827601712917794
453,0.0
490,0.0
515,0.0
516,0.0
542,0.0
592,5991096.197635709
632,27502736.531616665
686,1.0
687,1.0
688,2.0
2,21, 1,21, 0,12,10.00,20.00,Monday
250,7.823430088765151
251,33542163.56571729
336,0.0
385,17.3630103937302
386,24.236629639904898
387,4.120742693165134
388,0.0
425,0.0
450,0.0
451,0.0
452,12.391596497051822
453,0.0
490,0.0
515,0.0
516,0.0
542,0.0
592,7572016.881221028
632,25782720.38028697
686,1.0
687,1.0
688,2.0
2,21, 1,21, 0,12,20.00,30.00,Monday
250,8.088654147250864
251,33402563.216759272
336,0.0
385,17.3630103937302
386,24.236629639904898
387,4.389858309479619
388,0.0
425,0.0
450,0.0
451,0.0
452,12.907073429160015
453,0.0
490,0.0
515,0.0
516,0.0
542,0.0
592,7609409.155487606
632,25606091.14349015
686,1.0
687,1.0
688,2.0
2,21, 1,21, 0,12,30.00,40.00,Monday
250,8.353658094282725
251,33263083.92279446
336,0.0
385,17.3630103937302
386,24.236629639904898
387,4.648666559682522
388,0.0
425,0.0
450,0.0
451,0.0
452,13.398529925407772
453,0.0
490,0.0
515,0.0
516,0.0
542,0.0
592,7646583.592010484
632,25429378.087957986
686,1.0
687,1.0
688,2.0
2,21, 1,21, 0,12,40.00,50.00,Monday
250,8.61859496784388
251,33123640.40152587
336,0.0
385,17.3630103937302
386,24.236629639904898
387,4.90308889631035
388,0.0
425,0.0
450,0.0
451,0.0
452,13.840320177448287
453,0.0
490,0.0
515,0.0
516,0.0
542,0.0
592,7683540.190789656
632,25252959.809423607
686,1.0
687,1.0
688,2.0
2,21, 1,21, 0,12,50.00,60.00,Monday
250,8.88350936183832
251,32984208.210619345
336,0.0
385,17.3630103937302
386,24.236629639904898
387,5.1520325111961185
388,0.0
425,0.0
450,0.0
451,0.0
452,14.208153603278442
453,0.0
490,0.0
515,0.0
516,0.0
542,0.0
592,7720278.951825121
632,25076783.288565073
686,1.0
687,1.0
688,2.0
2,21, 1,21, 0,13, 0.00,10.00,Monday
250,9.066047283701469
251,32885872.169381768
336,0.0
385,17.3630103937302
386,24.236629639904898
387,5.3844145311303935
388,0.0
425,0.0
450,0.0
451,0.0
452,14.499428770131555
453,0.0
490,0.0
515,0.0
516,0.0
542,0.0
592,7745410.487127085
632,24976041.318259716
686,1.0
687,1.0
688,2.0
2,21, 1,21, 0,13,10.00,20.00,Monday
250,9.247759526557493
251,32791766.32045124
336,0.0
385,17.3630103937302
386,24.236629639904898
387,5.60319188870365
388,0.0
425,0.0
450,0.0
451,0.0
452,14.728666204569961
453,0.0
490,0.0
515,0.0
516,0.0
542,0.0
592,7770439.060057996
632,24860517.241805445
686,1.0
687,1.0
688,2.0
2,21, 1,21, 0,13,20.00,30.00,Monday
250,9.43057646891031
251,32697247.345367372
336,0.0
385,17.3630103937302
386,24.236629639904898
387,5.80808231351691
388,0.0
425,0.0
450,0.0
451,0.0
452,14.911822642006715
453,0.0
490,0.0
515,0.0
516,0.0
542,0.0
592,7795364.670617863
632,24741681.48350493
686,1.0
687,1.0
688,2.0
2,21, 1,21, 0,13,30.00,40.00,Monday
250,9.61311239417012
251,32602907.567711223
336,0.0
385,17.3630103937302
386,24.236629639904898
387,6.003105436068458
388,0.0
425,0.0
450,0.0
451,0.0
452,15.060702104883037
453,0.0
490,0.0
515,0.0
516,0.0
542,0.0
592,7820187.318806681
632,24622380.047842603
686,1.0
687,1.0
688,2.0
2,21, 1,21, 0,13,40.00,50.00,Monday
250,9.79554551970204
251,32508656.884648375
336,0.0
385,17.3630103937302
386,24.236629639904898
387,6.192010530819349
388,0.0
425,0.0
450,0.0
451,0.0
452,15.179997510834554
453,0.0
490,0.0
515,0.0
516,0.0
542,0.0
592,7844907.004624449
632,24503367.040783744
686,1.0
687,1.0
688,2.0
2,21, 1,21, 0,13,50.00,60.00,Monday
250,9.9779808774313
251,32414438.076399803
336,0.0
385,17.3630103937302
386,24.236629639904898
387,6.376098038626722
388,0.0
425,0.0
450,0.0
451,0.0
452,15.273355393591606
453,0.0
490,0.0
515,0.0
516,0.0
542,0.0
592,7869523.72807117
632,24384545.756751165
686,1.0
687,1.0
688,2.0
2,21, 1,21, 0,14, 0.00,10.00,Monday
250,10.177783885790511
251,32310871.78801144
336,0.0
385,17.3630103937302
386,24.236629639904898
387,6.55820521492136
388,0.0
425,0.0
450,0.0
451,0.0
452,15.329388945543567
453,0.0
490,0.0
515,0.0
516,0.0
542,0.0
592,7896260.907308882
632,24263636.03906646
686,1.0
687,1.0
688,2.0
2,21, 1,21, 0,14,10.00,20.00,Monday
250,10.37678242211198
251,32207353.932718314
336,0.0
385,17.3630103937302
386,24.236629639904898
387,6.738463606436836
388,0.0
425,0.0
450,0.0
451,0.0
452,15.329790748896258
453,0.0
490,0.0
515,0.0
516,0.0
542,0.0
592,7922875.552815756
632,24133082.261912547
686,1.0
687,1.0
688,2.0
2,21, 1,21, 0,14,20.00,30.00,Monday
250,10.575508060267632
251,32103986.265716728
336,0.0
385,17.3630103937302
386,24.236629639904898
387,6.914717384606009
388,0.0
425,0.0
450,0.0
451,0.0
452,15.274103705064954
453,0.0
490,0.0
515,0.0
516,0.0
542,0.0
592,7949367.664591796
632,24003088.379183006
686,1.0
687,1.0
688,2.0
2,21, 1,21, 0,14,30.00,40.00,Monday
250,10.774069289511383
251,32000734.73412445
336,0.0
385,17.3630103937302
386,24.236629639904898
387,7.081017259071318
388,0.0
425,0.0
450,0.0
451,0.0
452,15.151807534142298
453,0.0
490,0.0
515,0.0
516,0.0
542,0.0
592,7975737.242637001
632,23873391.928233553
686,1.0
687,1.0
688,2.0
2,21, 1,21, 0,14,40.00,50.00,Monday
250,10.972481985002673
251,31897584.95322161
336,0.0
385,17.3630103937302
386,24.236629639904898
387,7.233669958507387
388,0.0
425,0.0
450,0.0
451,0.0
452,14.943182778162877
453,0.0
490,0.0
515,0.0
516,0.0
542,0.0
592,8001984.286951375
632,23743928.48091048
686,1.0
687,1.0
688,2.0
2,21, 1,21, 0,14,50.00,60.00,Monday
250,11.17079851953911
251,31794509.340143822
336,0.0
385,17.3630103937302
386,24.236629639904898
387,7.372964992847146
388,0.0
425,0.0
450,0.0
451,0.0
452,14.65127372086307
453,0.0
490,0.0
515,0.0
516,0.0
542,0.0
592,8028108.797534915
632,23614690.186548173
686,1.0
687,1.0
688,2.0
2,21, 1,21, 0,15, 0.00,10.00,Monday
250,11.435299646932874
251,31656421.86078094
336,0.0
385,17.3630103937302
386,24.236629639904898
387,7.493907025080473
388,0.0
425,0.0
450,0.0
451,0.0
452,14.355855185912903
453,0.0
490,0.0
515,0.0