Program Version,EnergyPlus, Version 24.2.0-94a887817b, YMD=2025.02.04 15:39
1,5,Environment Title[],Latitude[deg],Longitude[deg],Time Zone[],Elevation[m]
2,8,Day of Simulation[],Month[],Day of Month[],DST Indicator[1=yes 0=no],Hour[],StartMinute[],EndMinute[],DayType
3,5,Cumulative Day of Simulation[],Month[],Day of Month[],DST Indicator[1=yes 0=no],DayType  ! When Daily Meters Requested
4,2,Cumulative Days of Simulation[],Month[]  ! When Monthly Meters Requested
5,1,Cumulative Days of Simulation[] ! When Run Period Meters Requested
6,1,Calendar Year of Simulation[] ! When Annual Meters Requested
11,9,Electricity:Facility [J] !Monthly [Value,Min,Day,Hour,Minute,Max,Day,Hour,Minute]
23,9,Electricity:Building [J] !Monthly [Value,Min,Day,Hour,Minute,Max,Day,Hour,Minute]
59,9,InteriorLights:Electricity [J] !Monthly [Value,Min,Day,Hour,Minute,Max,Day,Hour,Minute]
521,9,Electricity:HVAC [J] !Monthly [Value,Min,Day,Hour,Minute,Max,Day,Hour,Minute]
637,9,NaturalGas:Facility [J] !Monthly [Value,Min,Day,Hour,Minute,Max,Day,Hour,Minute]
649,9,NaturalGas:HVAC [J] !Monthly [Value,Min,Day,Hour,Minute,Max,Day,Hour,Minute]
13,11,Electricity:Facility [J] !RunPeriod [Value,Min,Month,Day,Hour,Minute,Max,Month,Day,Hour,Minute]
25,11,Electricity:Building [J] !RunPeriod [Value,Min,Month,Day,Hour,Minute,Max,Month,Day,Hour,Minute]
61,11,InteriorLights:Electricity [J] !RunPeriod [Value,Min,Month,Day,Hour,Minute,Max,Month,Day,Hour,Minute]
523,11,Electricity:HVAC [J] !RunPeriod [Value,Min,Month,Day,Hour,Minute,Max,Month,Day,Hour,Minute]
639,11,NaturalGas:Facility [J] !RunPeriod [Value,Min,Month,Day,Hour,Minute,Max,Month,Day,Hour,Minute]
651,11,NaturalGas:HVAC [J] !RunPeriod [Value,Min,Month,Day,Hour,Minute,Max,Month,Day,Hour,Minute]
End of Data Dictionary
1,RUN PERIOD 1,  41.98, -87.92,  -6.00, 201.00
4,31, 1
11,9823690929.800167,408891.4285714286, 5, 6,50,2979937.608309798,16,13,60
23,984640828.5691459,30000.0, 1, 1,10,610464.3685283733, 1, 9,10
59,970200000.0,30000.0, 1, 1,10,600000.0, 1, 8,10
521,8839050101.230986,378891.4285714286, 5, 6,50,2369473.239781425,16,13,60
637,178712268980.4652,28104006.248960577,21,16,10,41250000.0, 1, 1,20
649,178712268980.4652,28104006.248960577,21,16,10,41250000.0, 1, 1,20
4,59, 2
11,9357093363.297903,99999999999999.0, 5, 6,50,3021399.0485729203,22,15,30
23,860717242.2340399,99999999999999.0, 1, 1,10,-99999999999999.0, 1, 9,10
59,848160000.0,99999999999999.0, 1, 1,10,-99999999999999.0, 1, 8,10
521,8496376121.063895,99999999999999.0, 5, 6,50,2410934.680044547,22,15,30
637,158025784782.77646,26420588.718757708,23,12,10,-99999999999999.0, 1, 1,20
649,158025784782.77646,26420588.718757708,23,12,10,-99999999999999.0, 1, 1,20
4,90, 3
11,10818843900.56033,30000.0,26,19,10,3022951.483244022,12,17,60
23,910665104.3457419,99999999999999.0, 1, 1,10,-99999999999999.0, 1, 9,10
59,897480000.0,99999999999999.0, 1, 1,10,-99999999999999.0, 1, 8,10
521,9908178796.21458,0.0,19,16,60,2412487.1147156483, 9,11,60
637,160320747602.83737,0.0,19,16,60,-99999999999999.0, 1, 1,20
649,160320747602.83737,0.0,19,16,60,-99999999999999.0, 1, 1,20
4,120, 4
11,9247895354.375517,99999999999999.0,26,19,10,-99999999999999.0,12,17,60
23,943332966.457444,99999999999999.0, 1, 1,10,-99999999999999.0, 1, 9,10
59,929520000.0,99999999999999.0, 1, 1,10,-99999999999999.0, 1, 8,10
521,8304562387.918075,99999999999999.0,19,16,60,-99999999999999.0, 9,11,60
637,114490638390.62708,99999999999999.0,19,16,60,-99999999999999.0, 1, 1,20
649,114490638390.62708,99999999999999.0,19,16,60,-99999999999999.0, 1, 1,20
4,151, 5
11,8032053635.78161,99999999999999.0,26,19,10,-99999999999999.0,12,17,60
23,984903595.4169621,99999999999999.0, 1, 1,10,626345.039877947,28,13,10
59,970200000.0,99999999999999.0, 1, 1,10,-99999999999999.0, 1, 8,10
521,7047150040.364638,99999999999999.0,19,16,60,-99999999999999.0, 9,11,60
637,78003055690.7575,99999999999999.0,19,16,60,-99999999999999.0, 1, 1,20
649,78003055690.7575,99999999999999.0,19,16,60,-99999999999999.0, 1, 1,20
4,181, 6
11,6063102337.419157,99999999999999.0,26,19,10,-99999999999999.0,12,17,60
23,869370217.9443518,99999999999999.0, 1, 1,10,-99999999999999.0,28,13,10
59,856800000.0,99999999999999.0, 1, 1,10,-99999999999999.0, 1, 8,10
521,5193732119.474816,99999999999999.0,19,16,60,-99999999999999.0, 9,11,60
637,21657054932.903866,99999999999999.0,19,16,60,-99999999999999.0, 1, 1,20
649,21657054932.903866,99999999999999.0,19,16,60,-99999999999999.0, 1, 1,20
4,212, 7
11,6514610113.316777,99999999999999.0,26,19,10,-99999999999999.0,12,17,60
23,984869423.108733,99999999999999.0, 1, 1,10,-99999999999999.0,28,13,10
59,970200000.0,99999999999999.0, 1, 1,10,-99999999999999.0, 1, 8,10
521,5529740690.208043,99999999999999.0,19,16,60,-99999999999999.0, 9,11,60
637,2555457242.587972,99999999999999.0,19,16,60,-99999999999999.0, 1, 1,20
649,2555457242.587972,99999999999999.0,19,16,60,-99999999999999.0, 1, 1,20
4,243, 8
11,5161825866.843486,99999999999999.0,26,19,10,-99999999999999.0,12,17,60
23,947896879.6780804,99999999999999.0, 1, 1,10,626454.9125829849,12,14,10
59,933840000.0,99999999999999.0, 1, 1,10,-99999999999999.0, 1, 8,10
521,4213928987.1654015,99999999999999.0,19,16,60,-99999999999999.0, 9,11,60
637,8408756510.838636,99999999999999.0,19,16,60,-99999999999999.0, 1, 1,20
649,8408756510.838636,99999999999999.0,19,16,60,-99999999999999.0, 1, 1,20
4,273, 9
11,5465538538.512057,99999999999999.0,26,19,10,-99999999999999.0,12,17,60
23,906345104.345742,99999999999999.0, 1, 1,10,-99999999999999.0,12,14,10
59,893160000.0,99999999999999.0, 1, 1,10,-99999999999999.0, 1, 8,10
521,4559193434.166326,99999999999999.0,19,16,60,2418964.2958492446,22,11,10
637,40303754038.86169,99999999999999.0,19,16,60,-99999999999999.0, 1, 1,20
649,40303754038.86169,99999999999999.0,19,16,60,-99999999999999.0, 1, 1,20
4,304,10
11,9896669694.853872,99999999999999.0,26,19,10,-99999999999999.0,12,17,60
23,984640828.5691459,99999999999999.0, 1, 1,10,-99999999999999.0,12,14,10
59,970200000.0,99999999999999.0, 1, 1,10,-99999999999999.0, 1, 8,10
521,8912028866.284725,99999999999999.0,19,16,60,-99999999999999.0,22,11,10
637,120889740364.57512,99999999999999.0,19,16,60,-99999999999999.0, 1, 1,20
649,120889740364.57512,99999999999999.0,19,16,60,-99999999999999.0, 1, 1,20
4,334,11
11,9746652965.366491,99999999999999.0,26,19,10,-99999999999999.0,12,17,60
23,906345104.3457419,99999999999999.0, 1, 1,10,-99999999999999.0,12,14,10
59,893160000.0,99999999999999.0, 1, 1,10,-99999999999999.0, 1, 8,10
521,8840307861.02076,99999999999999.0,19,16,60,-99999999999999.0,22,11,10
637,139952337320.22647,99999999999999.0,19,16,60,-99999999999999.0, 1, 1,20
649,139952337320.22647,99999999999999.0,19,16,60,-99999999999999.0, 1, 1,20
4,365,12
11,10436603586.841272,99999999999999.0,26,19,10,-99999999999999.0,12,17,60
23,947652966.457444,99999999999999.0, 1, 1,10,-99999999999999.0,12,14,10
59,933840000.0,99999999999999.0, 1, 1,10,-99999999999999.0, 1, 8,10
521,9488950620.383821,99999999999999.0,19,16,60,-99999999999999.0,22,11,10
637,179526740117.66666,99999999999999.0,19,16,60,-99999999999999.0, 1, 1,20
649,179526740117.66666,99999999999999.0,19,16,60,-99999999999999.0, 1, 1,20
5,365
13,100564580286.97923,30000.0, 3,26,19,10,3022951.483244022, 3,12,17,60
25,11231380261.472565,30000.0, 1, 1, 1,10,626454.9125829849, 8,12,14,10
61,11066760000.0,30000.0, 1, 1, 1,10,600000.0, 1, 1, 8,10
523,89333200025.50043,0.0, 3,19,16,60,2418964.2958492446, 9,22,11,10
639,1202846335975.118,0.0, 3,19,16,60,41250000.0, 1, 1, 1,20
651,1202846335975.118,0.0, 3,19,16,60,41250000.0, 1, 1, 1,20
1,RUN PERIOD 2,  41.98, -87.92,  -6.00, 201.00
4,1, 7
11,181505991.87516195,99999999999999.0,26,19,10,-99999999999999.0,12,17,60
23,41307862.11170241,99999999999999.0, 1, 1,10,-99999999999999.0,12,14,10
59,40680000.0,99999999999999.0, 1, 1,10,-99999999999999.0, 1, 8,10
521,140198129.76345956,99999999999999.0,19,16,60,-99999999999999.0,22,11,10
637,0.0,99999999999999.0,19,16,60,-99999999999999.0, 1, 1,20
649,0.0,99999999999999.0,19,16,60,-99999999999999.0, 1, 1,20
5,1
13,181505991.87516195,99999999999999.0, 3,26,19,10,-99999999999999.0, 3,12,17,60
25,41307862.11170241,99999999999999.0, 1, 1, 1,10,-99999999999999.0, 8,12,14,10
61,40680000.0,99999999999999.0, 1, 1, 1,10,-99999999999999.0, 1, 1, 8,10
523,140198129.76345956,99999999999999.0, 3,19,16,60,-99999999999999.0, 9,22,11,10
639,0.0,99999999999999.0, 3,19,16,60,-99999999999999.0, 1, 1, 1,20
651,0.0,99999999999999.0, 3,19,16,60,-99999999999999.0, 1, 1, 1,20
End of Data
 Number of Records Written=          90
