Program Version,EnergyPlus, Version 24.1.0-9d7789a3ac, YMD=2024.07.03 09:44
1,5,Environment Title[],Latitude[deg],Longitude[deg],Time Zone[],Elevation[m]
2,8,Day of Simulation[],Month[],Day of Month[],DST Indicator[1=yes 0=no],Hour[],StartMinute[],EndMinute[],DayType
3,5,Cumulative Day of Simulation[],Month[],Day of Month[],DST Indicator[1=yes 0=no],DayType  ! When Daily Report Variables Requested
4,2,Cumulative Days of Simulation[],Month[]  ! When Monthly Report Variables Requested
5,1,Cumulative Days of Simulation[] ! When Run Period Report Variables Requested
6,1,Calendar Year of Simulation[] ! When Annual Report Variables Requested
250,1,LIVING ZONE,Zone Air Temperature [C] !TimeStep,REPORTSCH
251,1,LIVING ZONE,Zone Air System Sensible Heating Energy [J] !TimeStep,REPORTSCH
336,1,LIVING ZONE,Zone Air System Sensible Cooling Energy [J] !TimeStep,REPORTSCH
385,1,LIVING ZONE,Zone Thermostat Heating Setpoint Temperature [C] !TimeStep,REPORTSCH
386,1,LIVING ZONE,Zone Thermostat Cooling Setpoint Temperature [C] !TimeStep,REPORTSCH
387,1,GARAGE ZONE,Zone Air Temperature [C] !TimeStep,REPORTSCH
388,1,GARAGE ZONE,Zone Air System Sensible Heating Energy [J] !TimeStep,REPORTSCH
425,1,GARAGE ZONE,Zone Air System Sensible Cooling Energy [J] !TimeStep,REPORTSCH
450,1,GARAGE ZONE,Zone Thermostat Heating Setpoint Temperature [C] !TimeStep,REPORTSCH
451,1,GARAGE ZONE,Zone Thermostat Cooling Setpoint Temperature [C] !TimeStep,REPORTSCH
452,1,ATTIC ZONE,Zone Air Temperature [C] !TimeStep,REPORTSCH
453,1,ATTIC ZONE,Zone Air System Sensible Heating Energy [J] !TimeStep,REPORTSCH
490,1,ATTIC ZONE,Zone Air System Sensible Cooling Energy [J] !TimeStep,REPORTSCH
515,1,ATTIC ZONE,Zone Thermostat Heating Setpoint Temperature [C] !TimeStep,REPORTSCH
516,1,ATTIC ZONE,Zone Thermostat Cooling Setpoint Temperature [C] !TimeStep,REPORTSCH
542,1,ACDXCOIL 1,Cooling Coil Total Cooling Energy [J] !TimeStep,REPORTSCH
592,1,HEAT PUMP DX HEATING COIL 1,Heating Coil Heating Energy [J] !TimeStep,REPORTSCH
632,1,SUPP HEATING COIL 1,Heating Coil Heating Energy [J] !TimeStep,REPORTSCH
686,1,TWOSPEED HEAT PUMP 1,Unitary System DX Coil Cycling Ratio [] !TimeStep,REPORTSCH
687,1,TWOSPEED HEAT PUMP 1,Unitary System DX Coil Speed Ratio [] !TimeStep,REPORTSCH
688,1,TWOSPEED HEAT PUMP 1,Unitary System DX Coil Speed Level [] !TimeStep
End of Data Dictionary
1,CHICAGO_IL_USA ANNUAL HEATING 99% DESIGN CONDITIONS DB,  41.98, -87.92,  -6.00, 201.00
2,1, 1,21, 0, 1, 0.00,10.00,WinterDesignDay
250,17.305912758687164
251,4285676.104767675
336,0.0
385,17.20958700423756
386,25.512349186497246
387,-17.684270845988664
388,0.0
425,0.0
450,0.0
451,0.0
452,-18.383688302184034
453,0.0
490,0.0
515,0.0
516,0.0
542,0.0
592,0.0
632,4238467.901450591
686,0.6666666666666666
687,0.6666666666666666
688,1.3333333333333333
2,1, 1,21, 0, 1,10.00,20.00,WinterDesignDay
250,16.892217181168597
251,4218465.600582366
336,0.0
385,16.676253670904227
386,25.512349186497254
387,-17.68427141229985
388,0.0
425,0.0
450,0.0
451,0.0
452,-18.38374043659489
453,0.0
490,0.0
515,0.0
516,0.0
542,0.0
592,0.0
632,4225277.587709713
686,0.6000000000000001
687,0.6000000000000001
688,1.2000000000000002
2,1, 1,21, 0, 1,20.00,30.00,WinterDesignDay
250,17.16317734739743
251,5859608.428119214
336,0.0
385,17.20958700423755
386,25.51234918649724
387,-17.684248043548116
388,0.0
425,0.0
450,0.0
451,0.0
452,-18.383711115712643
453,0.0
490,0.0
515,0.0
516,0.0
542,0.0
592,0.0
632,5771122.190628206
686,0.9999999999999996
687,0.9999999999999996
688,1.9999999999999991
2,1, 1,21, 0, 1,30.00,40.00,WinterDesignDay
250,17.30591275578172
251,4285676.127585004
336,0.0
385,17.209587004237566
386,25.51234918649726
387,-17.684274348482838
388,0.0
425,0.0
450,0.0
451,0.0
452,-18.383688680402937
453,0.0
490,0.0
515,0.0
516,0.0
542,0.0
592,0.0
632,4238467.924292425
686,0.6666666666666667
687,0.6666666666666667
688,1.3333333333333335
2,1, 1,21, 0, 1,40.00,50.00,WinterDesignDay
250,16.89221717827175
251,4218465.625822236
336,0.0
385,16.676253670904227
386,25.512349186497254
387,-17.684274875279847
388,0.0
425,0.0
450,0.0
451,0.0
452,-18.38374081041127
453,0.0
490,0.0
515,0.0
516,0.0
542,0.0
592,0.0
632,4225277.613826605
686,0.6000000000000001
687,0.6000000000000001
688,1.2000000000000002
2,1, 1,21, 0, 1,50.00,60.00,WinterDesignDay
250,17.163177347270096
251,5859608.4617300145
336,0.0
385,17.209587004237573
386,25.512349186497268
387,-17.684251464994432
388,0.0
425,0.0
450,0.0
451,0.0
452,-18.38371148500139
453,0.0
490,0.0
515,0.0
516,0.0
542,0.0
592,0.0
632,5771122.224758615
686,1.0000000000000009
687,1.0000000000000009
688,2.0000000000000018
2,1, 1,21, 0, 2, 0.00,10.00,WinterDesignDay
250,17.305912752990363
251,4285676.14950623
336,0.0
385,17.20958700423756
386,25.512349186497246
387,-17.684277713474547
388,0.0
425,0.0
450,0.0
451,0.0
452,-18.383689043766278
453,0.0
490,0.0
515,0.0
516,0.0
542,0.0
592,0.0
632,4238467.9462371925
686,0.6666666666666666
687,0.6666666666666666
688,1.3333333333333333
2,1, 1,21, 0, 2,10.00,20.00,WinterDesignDay
250,16.892217175488668
251,4218465.650070859
336,0.0
385,16.676253670904227
386,25.512349186497254
387,-17.68427820230857
388,0.0
425,0.0
450,0.0
451,0.0
452,-18.383741169545086
453,0.0
490,0.0
515,0.0
516,0.0
542,0.0
592,0.0
632,4225277.638917806
686,0.6000000000000001
687,0.6000000000000001
688,1.2000000000000002
2,1, 1,21, 0, 2,20.00,30.00,WinterDesignDay
250,17.163177347147727
251,5859608.494020861
336,0.0
385,17.20958700423755
386,25.51234918649724
387,-17.684254752120207
388,0.0
425,0.0
450,0.0
451,0.0
452,-18.383711839785462
453,0.0
490,0.0
515,0.0
516,0.0
542,0.0
592,0.0
632,5771122.257548663
686,0.9999999999999996
687,0.9999999999999996
688,1.9999999999999991
2,1, 1,21, 0, 2,30.00,40.00,WinterDesignDay
250,17.30591275030865
251,4285676.170566499
336,0.0
385,17.209587004237566
386,25.51234918649726
387,-17.68428094636223
388,0.0
425,0.0
450,0.0
451,0.0
452,-18.38368939285783
453,0.0
490,0.0
515,0.0
516,0.0
542,0.0
592,0.0
632,4238467.967320077
686,0.6666666666666667
687,0.6666666666666667
688,1.3333333333333335
2,1, 1,21, 0, 2,40.00,50.00,WinterDesignDay
250,16.892217172814888
251,4218465.673367131
336,0.0
385,16.676253670904227
386,25.512349186497254
387,-17.684281398723396
388,0.0
425,0.0
450,0.0
451,0.0
452,-18.383741514573288
453,0.0
490,0.0
515,0.0
516,0.0
542,0.0
592,0.0
632,4225277.663023565
686,0.6000000000000001
687,0.6000000000000001
688,1.2000000000000002
2,1, 1,21, 0, 2,50.00,60.00,WinterDesignDay
250,17.163177347030196
251,5859608.525043429
336,0.0
385,17.209587004237573
386,25.512349186497268
387,-17.68425791019819
388,0.0
425,0.0
450,0.0
451,0.0
452,-18.38371218063487
453,0.0
490,0.0
515,0.0
516,0.0
542,0.0
592,0.0
632,5771122.289050824
686,1.0000000000000009
687,1.0000000000000009
688,2.0000000000000018
2,1, 1,21, 0, 3, 0.00,10.00,WinterDesignDay
250,17.30591274773225
251,4285676.19079966
336,0.0
385,17.20958700423756
386,25.512349186497246
387,-17.68428405233113
388,0.0
425,0.0
450,0.0
451,0.0
452,-18.38368972823831
453,0.0
490,0.0
515,0.0
516,0.0
542,0.0
592,0.0
632,4238467.98757497
686,0.6666666666666666
687,0.6666666666666666
688,1.3333333333333333
2,1, 1,21, 0, 3,10.00,20.00,WinterDesignDay
250,16.89221717024612
251,4218465.6957484605
336,0.0
385,16.676253670904227
386,25.512349186497254
387,-17.684284469651324
388,0.0
425,0.0
450,0.0
451,0.0
452,-18.38374184605011
453,0.0
490,0.0
515,0.0
516,0.0
542,0.0
592,0.0
632,4225277.68618259
686,0.6000000000000001
687,0.6000000000000001
688,1.2000000000000002
2,1, 1,21, 0, 3,20.00,30.00,WinterDesignDay
250,17.163177346917244
251,5859608.554847686
336,0.0
385,17.20958700423755
386,25.51234918649724
387,-17.684260944294067
388,0.0
425,0.0
450,0.0
451,0.0
452,-18.383712508097055
453,0.0
490,0.0
515,0.0
516,0.0
542,0.0
592,0.0
632,5771122.319315841
686,0.9999999999999996
687,0.9999999999999996
688,1.9999999999999991
2,1, 1,21, 0, 3,30.00,40.00,WinterDesignDay
250,17.305912745257036
251,4285676.2102382295
336,0.0
385,17.209587004237566
386,25.51234918649726
387,-17.684287036363095
388,0.0
425,0.0
450,0.0
451,0.0
452,-18.383690050446493
453,0.0
490,0.0
515,0.0
516,0.0
542,0.0
592,0.0
632,4238468.007034414
686,0.6666666666666667
687,0.6666666666666667
688,1.3333333333333335
2,1, 1,21, 0, 3,40.00,50.00,WinterDesignDay
250,16.892217167778227
251,4218465.717250854
336,0.0
385,16.676253670904227
386,25.512349186497254
387,-17.684287420017665
388,0.0
425,0.0
450,0.0
451,0.0
452,-18.38374216450798
453,0.0
490,0.0
515,0.0
516,0.0
542,0.0
592,0.0
632,4225277.708432136
686,0.6000000000000001
687,0.6000000000000001
688,1.2000000000000002
2,1, 1,21, 0, 3,50.00,60.00,WinterDesignDay
250,17.16317734680877
251,5859608.5834815055
336,0.0
385,17.209587004237573
386,25.512349186497268
387,-17.684263859274452
388,0.0
425,0.0
450,0.0
451,0.0
452,-18.38371282269805
453,0.0
490,0.0
515,0.0
516,0.0
542,0.0
592,0.0
632,5771122.348392325
686,1.0000000000000009
687,1.0000000000000009
688,2.0000000000000018
2,1, 1,21, 0, 4, 0.00,10.00,WinterDesignDay
250,17.305912742879027
251,4285676.228913373
336,0.0
385,17.20958700423756
386,25.512349186497246
387,-17.684289903245524
388,0.0
425,0.0
450,0.0
451,0.0
452,-18.383690359999846
453,0.0
490,0.0
515,0.0
516,0.0
542,0.0
592,0.0
632,4238468.025729615
686,0.6666666666666666
687,0.6666666666666666
688,1.3333333333333333
2,1, 1,21, 0, 4,10.00,20.00,WinterDesignDay
250,16.892217165407267
251,4218465.737908752
336,0.0
385,16.676253670904227
386,25.512349186497254
387,-17.684290254556327
388,0.0
425,0.0
450,0.0
451,0.0
452,-18.383742470458387
453,0.0
490,0.0
515,0.0
516,0.0
542,0.0
592,0.0
632,4225277.729807843
686,0.6000000000000001
687,0.6000000000000001
688,1.2000000000000002
2,1, 1,21, 0, 4,20.00,30.00,WinterDesignDay
250,17.163177346704515
251,5859608.610990787
336,0.0
385,17.20958700423755
386,25.51234918649724
387,-17.68426665981634
388,0.0
425,0.0
450,0.0
451,0.0
452,-18.383713124943093
453,0.0
490,0.0
515,0.0
516,0.0
542,0.0
592,0.0
632,5771122.376326884
686,0.9999999999999996
687,0.9999999999999996
688,1.9999999999999991
2,1, 1,21, 0, 4,30.00,40.00,WinterDesignDay
250,17.305912740594415
251,4285676.246855123
336,0.0
385,17.209587004237566
386,25.51234918649726
387,-17.684292657577597
388,0.0
425,0.0
450,0.0
451,0.0
452,-18.38369065739562
453,0.0
490,0.0
515,0.0
516,0.0
542,0.0
592,0.0
632,4238468.04369063
686,0.6666666666666667
687,0.6666666666666667
688,1.3333333333333335
2,1, 1,21, 0, 4,40.00,50.00,WinterDesignDay
250,16.892217163129416
251,4218465.757755401
336,0.0
385,16.676253670904227
386,25.512349186497254
387,-17.68429297781439
388,0.0
425,0.0
450,0.0
451,0.0
452,-18.38374276439275
453,0.0
490,0.0
515,0.0
516,0.0
542,0.0
592,0.0
632,4225277.750344113
686,0.6000000000000001
687,0.6000000000000001
688,1.2000000000000002
2,1, 1,21, 0, 4,50.00,60.00,WinterDesignDay
250,17.163177346604396
251,5859608.637419737
336,0.0
385,17.209587004237573
386,25.512349186497268
387,-17.684269350412304
388,0.0
425,0.0
450,0.0
451,0.0
452,-18.38371341531771
453,0.0
490,0.0
515,0.0
516,0.0
542,0.0
592,0.0
632,5771122.40316441
686,1.0000000000000009
687,1.0000000000000009
688,2.0000000000000018
2,1, 1,21, 0, 5, 0.00,10.00,WinterDesignDay
250,17.30591273839951
251,4285676.264092283
336,0.0
385,17.20958700423756
386,25.512349186497246
387,-17.68429530377739
388,0.0
425,0.0
450,0.0
451,0.0
452,-18.383690943111425
453,0.0
490,0.0
515,0.0
516,0.0
542,0.0
592,0.0
632,4238468.0609463025
686,0.6666666666666666
687,0.6666666666666666
688,1.3333333333333333
2,1, 1,21, 0, 5,10.00,20.00,WinterDesignDay
250,16.892217160941012
251,4218465.776822651
336,0.0
385,16.676253670904227
386,25.512349186497254
387,-17.684295594159565
388,0.0
425,0.0
450,0.0
451,0.0
452,-18.38374304678315
453,0.0
490,0.0
515,0.0
516,0.0
542,0.0
592,0.0
632,4225277.770073902
686,0.6000000000000001
687,0.6000000000000001
688,1.2000000000000002
2,1, 1,21, 0, 5,20.00,30.00,WinterDesignDay
250,17.163177346508167
251,5859608.662810741
336,0.0
385,17.20958700423755
386,25.51234918649724
387,-17.68427193537721
388,0.0
425,0.0
450,0.0
451,0.0
452,-18.38371369428818
453,0.0
490,0.0
515,0.0
516,0.0
542,0.0
592,0.0
632,5771122.428947946
686,0.9999999999999996
687,0.9999999999999996
688,1.9999999999999991
2,1, 1,21, 0, 5,30.00,40.00,WinterDesignDay
250,17.305912736290818
251,4285676.280652482
336,0.0
385,17.209587004237566
386,25.51234918649726
387,-17.684297846089073
388,0.0
425,0.0
450,0.0
451,0.0
452,-18.383691217606135
453,0.0
490,0.0
515,0.0
516,0.0
542,0.0
592,0.0
632,4238468.077524287
686,0.6666666666666667
687,0.6666666666666667
688,1.3333333333333335
2,1, 1,21, 0, 5,40.00,50.00,WinterDesignDay
250,16.892217158838555
251,4218465.795141101
336,0.0
385,16.676253670904227
386,25.512349186497254
387,-17.684298107788987
388,0.0
425,0.0
450,0.0
451,0.0
452,-18.383743318083074
453,0.0
490,0.0
515,0.0
516,0.0
542,0.0
592,0.0
632,4225277.78902887
686,0.6000000000000001
687,0.6000000000000001
688,1.2000000000000002
2,1, 1,21, 0, 5,50.00,60.00,WinterDesignDay
250,17.163177346415758
251,5859608.687204665
336,0.0
385,17.209587004237573
386,25.512349186497268
387,-17.68427441885873
388,0.0
425,0.0
450,0.0
451,0.0
452,-18.383713962302572
453,0.0
490,0.0
515,0.0
516,0.0
542,0.0
592,0.0
632,5771122.453718987
686,1.0000000000000009
687,1.0000000000000009
688,2.0000000000000018
2,1, 1,21, 0, 6, 0.00,10.00,WinterDesignDay
250,17.305912734264922
251,4285676.296562385
336,0.0
385,17.20958700423756
386,25.512349186497246
387,-17.684300288592215
388,0.0
425,0.0
450,0.0
451,0.0
452,-18.383691481320554
453,0.0
490,0.0
515,0.0
516,0.0
542,0.0
592,0.0
632,4238468.093451276
686,0.6666666666666666
687,0.6666666666666666
688,1.3333333333333333
2,1, 1,21, 0, 6,10.00,20.00,WinterDesignDay
250,16.892217156818656
251,4218465.812740199
336,0.0
385,16.676253670904227
386,25.512349186497254
387,-17.68430052273589
388,0.0
425,0.0
450,0.0
451,0.0
452,-18.38374357872825
453,0.0
490,0.0
515,0.0
516,0.0
542,0.0
592,0.0
632,4225277.807239494
686,0.6000000000000001
687,0.6000000000000001
688,1.2000000000000002
2,1, 1,21, 0, 6,20.00,30.00,WinterDesignDay
250,17.163177346326936
251,5859608.7106406065
336,0.0
385,17.20958700423755
386,25.51234918649724
387,-17.68427680484104
388,0.0
425,0.0
450,0.0
451,0.0
452,-18.383714219791234
453,0.0
490,0.0
515,0.0
516,0.0
542,0.0
592,0.0
632,5771122.477517237
686,0.9999999999999996
687,0.9999999999999996
688,1.9999999999999991
2,1, 1,21, 0, 6,30.00,40.00,WinterDesignDay
250,17.305912732318596
251,4285676.311847474
336,0.0
385,17.209587004237566
386,25.51234918649726
387,-17.684302635204375
388,0.0
425,0.0
450,0.0
451,0.0
452,-18.383691734678216
453,0.0
490,0.0
515,0.0
516,0.0
542,0.0
592,0.0
632,4238468.1087527815
686,0.6666666666666667
687,0.6666666666666667
688,1.3333333333333335
2,1, 1,21, 0, 6,40.00,50.00,WinterDesignDay
250,16.892217154878082
251,4218465.829648157
336,0.0
385,16.676253670904227
386,25.512349186497254
387,-17.68430284287343
388,0.0
425,0.0
450,0.0
451,0.0
452,-18.383743829137213
453,0.0
490,0.0
515,0.0
516,0.0
542,0.0
592,0.0
632,4225277.824734958
686,0.6000000000000001
687,0.6000000000000001
688,1.2000000000000002
2,1, 1,21, 0, 6,50.00,60.00,WinterDesignDay
250,17.163177346241643
251,5859608.733156178
336,0.0
385,17.209587004237573
386,25.512349186497268
387,-17.68427909715094
388,0.0
425,0.0
450,0.0
451,0.0
452,-18.383714467167746
453,0.0
490,0.0
515,0.0
516,0.0
542,0.0
592,0.0
632,5771122.50038089
686,1.0000000000000009
687,1.0000000000000009
688,2.0000000000000018
2,1, 1,21, 0, 7, 0.00,10.00,WinterDesignDay
250,17.305912730448686
251,4285676.326532363
336,0.0
385,17.20958700423756
386,25.512349186497246
387,-17.68430488969008
388,0.0
425,0.0
450,0.0
451,0.0
452,-18.383691978085945
453,0.0
490,0.0
515,0.0
516,0.0
542,0.0
592,0.0
632,4238468.123453442
686,0.6666666666666666
687,0.6666666666666666
688,1.3333333333333333
2,1, 1,21, 0, 7,10.00,20.00,WinterDesignDay
250,16.89221715301372
251,4218465.845892137
336,0.0
385,16.676253670904227
386,25.512349186497254
387,-17.68430507192404
388,0.0
425,0.0
450,0.0
451,0.0
452,-18.383744069712094
453,0.0
490,0.0
515,0.0
516,0.0
542,0.0
592,0.0
632,4225277.841543376
686,0.6000000000000001
687,0.6000000000000001
688,1.2000000000000002
2,1, 1,21, 0, 7,20.00,30.00,WinterDesignDay
250,17.16317734615966
251,5859608.754787657
336,0.0
385,17.20958700423755
386,25.51234918649724
387,-17.6842812994663
388,0.0
425,0.0
450,0.0
451,0.0
452,-18.383714704829252
453,0.0
490,0.0
515,0.0
516,0.0
542,0.0
592,0.0
632,5771122.522346779
686,0.9999999999999996
687,0.9999999999999996
688,1.9999999999999991
2,1, 1,21, 0, 7,30.00,40.00,WinterDesignDay
250,17.305912728652224
251,4285676.340640525
336,0.0
385,17.209587004237566
386,25.51234918649726
387,-17.68430705566559
388,0.0
425,0.0
450,0.0
451,0.0
452,-18.383692211934626
453,0.0
490,0.0
515,0.0
516,0.0
542,0.0
592,0.0
632,4238468.137576753
686,0.6666666666666667
687,0.6666666666666667
688,1.3333333333333335
2,1, 1,21, 0, 7,40.00,50.00,WinterDesignDay
250,16.892217151222567
251,4218465.861498224
336,0.0
385,16.676253670904227
386,25.512349186497254
387,-17.684307213462887
388,0.0
425,0.0
450,0.0
451,0.0
452,-18.38374430083919
453,0.0
490,0.0
515,0.0
516,0.0
542,0.0
592,0.0
632,4225277.857691733
686,0.6000000000000001
687,0.6000000000000001
688,1.2000000000000002
2,1, 1,21, 0, 7,50.00,60.00,WinterDesignDay
250,17.163177346080936
251,5859608.775569628
336,0.0
385,17.209587004237573
386,25.512349186497268
387,-17.684283415319886
388,0.0
425,0.0
450,0.0
451,0.0
452,-18.38371493315746
453,0.0
490,0.0
515,0.0
516,0.0
542,0.0
592,0.0
632,5771122.543450028
686,1.0000000000000009
687,1.0000000000000009
688,2.0000000000000018
2,1, 1,21, 0, 8, 0.00,10.00,WinterDesignDay
250,17.305912726926294
251,4285676.354194725
336,0.0
385,17.20958700423756
386,25.512349186497246
387,-17.684309136606867
388,0.0
425,0.0
450,0.0
451,0.0
452,-18.383692436599723
453,0.0
490,0.0
515,0.0
516,0.0
542,0.0
592,0.0
632,4238468.15114551
686,0.6666666666666666
687,0.6666666666666666
688,1.3333333333333333
2,1, 1,21, 0, 8,10.00,20.00,WinterDesignDay
250,16.89221714950175
251,4218465.876491473
336,0.0
385,16.676253670904227
386,25.512349186497254
387,-17.684309270926637
388,0.0
425,0.0
450,0.0
451,0.0
452,-18.383744522889643
453,0.0
490,0.0
515,0.0
516,0.0
542,0.0
592,0.0
632,4225277.87320596
686,0.6000000000000001
687,0.6000000000000001
688,1.2000000000000002
2,1, 1,21, 0, 8,20.00,30.00,WinterDesignDay
250,17.163177346005266
251,5859608.7955354955
336,0.0
385,17.20958700423755
386,25.51234918649724
387,-17.6842854481061
388,0.0
425,0.0
450,0.0
451,0.0
452,-18.383715152518928
453,0.0
490,0.0
515,0.0
516,0.0
542,0.0
592,0.0
632,5771122.563724558
686,0.9999999999999996
687,0.9999999999999996
688,1.9999999999999991
2,1, 1,21, 0, 8,30.00,40.00,WinterDesignDay
250,17.305912725268154
251,4285676.367216626
336,0.0
385,17.209587004237566
386,25.51234918649726
387,-17.68431113585023
388,0.0
425,0.0
450,0.0
451,0.0
452,-18.38369265244202
453,0.0
490,0.0
515,0.0
516,0.0
542,0.0
592,0.0
632,4238468.164181396
686,0.6666666666666667
687,0.6666666666666667
688,1.3333333333333335
2,1, 1,21, 0, 8,40.00,50.00,WinterDesignDay
250,16.892217147848513
251,4218465.890895932
336,0.0
385,16.676253670904227
386,25.512349186497254
387,-17.684311247614385
388,0.0
425,0.0
450,0.0
451,0.0
452,-18.383744736219967
453,0.0
490,0.0
515,0.0
516,0.0
542,0.0
592,0.0
632,4225277.888110936
686,0.6000000000000001
687,0.6000000000000001
688,1.2000000000000002
2,1, 1,21, 0, 8,50.00,60.00,WinterDesignDay
250,17.163177345932603
251,5859608.8147173785
336,0.0
385,17.209587004237573
386,25.512349186497268
387,-17.684287401085832
388,0.0
425,0.0
450,0.0
451,0.0
452,-18.38371536326593
453,0.0
490,0.0
515,0.0
516,0.0
542,0.0
592,0.0
632,5771122.583202981
686,1.0000000000000009
687,1.0000000000000009
688,2.0000000000000018
2,1, 1,21, 0, 9, 0.00,10.00,WinterDesignDay
250,17.305912723675107
251,4285676.379727194
336,0.0
385,17.20958700423756
386,25.512349186497246
387,-17.684313056604744
388,0.0
425,0.0
450,0.0
451,0.0
452,-18.383692859808036
453,0.0
490,0.0
515,0.0
516,0.0
542,0.0
592,0.0
632,4238468.1767053995
686,0.6666666666666666
687,0.6666666666666666
688,1.3333333333333333
2,1, 1,21, 0, 9,10.00,20.00,WinterDesignDay
250,16.892217146260187
251,4218465.9047347875
336,0.0
385,16.676253670904227
386,25.512349186497254
387,-17.68431314669878
388,0.0
425,0.0
450,0.0
451,0.0
452,-18.383744941172697
453,0.0
490,0.0
515,0.0
516,0.0
542,0.0
592,0.0
632,4225277.902430656
686,0.6000000000000001
687,0.6000000000000001
688,1.2000000000000002
2,1, 1,21, 0, 9,20.00,30.00,WinterDesignDay
250,17.163177345862756
251,5859608.833146005
336,0.0
385,17.20958700423755
386,25.51234918649724
387,-17.684289277392462
388,0.0
425,0.0
450,0.0
451,0.0
452,-18.383715565736786
453,0.0
490,0.0
515,0.0
516,0.0
542,0.0
592,0.0
632,5771122.601916504
686,0.9999999999999996
687,0.9999999999999996
688,1.9999999999999991
2,1, 1,21, 0, 9,30.00,40.00,WinterDesignDay
250,17.305912722144637
251,4285676.391746491
336,0.0
385,17.209587004237566
386,25.51234918649726
387,-17.684314901951225
388,0.0
425,0.0
450,0.0
451,0.0
452,-18.383693059030747
453,0.0
490,0.0
515,0.0
516,0.0
542,0.0
592,0.0
632,4238468.188737603
686,0.6666666666666667
687,0.6666666666666667
688,1.3333333333333335
2,1, 1,21, 0, 9,40.00,50.00,WinterDesignDay
250,16.89221714473424
251,4218465.918030206
336,0.0
385,16.676253670904227
386,25.512349186497254
387,-17.68431497122568
388,0.0
425,0.0
450,0.0
451,0.0
452,-18.38374513807691
453,0.0
490,0.0
515,0.0
516,0.0
542,0.0
592,0.0
632,4225277.9161880575
686,0.6000000000000001
687,0.6000000000000001
688,1.2000000000000002
2,1, 1,21, 0, 9,50.00,60.00,WinterDesignDay
250,17.16317734579569
251,5859608.850850926
336,0.0
385,17.209587004237573
386,25.512349186497268
387,-17.684291080035663
388,0.0
425,0.0
450,0.0
451,0.0
452,-18.38371576025665
453,0.0
490,0.0
515,0.0
516,0.0
542,0.0
592,0.0
632,5771122.619895133
686,1.0000000000000009
687,1.0000000000000009
688,2.0000000000000018
2,1, 1,21, 0,10, 0.00,10.00,WinterDesignDay
250,17.30591272067425
251,4285676.403293798
336,0.0
385,17.20958700423756
386,25.512349186497246
387,-17.684316674848983
388,0.0
425,0.0
450,0.0
451,0.0
452,-18.38369325043
453,0.0
490,0.0
515,0.0
516,0.0
542,0.0
592,0.0
632,4238468.200297311
686,0.6666666666666666
687,0.6666666666666666
688,1.3333333333333333
2,1, 1,21, 0,10,10.00,20.00,WinterDesignDay
250,16.892217143268216
251,4218465.930803507
336,0.0
385,16.676253670904227
386,25.512349186497254
387,-17.684316724121494
388,0.0
425,0.0
450,0.0
451,0.0
452,-18.383745327248736
453,0.0
490,0.0
515,0.0
516,0.0
542,0.0
592,0.0
632,4225277.929405198
686,0.6000000000000001
687,0.6000000000000001
688,1.2000000000000002
2,1, 1,21, 0,10,20.00,30.00,WinterDesignDay
250,17.16317734573122
251,5859608.867860639
336,0.0
385,17.20958700423755
386,25.51234918649724
387,-17.684292811907216
388,0.0
425,0.0
450,0.0
451,0.0
452,-18.38371594713773
453,0.0
490,0.0
515,0.0
516,0.0
542,0.0
592,0.0
632,5771122.637167808
686,0.9999999999999996
687,0.9999999999999996
688,1.9999999999999991
2,1, 1,21, 0,10,30.00,40.00,WinterDesignDay
250,17.305912719261613
251,4285676.414387679
336,0.0
385,17.209587004237566
386,25.51234918649726
387,-17.684318378143512
388,0.0
425,0.0
450,0.0
451,0.0
452,-18.383693434313084
453,0.0
490,0.0
515,0.0
516,0.0
542,0.0
592,0.0
632,4238468.211403105
686,0.6666666666666667
687,0.6666666666666667
688,1.3333333333333335
2,1, 1,21, 0,10,40.00,50.00,WinterDesignDay
250,16.892217141859753
251,4218465.943075269
336,0.0
385,16.676253670904227
386,25.512349186497254
387,-17.68431840819914
388,0.0
425,0.0
450,0.0
451,0.0
452,-18.383745508991876
453,0.0
490,0.0
515,0.0
516,0.0
542,0.0
592,0.0
632,4225277.942103371
686,0.6000000000000001
687,0.6000000000000001
688,1.2000000000000002
2,1, 1,21, 0,10,50.00,60.00,WinterDesignDay
250,17.16317734566932
251,5859608.88420248
336,0.0
385,17.209587004237573
386,25.512349186497268
387,-17.68429447578601
388,0.0
425,0.0
450,0.0
451,0.0
452,-18.383716126680145
453,0.0
490,0.0
515,0.0
516,0.0
542,0.0
592,0.0
632,5771122.653762285
686,1.0000000000000009
687,1.0000000000000009
688,2.0000000000000018
2,1, 1,21, 0,11, 0.00,10.00,WinterDesignDay
250,17.30591271790444
251,4285676.425045941
336,0.0
385,17.20958700423756
386,25.512349186497246
387,-17.68432001456729
388,0.0
425,0.0
450,0.0
451,0.0
452,-18.383693610975204
453,0.0
490,0.0
515,0.0
516,0.0
542,0.0
592,0.0
632,4238468.2220728155
686,0.6666666666666666
687,0.6666666666666666
688,1.3333333333333333
2,1, 1,21, 0,11,10.00,20.00,WinterDesignDay
250,16.8922171405066
251,4218465.95486513
336,0.0
385,16.676253670904227
386,25.512349186497254
387,-17.684320026160464
388,0.0
425,0.0
450,0.0
451,0.0
452,-18.383745683598125
453,0.0
490,0.0
515,0.0
516,0.0
542,0.0
592,0.0
632,4225277.954302899
686,0.6000000000000001
687,0.6000000000000001
688,1.2000000000000002
2,1, 1,21, 0,11,20.00,30.00,WinterDesignDay
250,17.16317734560981
251,5859608.899902557
336,0.0
385,17.20958700423755
386,25.51234918649724
387,-17.684296074341336
388,0.0
425,0.0
450,0.0
451,0.0
452,-18.383716299172075
453,0.0
490,0.0
515,0.0
516,0.0
542,0.0
592,0.0
632,5771122.669705076
686,0.9999999999999996
687,0.9999999999999996
688,1.9999999999999991
2,1, 1,21, 0,11,30.00,40.00,WinterDesignDay
250,17.305912716600567
251,4285676.435285683
336,0.0
385,17.209587004237566
386,25.51234918649726
387,-17.684321586745117
388,0.0
425,0.0
450,0.0
451,0.0
452,-18.383693780700025
453,0.0
490,0.0
515,0.0
516,0.0
542,0.0
592,0.0
632,4238468.232323553
686,0.6666666666666667
687,0.6666666666666667
688,1.3333333333333335
2,1, 1,21, 0,11,40.00,50.00,WinterDesignDay
250,16.892217139206572
251,4218465.966192083
336,0.0
385,16.676253670904227
386,25.512349186497254
387,-17.684321580600447
388,0.0
425,0.0
450,0.0
451,0.0
452,-18.383745851347797
453,0.0
490,0.0
515,0.0
516,0.0
542,0.0
592,0.0
632,4225277.966023434
686,0.6000000000000001
687,0.6000000000000001
688,1.2000000000000002
2,1, 1,21, 0,11,50.00,60.00,WinterDesignDay
250,17.16317734555268
251,5859608.91498614
336,0.0
385,17.209587004237573
386,25.512349186497268
387,-17.68429761013719
388,0.0
425,0.0
450,0.0
451,0.0
452,-18.3837164648905
453,0.0
490,0.0
515,0.0
516,0.0
542,0.0
592,0.0
632,5771122.685021844
686,1.0000000000000009
687,1.0000000000000009
688,2.0000000000000018
2,1, 1,21, 0,12, 0.00,10.00,WinterDesignDay
250,17.30591271534788
251,4285676.445123323
336,0.0
385,17.20958700423756
386,25.512349186497246
387,-17.684323097199325
388,0.0
425,0.0
450,0.0
451,0.0
452,-18.383693943759962
453,0.0
490,0.0
515,0.0
516,0.0
542,0.0
592,0.0
632,4238468.242171759
686,0.6666666666666666
687,0.6666666666666666
688,1.3333333333333333
2,1, 1,21, 0,12,10.00,20.00,WinterDesignDay
250,16.892217137957605
251,4218465.977074187
336,0.0
385,16.676253670904227
386,25.512349186497254
387,-17.684323074013783
388,0.0
425,0.0
450,0.0
451,0.0
452,-18.383746012510187
453,0.0
490,0.0
515,0.0
516,0.0
542,0.0
592,0.0
632,4225277.977283665
686,0.6000000000000001
687,0.6000000000000001
688,1.2000000000000002
2,1, 1,21, 0,12,20.00,30.00,WinterDesignDay
250,17.163177345497754
251,5859608.929477399
336,0.0
385,17.20958700423755
386,25.51234918649724
387,-17.68429908563833
388,0.0
425,0.0
450,0.0
451,0.0
452,-18.383716624101393
453,0.0
490,0.0
515,0.0
516,0.0
542,0.0
592,0.0
632,5771122.69973713
686,0.9999999999999996
687,0.9999999999999996
688,1.9999999999999991
2,1, 1,21, 0,12,30.00,40.00,WinterDesignDay
250,17.305912714144394
251,4285676.454574704
336,0.0
385,17.209587004237566
386,25.51234918649726
387,-17.684324548353274
388,0.0
425,0.0
450,0.0
451,0.0
452,-18.383694100416832
453,0.0
490,0.0
515,0.0
516,0.0
542,0.0
592,0.0
632,4238468.25163329
686,0.6666666666666667
687,0.6666666666666667
688,1.3333333333333335
2,1, 1,21, 0,12,40.00,50.00,WinterDesignDay
250,16.892217136757672
251,4218465.987529047
336,0.0
385,16.676253670904227
386,25.512349186497254
387,-17.684324508795157
388,0.0
425,0.0
450,0.0
451,0.0
452,-18.383746167344015
453,0.0
490,0.0
515,0.0
516,0.0
542,0.0
592,0.0
632,4225277.988101804
686,0.6000000000000001
687,0.6000000000000001
688,1.2000000000000002
2,1, 1,21, 0,12,50.00,60.00,WinterDesignDay
250,17.16317734544502
251,5859608.943399722
336,0.0
385,17.209587004237573
386,25.512349186497268
387,-17.684300503210657
388,0.0
425,0.0
450,0.0
451,0.0
452,-18.38371677706041
453,0.0
490,0.0
515,0.0
516,0.0
542,0.0
592,0.0
632,5771122.713874686
686,1.0000000000000009
687,1.0000000000000009
688,2.0000000000000018
2,1, 1,21, 0,13, 0.00,10.00,WinterDesignDay
250,17.30591271298816
251,4285676.463654889
336,0.0
385,17.20958700423756
386,25.512349186497246
387,-17.684325942534453
388,0.0
425,0.0
450,0.0
451,0.0
452,-18.383694250922076
453,0.0
490,0.0
515,0.0
516,0.0
542,0.0
592,0.0
632,4238468.260723228
686,0.6666666666666666
687,0.6666666666666666
688,1.3333333333333333
2,1, 1,21, 0,13,10.00,20.00,WinterDesignDay
250,16.892217135604866
251,4218465.997573315
336,0.0
385,16.676253670904227
386,25.512349186497254
387,-17.684325887246942
388,0.0
425,0.0
450,0.0
451,0.0
452,-18.383746316097824
453,0.0
490,0.0
515,0.0
516,0.0
542,0.0
592,0.0
632,4225277.998495084
686,0.6000000000000001
687,0.6000000000000001
688,1.2000000000000002
2,1, 1,21, 0,13,20.00,30.00,WinterDesignDay
250,17.16317734539432
251,5859608.956775309
336,0.0
385,17.20958700423755
386,25.51234918649724
387,-17.684301865129033
388,0.0
425,0.0
450,0.0
451,0.0
452,-18.383716924013005
453,0.0
490,0.0
515,0.0
516,0.0
542,0.0
592,0.0
632,5771122.727457049
686,0.9999999999999996
687,0.9999999999999996
688,1.9999999999999991
2,1, 1,21, 0,13,30.00,40.00,WinterDesignDay
250,17.305912711877333
251,4285676.472378586
336,0.0
385,17.209587004237566
386,25.51234918649726
387,-17.68432728198003
388,0.0
425,0.0
450,0.0
451,0.0
452,-18.383694395517335
453,0.0
490,0.0
515,0.0
516,0.0
542,0.0
592,0.0
632,4238468.269456293
686,0.6666666666666667
687,0.6666666666666667
688,1.3333333333333335
2,1, 1,21, 0,13,40.00,50.00,WinterDesignDay
250,16.892217134497322
251,4218466.0072231935
336,0.0
385,16.676253670904227
386,25.512349186497254
387,-17.684327211580666
388,0.0
425,0.0