Program Version,EnergyPlus, Version 24.2.0-94a887817b, YMD=2025.02.04 15:39
1,5,Environment Title[],Latitude[deg],Longitude[deg],Time Zone[],Elevation[m]
2,8,Day of Simulation[],Month[],Day of Month[],DST Indicator[1=yes 0=no],Hour[],StartMinute[],EndMinute[],DayType
3,5,Cumulative Day of Simulation[],Month[],Day of Month[],DST Indicator[1=yes 0=no],DayType  ! When Daily Report Variables Requested
4,2,Cumulative Days of Simulation[],Month[]  ! When Monthly Report Variables Requested
5,1,Cumulative Days of Simulation[] ! When Run Period Report Variables Requested
6,1,Calendar Year of Simulation[] ! When Annual Report Variables Requested
250,1,LIVING ZONE,Zone Air Temperature [C] !TimeStep,REPORTSCH
251,1,LIVING ZONE,Zone Air System Sensible Heating Energy [J] !TimeStep,REPORTSCH
336,1,LIVING ZONE,Zone Air System Sensible Cooling Energy [J] !TimeStep,REPORTSCH
385,1,LIVING ZONE,Zone Thermostat Heating Setpoint Temperature [C] !TimeStep,REPORTSCH
386,1,LIVING ZONE,Zone Thermostat Cooling Setpoint Temperature [C] !TimeStep,REPORTSCH
387,1,GARAGE ZONE,Zone Air Temperature [C] !TimeStep,REPORTSCH
388,1,GARAGE ZONE,Zone Air System Sensible Heating Energy [J] !TimeStep,REPORTSCH
425,1,GARAGE ZONE,Zone Air System Sensible Cooling Energy [J] !TimeStep,REPORTSCH
450,1,GARAGE ZONE,Zone Thermostat Heating Setpoint Temperature [C] !TimeStep,REPORTSCH
451,1,GARAGE ZONE,Zone Thermostat Cooling Setpoint Temperature [C] !TimeStep,REPORTSCH
452,1,ATTIC ZONE,Zone Air Temperature [C] !TimeStep,REPORTSCH
453,1,ATTIC ZONE,Zone Air System Sensible Heating Energy [J] !TimeStep,REPORTSCH
490,1,ATTIC ZONE,Zone Air System Sensible Cooling Energy [J] !TimeStep,REPORTSCH
515,1,ATTIC ZONE,Zone Thermostat Heating Setpoint Temperature [C] !TimeStep,REPORTSCH
516,1,ATTIC ZONE,Zone Thermostat Cooling Setpoint Temperature [C] !TimeStep,REPORTSCH
542,1,ACDXCOIL 1,Cooling Coil Total Cooling Energy [J] !TimeStep,REPORTSCH
592,1,HEAT PUMP DX HEATING COIL 1,Heating Coil Heating Energy [J] !TimeStep,REPORTSCH
632,1,SUPP HEATING COIL 1,Heating Coil Heating Energy [J] !TimeStep,REPORTSCH
686,1,TWOSPEED HEAT PUMP 1,Unitary System DX Coil Cycling Ratio [] !TimeStep,REPORTSCH
687,1,TWOSPEED HEAT PUMP 1,Unitary System DX Coil Speed Ratio [] !TimeStep,REPORTSCH
688,1,TWOSPEED HEAT PUMP 1,Unitary System DX Coil Speed Level [] !TimeStep,REPORTSCH
End of Data Dictionary
1,RUN PERIOD 1,  41.98, -87.92,  -6.00, 201.00
2,21, 1,21, 0, 1, 0.00,10.00,Monday
250,0.15183673760156877
251,37598582.78568129
336,0.0
385,20.603082094616884
386,27.058175092050163
387,-0.9263173788195107
388,0.0
425,0.0
450,0.0
451,0.0
452,-1.952238396178228
453,0.0
490,0.0
515,0.0
516,0.0
542,0.0
592,4839743.985079642
632,32502592.982537173
686,1.0
687,1.0
688,2.0
2,21, 1,21, 0, 1,10.00,20.00,Monday
250,0.15187262793750866
251,37600115.05767297
336,0.0
385,20.603082094616884
386,27.058175092050163
387,-0.9347331104902848
388,0.0
425,0.0
450,0.0
451,0.0
452,-1.9341823572434602
453,0.0
490,0.0
515,0.0
516,0.0
542,0.0
592,4823801.676011793
632,32517441.27330364
686,1.0
687,1.0
688,2.0
2,21, 1,21, 0, 1,20.00,30.00,Monday
250,0.15144860917982036
251,37602004.28350966
336,0.0
385,20.603082094616884
386,27.058175092050163
387,-0.9443661194428051
388,0.0
425,0.0
450,0.0
451,0.0
452,-1.9310635397890525
453,0.0
490,0.0
515,0.0
516,0.0
542,0.0
592,4807858.16290522
632,32535026.427382916
686,1.0
687,1.0
688,2.0
2,21, 1,21, 0, 1,30.00,40.00,Monday
250,0.1511498971323632
251,37603792.19499295
336,0.0
385,20.603082094616884
386,27.058175092050163
387,-0.9554216001401782
388,0.0
425,0.0
450,0.0
451,0.0
452,-1.9438692398435695
453,0.0
490,0.0
515,0.0
516,0.0
542,0.0
592,4791913.445623511
632,32552826.50632873
686,1.0
687,1.0
688,2.0
2,21, 1,21, 0, 1,40.00,50.00,Monday
250,0.15083941124074446
251,37605590.51514852
336,0.0
385,20.603082094616884
386,27.058175092050163
387,-0.9680575236357312
388,0.0
425,0.0
450,0.0
451,0.0
452,-1.97099296384274
453,0.0
490,0.0
515,0.0
516,0.0
542,0.0
592,4775967.524030241
632,32570564.402266003
686,1.0
687,1.0
688,2.0
2,21, 1,21, 0, 1,50.00,60.00,Monday
250,0.15052153920432262
251,37607394.79360444
336,0.0
385,20.603082094616884
386,27.058175092050163
387,-0.9824630622681464
388,0.0
425,0.0
450,0.0
451,0.0
452,-2.0108866424109055
453,0.0
490,0.0
515,0.0
516,0.0
542,0.0
592,4760020.397988958
632,32588311.822757356
686,1.0
687,1.0
688,2.0
2,21, 1,21, 0, 2, 0.00,10.00,Monday
250,0.15021971585975177
251,37609190.39044076
336,0.0
385,20.603082094616884
386,27.058175092050163
387,-0.9979662023784438
388,0.0
425,0.0
450,0.0
451,0.0
452,-2.0575220683477635
453,0.0
490,0.0
515,0.0
516,0.0
542,0.0
592,4760020.397988958
632,32590116.053252794
686,1.0
687,1.0
688,2.0
2,21, 1,21, 0, 2,10.00,20.00,Monday
250,0.14987681479966777
251,37609456.04848097
336,0.0
385,20.603082094616884
386,27.058175092050163
387,-1.0136356699711828
388,0.0
425,0.0
450,0.0
451,0.0
452,-2.1001548109877115
453,0.0
490,0.0
515,0.0
516,0.0
542,0.0
592,4760020.397988959
632,32590359.59343663
686,1.0
687,1.0
688,2.0
2,21, 1,21, 0, 2,20.00,30.00,Monday
250,0.14953176569437837
251,37609613.40949008
336,0.0
385,20.603082094616884
386,27.058175092050163
387,-1.0289233582626878
388,0.0
425,0.0
450,0.0
451,0.0
452,-2.131567498325859
453,0.0
490,0.0
515,0.0
516,0.0
542,0.0
592,4760020.397988958
632,32590515.79801249
686,1.0
687,1.0
688,2.0
2,21, 1,21, 0, 2,30.00,40.00,Monday
250,0.14919504091762745
251,37609800.28377926
336,0.0
385,20.603082094616884
386,27.058175092050163
387,-1.0435086572779506
388,0.0
425,0.0
450,0.0
451,0.0
452,-2.1509441777125815
453,0.0
490,0.0
515,0.0
516,0.0
542,0.0
592,4760020.397988958
632,32590707.154346112
686,1.0
687,1.0
688,2.0
2,21, 1,21, 0, 2,40.00,50.00,Monday
250,0.14886359379161476
251,37609980.38582053
336,0.0
385,20.603082094616884
386,27.058175092050163
387,-1.0572501141606778
388,0.0
425,0.0
450,0.0
451,0.0
452,-2.1610994370722083
453,0.0
490,0.0
515,0.0
516,0.0
542,0.0
592,4760020.397988958
632,32590890.09802745
686,1.0
687,1.0
688,2.0
2,21, 1,21, 0, 2,50.00,60.00,Monday
250,0.14853821396727104
251,37610155.37636571
336,0.0
385,20.603082094616884
386,27.058175092050163
387,-1.0701091136857326
388,0.0
425,0.0
450,0.0
451,0.0
452,-2.165167655268279
453,0.0
490,0.0
515,0.0
516,0.0
542,0.0
592,4760020.397988958
632,32591068.35539369
686,1.0
687,1.0
688,2.0
2,21, 1,21, 0, 3, 0.00,10.00,Monday
250,0.22721520429518285
251,37567793.2622633
336,0.0
385,20.603082094616884
386,27.058175092050163
387,-1.071713687444224
388,0.0
425,0.0
450,0.0
451,0.0
452,-2.157749826016472
453,0.0
490,0.0
515,0.0
516,0.0
542,0.0
592,4762558.894114006
632,32588705.028403614
686,1.0
687,1.0
688,2.0
2,21, 1,21, 0, 3,10.00,20.00,Monday
250,0.3100945757926491
251,37524638.33279642
336,0.0
385,20.603082094616884
386,27.058175092050163
387,-1.0607862891991362
388,0.0
425,0.0
450,0.0
451,0.0
452,-2.132880428161046
453,0.0
490,0.0
515,0.0
516,0.0
542,0.0
592,4764988.43573097
632,32545384.99541726
686,1.0
687,1.0
688,2.0
2,21, 1,21, 0, 3,20.00,30.00,Monday
250,0.39121962654752035
251,37482537.76987566
336,0.0
385,20.603082094616884
386,27.058175092050163
387,-1.0417598794688667
388,0.0
425,0.0
450,0.0
451,0.0
452,-2.089087416348354
453,0.0
490,0.0
515,0.0
516,0.0
542,0.0
592,4767308.250738333
632,32500021.84371728
686,1.0
687,1.0
688,2.0
2,21, 1,21, 0, 3,30.00,40.00,Monday
250,0.4727052161065025
251,37440217.638074614
336,0.0
385,20.603082094616884
386,27.058175092050163
387,-1.0184354356393264
388,0.0
425,0.0
450,0.0
451,0.0
452,-2.029476025423966
453,0.0
490,0.0
515,0.0
516,0.0
542,0.0
592,4769517.689516205
632,32455688.23969904
686,1.0
687,1.0
688,2.0
2,21, 1,21, 0, 3,40.00,50.00,Monday
250,0.5543144011930604
251,37397841.228351384
336,0.0
385,20.603082094616884
386,27.058175092050163
387,-0.9921274587581411
388,0.0
425,0.0
450,0.0
451,0.0
452,-1.9585202904802073
453,0.0
490,0.0
515,0.0
516,0.0
542,0.0
592,4771616.115684973
632,32411281.804418452
686,1.0
687,1.0
688,2.0
2,21, 1,21, 0, 3,50.00,60.00,Monday
250,0.6359800686598017
251,37355442.746907756
336,0.0
385,20.603082094616884
386,27.058175092050163
387,-0.9626675830333854
388,0.0
425,0.0
450,0.0
451,0.0
452,-1.8798450924504184
453,0.0
490,0.0
515,0.0
516,0.0
542,0.0
592,4773602.736238394
632,32366928.979549833
686,1.0
687,1.0
688,2.0
2,21, 1,21, 0, 4, 0.00,10.00,Monday
250,0.6387027851278163
251,37355566.644521415
336,0.0
385,20.603082094616884
386,27.058175092050163
387,-0.9405352493761593
388,0.0
425,0.0
450,0.0
451,0.0
452,-1.8037279306309755
453,0.0
490,0.0
515,0.0
516,0.0
542,0.0
592,4773428.98237163
632,32324712.593357645
686,1.0
687,1.0
688,2.0
2,21, 1,21, 0, 4,10.00,20.00,Monday
250,0.637276004631141
251,37356450.42337413
336,0.0
385,20.603082094616884
386,27.058175092050163
387,-0.9282958904041174
388,0.0
425,0.0
450,0.0
451,0.0
452,-1.73919131963487
453,0.0
490,0.0
515,0.0
516,0.0
542,0.0
592,4773255.169447958
632,32323535.408951536
686,1.0
687,1.0
688,2.0
2,21, 1,21, 0, 4,20.00,30.00,Monday
250,0.637712106547204
251,37356226.603682384
336,0.0
385,20.603082094616884
386,27.058175092050163
387,-0.9224642853332384
388,0.0
425,0.0
450,0.0
451,0.0
452,-1.6898562827891006
453,0.0
490,0.0
515,0.0
516,0.0
542,0.0
592,4773081.297437258
632,32324488.747694477
686,1.0
687,1.0
688,2.0
2,21, 1,21, 0, 4,30.00,40.00,Monday
250,0.6378830855044412
251,37356177.91878548
336,0.0
385,20.603082094616884
386,27.058175092050163
387,-0.9193001561800858
388,0.0
425,0.0
450,0.0
451,0.0
452,-1.6540966056727002
453,0.0
490,0.0
515,0.0
516,0.0
542,0.0
592,4772907.3663094025
632,32324471.207604382
686,1.0
687,1.0
688,2.0
2,21, 1,21, 0, 4,40.00,50.00,Monday
250,0.637965358820231
251,37356173.29885338
336,0.0
385,20.603082094616884
386,27.058175092050163
387,-0.917164935097539
388,0.0
425,0.0
450,0.0
451,0.0
452,-1.6283900630171615
453,0.0
490,0.0
515,0.0
516,0.0
542,0.0
592,4772733.376034233
632,32324592.804024074
686,1.0
687,1.0
688,2.0
2,21, 1,21, 0, 4,50.00,60.00,Monday
250,0.6380604623031569
251,37356160.02684649
336,0.0
385,20.603082094616884
386,27.058175092050163
387,-0.9158266895216796
388,0.0
425,0.0
450,0.0
451,0.0
452,-1.6095187799441604
453,0.0
490,0.0
515,0.0
516,0.0
542,0.0
592,4772559.326581573
632,32324760.49143952
686,1.0
687,1.0
688,2.0
2,21, 1,21, 0, 5, 0.00,10.00,Monday
250,0.6381529169855139
251,37356148.36347159
336,0.0
385,20.603082094616884
386,27.058175092050163
387,-0.9152726472654644
388,0.0
425,0.0
450,0.0
451,0.0
452,-1.5947603011712457
453,0.0
490,0.0
515,0.0
516,0.0
542,0.0
592,4759720.85868958
632,32337585.86944672
686,1.0
687,1.0
688,2.0
2,21, 1,21, 0, 5,10.00,20.00,Monday
250,0.6382828164507299
251,37357324.54999552
336,0.0
385,20.603082094616884
386,27.058175092050163
387,-0.9153699755179497
388,0.0
425,0.0
450,0.0
451,0.0
452,-1.5818434284042144
453,0.0
490,0.0
515,0.0
516,0.0
542,0.0
592,4746877.262331866
632,32351625.821265563
686,1.0
687,1.0
688,2.0
2,21, 1,21, 0, 5,20.00,30.00,Monday
250,0.6384184762561224
251,37358583.39139929
336,0.0
385,20.603082094616884
386,27.058175092050163
387,-0.9159193386822717
388,0.0
425,0.0
450,0.0
451,0.0
452,-1.5694263178401793
453,0.0
490,0.0
515,0.0
516,0.0
542,0.0
592,4734028.534436013
632,32365736.495614965
686,1.0
687,1.0
688,2.0
2,21, 1,21, 0, 5,30.00,40.00,Monday
250,0.6385539742986945
251,37359816.398759335
336,0.0
385,20.603082094616884
386,27.058175092050163
387,-0.9167371211812488
388,0.0
425,0.0
450,0.0
451,0.0
452,-1.5570983933376155
453,0.0
490,0.0
515,0.0
516,0.0
542,0.0
592,4721174.671927155
632,32379823.280908648
686,1.0
687,1.0
688,2.0
2,21, 1,21, 0, 5,40.00,50.00,Monday
250,0.6386913268205204
251,37361051.97881912
336,0.0
385,20.603082094616884
386,27.058175092050163
387,-0.9176916175371721
388,0.0
425,0.0
450,0.0
451,0.0
452,-1.5449232831571331
453,0.0
490,0.0
515,0.0
516,0.0
542,0.0
592,4708315.671727969
632,32393918.86262996
686,1.0
687,1.0
688,2.0
2,21, 1,21, 0, 5,50.00,60.00,Monday
250,0.6388308535023688
251,37362288.34055977
336,0.0
385,20.603082094616884
386,27.058175092050163
387,-0.9187006522490712
388,0.0
425,0.0
450,0.0
451,0.0
452,-1.5330411550716996
453,0.0
490,0.0
515,0.0
516,0.0
542,0.0
592,4695451.530758674
632,32408020.53907638
686,1.0
687,1.0
688,2.0
2,21, 1,21, 0, 6, 0.00,10.00,Monday
250,0.6389783234790304
251,37363520.80245013
336,0.0
385,20.603082094616884
386,27.058175092050163
387,-0.9198460878217364
388,0.0
425,0.0
450,0.0
451,0.0
452,-1.5221328225622173
453,0.0
490,0.0
515,0.0
516,0.0
542,0.0
592,4695264.082255858
632,32409444.731017005
686,1.0
687,1.0
688,2.0
2,21, 1,21, 0, 6,10.00,20.00,Monday
250,0.6390901155616067
251,37363563.375747606
336,0.0
385,20.603082094616884
386,27.058175092050163
387,-0.9212085656594441
388,0.0
425,0.0
450,0.0
451,0.0
452,-1.5130126892807565
453,0.0
490,0.0
515,0.0
516,0.0
542,0.0
592,4695076.569900009
632,32409655.597803388
686,1.0
687,1.0
688,2.0
2,21, 1,21, 0, 6,20.00,30.00,Monday
250,0.6391994531716533
251,37363521.905286275
336,0.0
385,20.603082094616884
386,27.058175092050163
387,-0.9227818251293458
388,0.0
425,0.0
450,0.0
451,0.0
452,-1.50602145934055
453,0.0
490,0.0
515,0.0
516,0.0
542,0.0
592,4694888.993658494
632,32409800.38142771
686,1.0
687,1.0
688,2.0
2,21, 1,21, 0, 6,30.00,40.00,Monday
250,0.6393128972666334
251,37363504.70510152
336,0.0
385,20.603082094616884
386,27.058175092050163
387,-0.9245240289053178
388,0.0
425,0.0
450,0.0
451,0.0
452,-1.500950151025272
453,0.0
490,0.0
515,0.0
516,0.0
542,0.0
592,4694701.35349866
632,32409973.033570457
686,1.0
687,1.0
688,2.0
2,21, 1,21, 0, 6,40.00,50.00,Monday
250,0.639428567778262
251,37363483.2614321
336,0.0
385,20.603082094616884
386,27.058175092050163
387,-0.9264033730217239
388,0.0
425,0.0
450,0.0
451,0.0
452,-1.4973445419722262
453,0.0
490,0.0
515,0.0
516,0.0
542,0.0
592,4694513.649387832
632,32410140.49341544
686,1.0
687,1.0
688,2.0
2,21, 1,21, 0, 6,50.00,60.00,Monday
250,0.6395469923090193
251,37363458.91032787
336,0.0
385,20.603082094616884
386,27.058175092050163
387,-0.9284026339425652
388,0.0
425,0.0
450,0.0
451,0.0
452,-1.4947827647447334
453,0.0
490,0.0
515,0.0
516,0.0
542,0.0
592,4694325.881293308
632,32410305.394021228
686,1.0
687,1.0
688,2.0
2,21, 1,21, 0, 7, 0.00,10.00,Monday
250,0.636797716306526
251,37364979.501162454
336,0.0
385,20.603082094616884
386,27.058175092050163
387,-0.932954301436283
388,0.0
425,0.0
450,0.0
451,0.0
452,-1.4981225665432154
453,0.0
490,0.0
515,0.0
516,0.0
542,0.0
592,4723573.583255435
632,32381033.493099917
686,1.0
687,1.0
688,2.0
2,21, 1,21, 0, 7,10.00,20.00,Monday
250,0.636814018639784
251,37362222.20190888
336,0.0
385,20.603082094616884
386,27.058175092050163
387,-0.942228475960266
388,0.0
425,0.0
450,0.0
451,0.0
452,-1.5168186447228291
453,0.0
490,0.0
515,0.0
516,0.0
542,0.0
592,4752837.186047653
632,32350502.36848099
686,1.0
687,1.0
688,2.0
2,21, 1,21, 0, 7,20.00,30.00,Monday
250,0.637036461555714
251,37359155.75169576
336,0.0
385,20.603082094616884
386,27.058175092050163
387,-0.9564479779765546
388,0.0
425,0.0
450,0.0
451,0.0
452,-1.5562624157913538
453,0.0
490,0.0
515,0.0
516,0.0
542,0.0
592,4782116.702651945
632,32318267.429072227
686,1.0
687,1.0
688,2.0
2,21, 1,21, 0, 7,30.00,40.00,Monday
250,0.6371843160758905
251,37356188.933840126
336,0.0
385,20.603082094616884
386,27.058175092050163
387,-0.9746396589909415
388,0.0
425,0.0
450,0.0
451,0.0
452,-1.614128213634917
453,0.0
490,0.0
515,0.0
516,0.0
542,0.0
592,4811412.146064443
632,32285964.988056347
686,1.0
687,1.0
688,2.0
2,21, 1,21, 0, 7,40.00,50.00,Monday
250,0.6373414692857755
251,37353208.50127994
336,0.0
385,20.603082094616884
386,27.058175092050163
387,-0.9957170147375153
388,0.0
425,0.0
450,0.0
451,0.0
452,-1.6841593730143587
453,0.0
490,0.0
515,0.0
516,0.0
542,0.0
592,4840723.52929546
632,32253678.17362677
686,1.0
687,1.0
688,2.0
2,21, 1,21, 0, 7,50.00,60.00,Monday
250,0.637505482034066
251,37350219.50523879
336,0.0
385,20.603082094616884
386,27.058175092050163
387,-1.0189377964925792
388,0.0
425,0.0
450,0.0
451,0.0
452,-1.760636512891044
453,0.0
490,0.0
515,0.0
516,0.0
542,0.0
592,4870050.865369482
632,32221365.528654296
686,1.0
687,1.0
688,2.0
2,21, 1,21, 0, 8, 0.00,10.00,Monday
250,0.8388269895701163
251,37238918.677978665
336,0.0
385,20.603082094616884
386,27.058175092050163
387,-1.0150716088491143
388,0.0
425,0.0
450,0.0
451,0.0
452,-1.81967233185278
453,0.0
490,0.0
515,0.0
516,0.0
542,0.0
592,4889730.300311495
632,32198695.85155699
686,1.0
687,1.0
688,2.0
2,21, 1,21, 0, 8,10.00,20.00,Monday
250,1.0402346385485224
251,37132554.47885754
336,0.0
385,20.603082094616884
386,27.058175092050163
387,-0.9734170651675097
388,0.0
425,0.0
450,0.0
451,0.0
452,-1.811119804432013
453,0.0
490,0.0
515,0.0
516,0.0
542,0.0
592,4909380.719869504
632,32072733.692728374
686,1.0
687,1.0
688,2.0
2,21, 1,21, 0, 8,20.00,30.00,Monday
250,1.2358101309994551
251,37029680.4507245
336,0.0
385,20.603082094616884
386,27.058175092050163
387,-0.9020065154127089
388,0.0
425,0.0
450,0.0
451,0.0
452,-1.7041410271240856
453,0.0
490,0.0
515,0.0
516,0.0
542,0.0
592,4929009.6156952735
632,31947097.276169457
686,1.0
687,1.0
688,2.0
2,21, 1,21, 0, 8,30.00,40.00,Monday
250,1.4326676195761792
251,36926006.61591225
336,0.0
385,20.603082094616884
386,27.058175092050163
387,-0.8108824708432991
388,0.0
425,0.0
450,0.0
451,0.0
452,-1.5096186121749426
453,0.0
490,0.0
515,0.0
516,0.0
542,0.0
592,4952863.646772657
632,31820266.470319927
686,1.0
687,1.0
688,2.0
2,21, 1,21, 0, 8,40.00,50.00,Monday
250,1.630089544951082
251,36821649.33335106
336,0.0
385,20.603082094616884
386,27.058175092050163
387,-0.7084509785708615
388,0.0
425,0.0
450,0.0
451,0.0
452,-1.232899635428897
453,0.0
490,0.0
515,0.0
516,0.0
542,0.0
592,4977062.298687914
632,31692020.169901833
686,1.0
687,1.0
688,2.0
2,21, 1,21, 0, 8,50.00,60.00,Monday
250,1.8295012749240023
251,36717103.91722672
336,0.0
385,20.603082094616884
386,27.058175092050163
387,-0.6121556342987475
388,0.0
425,0.0
450,0.0
451,0.0
452,-0.9187619495671473
453,0.0
490,0.0
515,0.0
516,0.0
542,0.0
592,5001395.306277513
632,31512653.794849105
686,1.0
687,1.0
688,2.0
2,21, 1,21, 0, 9, 0.00,10.00,Monday
250,2.092536010329392
251,36579286.97134653
336,0.0
385,20.603082094616884
386,27.058175092050163
387,-0.47335825133663056
388,0.0
425,0.0
450,0.0
451,0.0
452,-0.43846068742673505
453,0.0
490,0.0
515,0.0
516,0.0
542,0.0
592,5029363.153609448
632,31363968.062338024
686,1.0
687,1.0
688,2.0
2,21, 1,21, 0, 9,10.00,20.00,Monday
250,2.3553163897009686
251,36440732.02415788
336,0.0
385,20.603082094616884
386,27.058175092050163
387,-0.3221488050147848
388,0.0
425,0.0
450,0.0
451,0.0
452,0.08590065980514854
453,0.0
490,0.0
515,0.0
516,0.0
542,0.0
592,5057356.862312016
632,31197252.88273871
686,1.0
687,1.0
688,2.0
2,21, 1,21, 0, 9,20.00,30.00,Monday
250,2.6183677352902093
251,36302017.746755295
336,0.0
385,20.603082094616884
386,27.058175092050163
387,-0.16221278612874027
388,0.0
425,0.0
450,0.0
451,0.0
452,0.6505996797078873
453,0.0
490,0.0
515,0.0
516,0.0
542,0.0
592,5085392.284952975
632,31030581.098367594
686,1.0
687,1.0
688,2.0
2,21, 1,21, 0, 9,30.00,40.00,Monday
250,2.881190078975115
251,36163426.473506406
336,0.0
385,20.603082094616884
386,27.058175092050163
387,0.007410714043937797
388,0.0
425,0.0
450,0.0
451,0.0
452,1.2452730014136315
453,0.0
490,0.0
515,0.0
516,0.0
542,0.0
592,5113485.892141593
632,30863833.896590948
686,1.0
687,1.0
688,2.0
2,21, 1,21, 0, 9,40.00,50.00,Monday
250,3.145020410441241
251,36023377.03854016
336,0.0
385,20.603082094616898
386,27.058175092050185
387,0.1523835808170073
388,0.0
425,0.0
450,0.0
451,0.0
452,1.7475362075763772
453,0.0
490,0.0
515,0.0
516,0.0
542,0.0
592,5141654.529350725
632,30670665.554808147
686,1.0000000000000009
687,1.0000000000000009
688,2.0000000000000018
2,21, 1,21, 0, 9,50.00,60.00,Monday
250,3.4085081105903923
251,35883868.79165779
336,0.0
385,20.603082094616884
386,27.058175092050163
387,0.3044656148266228
388,0.0
425,0.0
450,0.0
451,0.0
452,2.2885354528093593
453,0.0
490,0.0
515,0.0
516,0.0
542,0.0
592,5169915.672059796
632,30528867.286306567
686,1.0
687,1.0
688,2.0
2,21, 1,21, 0,10, 0.00,10.00,Monday
250,3.862287868795411
251,35643154.71830522
336,0.0
385,20.603082094616884
386,27.058175092050163
387,0.49483090515480765
388,0.0
425,0.0
450,0.0
451,0.0
452,2.8484325523253418
453,0.0
490,0.0
515,0.0
516,0.0
542,0.0
592,5241404.10703412
632,30225297.786248326
686,1.0
687,1.0
688,2.0
2,21, 1,21, 0,10,10.00,20.00,Monday
250,4.318438492977252
251,35401723.02038104
336,0.0
385,20.60308209461688
386,27.058175092050163
387,0.7859166605650756
388,0.0
425,0.0
450,0.0
451,0.0
452,3.603438354833708
453,0.0
490,0.0
515,0.0
516,0.0
542,0.0
592,5315291.857316207
632,29909672.84062621
686,1.0
687,1.0
688,2.0
2,21, 1,21, 0,10,20.00,30.00,Monday
250,4.776005177876281
251,35158302.52809247
336,0.0
385,20.603082094616873
386,27.05817509205015
387,1.066434788167515
388,0.0
425,0.0
450,0.0
451,0.0
452,4.2930688917359525
453,0.0
490,0.0
515,0.0
516,0.0
542,0.0
592,5391793.298050373
632,29590049.655309245
686,0.9999999999999996
687,0.9999999999999996
688,1.9999999999999991
2,21, 1,21, 0,10,30.00,40.00,Monday
250,5.23424494825266
251,34914388.80343218
336,0.0
385,20.60308209461689
386,27.05817509205017
387,1.348306112284177
388,0.0
425,0.0
450,0.0
451,0.0
452,4.994058563511813
453,0.0
490,0.0
515,0.0
516,0.0
542,0.0
592,5471132.199313744
632,29266961.447369345
686,1.0000000000000004
687,1.0000000000000004
688,2.000000000000001
2,21, 1,21, 0,10,40.00,50.00,Monday
250,5.693375350986003
251,34669856.27783035
336,0.0
385,20.603082094616898
386,27.058175092050185
387,1.6385286092212277
388,0.0
425,0.0
450,0.0
451,0.0
452,5.758013835160343
453,0.0
490,0.0
515,0.0
516,0.0
542,0.0
592,5553542.375759332
632,28940226.136872154
686,1.0000000000000009
687,1.0000000000000009
688,2.0000000000000018
2,21, 1,21, 0,10,50.00,60.00,Monday
250,6.1525694014442305
251,34425144.17948394
336,0.0
385,20.603082094616898
386,27.058175092050185
387,1.9388254185923484
388,0.0
425,0.0
450,0.0
451,0.0
452,6.587327765685565
453,0.0
490,0.0
515,0.0
516,0.0
542,0.0
592,5639267.778995938
632,28609848.077783898
686,1.0000000000000009
687,1.0000000000000009
688,2.0000000000000018
2,21, 1,21, 0,11, 0.00,10.00,Monday
250,6.436313928990506
251,34274153.856876835
336,0.0
385,20.603082094616884
386,27.058175092050163
387,2.2253966900170536
388,0.0
425,0.0
450,0.0
451,0.0
452,7.4426331835342285
453,0.0
490,0.0
515,0.0
516,0.0
542,0.0
592,5689519.861596226
632,28376927.271924667
686,1.0
687,1.0
688,2.0
2,21, 1,21, 0,11,10.00,20.00,Monday
250,6.717875846932344
251,34124254.038884684
336,0.0
385,20.60308209461688
386,27.058175092050163
387,2.4951994372648567
388,0.0
425,0.0
450,0.0
451,0.0
452,8.293269370946849
453,0.0
490,0.0
515,0.0
516,0.0
542,0.0
592,5740969.350869596
632,28175153.05946937
686,1.0
687,1.0
688,2.0
2,21, 1,21, 0,11,20.00,30.00,Monday
250,6.999476687484902
251,33974288.112696595
336,0.0
385,20.603082094616873
386,27.05817509205015
387,2.767370311886112
388,0.0
425,0.0
450,0.0
451,0.0
452,9.13999721221398
453,0.0
490,0.0
515,0.0
516,0.0
542,0.0
592,5793671.0952822175
632,27972508.51925786
686,0.9999999999999996
687,0.9999999999999996
688,1.9999999999999991
2,21, 1,21, 0,11,30.00,40.00,Monday
250,7.280093083494755
251,33824799.69875402
336,0.0
385,20.60308209461689
386,27.05817509205017
387,3.0447055747727187
388,0.0
425,0.0
450,0.0
451,0.0
452,9.962398304426697
453,0.0
490,0.0
515,0.0
516,0.0
542,0.0
592,5847681.427966583
632,27768848.33257471
686,1.0000000000000004
687,1.0000000000000004
688,2.000000000000001
2,21, 1,21, 0,11,40.00,50.00,Monday
250,7.560258320604025
251,33675501.31454672
336,0.0
385,20.603082094616898
386,27.058175092050185
387,3.3238044881845727
388,0.0
425,0.0
450,0.0
451,0.0
452,10.707773276697854
453,0.0
490,0.0
515,0.0
516,0.0
542,0.0
592,5903058.082199926
632,27564108.74000582
686,1.0000000000000009
687,1.0000000000000009
688,2.0000000000000018
2,21, 1,21, 0,11,50.00,60.00,Monday
250,7.839827758767205
251,33526469.56736767
336,0.0
385,20.603082094616898
386,27.058175092050185
387,3.600814872241757
388,0.0
425,0.0
450,0.0
451,0.0
452,11.343148434862375
453,0.0
490,0.0
515,0.0
516,0.0
542,0.0
592,5959860.237244541
632,27358184.490737036
686,1.0000000000000009
687,1.0000000000000009
688,2.0000000000000018
2,21, 1,21, 0,12, 0.00,10.00,Monday
250,8.106012033373332
251,33384526.833447427
336,0.0
385,20.603082094616884
386,27.058175092050163
387,3.840761358934312
388,0.0
425,0.0
450,0.0
451,0.0
452,11.842420640816183
453,0.0
490,0.0
515,0.0
516,0.0
542,0.0
592,5991096.197635707
632,27209134.015580058
686,1.0
687,1.0
688,2.0
2,21, 1,21, 0,12,10.00,20.00,Monday
250,8.36734172949413
251,33248654.88822414
336,0.0
385,20.603082094616884
386,27.058175092050163
387,4.1331246723312365
388,0.0
425,0.0
450,0.0
451,0.0
452,12.406401739283183
453,0.0
490,0.0
515,0.0
516,0.0
542,0.0
592,7572016.881221027
632,25490078.450869944
686,1.0
687,1.0
688,2.0
2,21, 1,21, 0,12,20.00,30.00,Monday
250,8.63132889334057
251,33109689.603741582
336,0.0
385,20.603082094616884
386,27.058175092050163
387,4.402231838567847
388,0.0
425,0.0
450,0.0
451,0.0
452,12.922167183465973
453,0.0
490,0.0
515,0.0
516,0.0
542,0.0
592,7609409.155487608
632,25314368.92383627
686,1.0
687,1.0
688,2.0
2,21, 1,21, 0,12,30.00,40.00,Monday
250,8.89479071090813
251,32971011.630955845
336,0.0
385,20.603082094616884
386,27.058175092050163
387,4.661026352633121
388,0.0
425,0.0
450,0.0
451,0.0
452,13.413372578006523
453,0.0
490,0.0
515,0.0
516,0.0
542,0.0
592,7646583.592010483
632,25138375.66749171
686,1.0
687,1.0
688,2.0
2,21, 1,21, 0,12,40.00,50.00,Monday
250,9.158121498568509
251,32832403.723282337
336,0.0
385,20.603082094616884
386,27.058175092050163
387,4.91543438054121
388,0.0
425,0.0
450,0.0
451,0.0
452,13.855012584750984
453,0.0
490,0.0
515,0.0
516,0.0
542,0.0
592,7683540.190789656
632,24962774.46157565
686,1.0
687,1.0
688,2.0
2,21, 1,21, 0,12,50.00,60.00,Monday
250,9.421408057880791
251,32693818.886703186
336,0.0
385,20.603082094616884
386,27.058175092050163
387,5.16436459958813
388,0.0
425,0.0
450,0.0
451,0.0
452,14.222913083916168
453,0.0
490,0.0
515,0.0
516,0.0
542,0.0
592,7720278.951825121
632,24787439.281347938
686,1.0
687,1.0
688,2.0
2,21, 1,21, 0,13, 0.00,10.00,Monday
250,9.60321336832454
251,32596007.530825123
336,0.0
385,20.603082094616884
386,27.058175092050163
387,5.396728626115157
388,0.0
425,0.0
450,0.0
451,0.0
452,14.514203070372316
453,0.0
490,0.0
515,0.0
516,0.0
542,0.0
592,7745410.487127082
632,24682854.085106228
686,1.0
687,1.0
688,2.0
2,21, 1,21, 0,13,10.00,20.00,Monday
250,9.783528603468296
251,32502508.896052618
336,0.0
385,20.603082094616884
386,27.058175092050163
387,5.615477397616384
388,0.0
425,0.0
450,0.0
451,0.0
452,14.743399724339909
453,0.0
490,0.0
515,0.0
516,0.0
542,0.0
592,7770439.060057994
632,24570505.557261657
686,1.0
687,1.0
688,2.0
2,21, 1,21, 0,13,20.00,30.00,Monday
250,9.965861613976179
251,32408213.614121653
336,0.0
385,20.603082094616884
386,27.058175092050163
387,5.8203363712573335
388,0.0
425,0.0
450,0.0
451,0.0
452,14.926526110528604
453,0.0
490,0.0
515,0.0
516,0.0
542,0.0
592,7795364.67061786
632,24452386.29749354
686,1.0
687,1.0
688,2.0
2,21, 1,21, 0,13,30.00,40.00,Monday
250,10.147755783831117
251,32314182.135024432
336,0.0
385,20.603082094616884
386,27.058175092050163
387,6.015325492920652
388,0.0
425,0.0
450,0.0
451,0.0
452,15.075437536335919
453,0.0
490,0.0
515,0.0
516,0.0
542,0.0
592,7820187.318806683
632,24333307.9146606
686,1.0
687,1.0
688,2.0
2,21, 1,21, 0,13,40.00,50.00,Monday
250,10.329496585404465
251,32220266.512454536
336,0.0
385,20.603082094616884
386,27.058175092050163
387,6.204193354298985
388,0.0
425,0.0
450,0.0
451,0.0
452,15.194695516751047
453,0.0
490,0.0
515,0.0
516,0.0
542,0.0
592,7844907.004624449
632,24214602.61353926
686,1.0
687,1.0
688,2.0
2,21, 1,21, 0,13,50.00,60.00,Monday
250,10.511187566533074
251,32126410.8002411
336,0.0
385,20.603082094616884
386,27.058175092050163
387,6.388241174165166
388,0.0
425,0.0
450,0.0
451,0.0
452,15.287974127931172
453,0.0
490,0.0
515,0.0
516,0.0
542,0.0
592,7869523.72807117
632,24096116.26257984
686,1.0
687,1.0
688,2.0
2,21, 1,21, 0,14, 0.00,10.00,Monday
250,10.710733918632382
251,32022943.787831448
336,0.0
385,20.603082094616884
386,27.058175092050163
387,6.5703017731495015
388,0.0
425,0.0
450,0.0
451,0.0
452,15.34389609484444
453,0.0
490,0.0
515,0.0
516,0.0
542,0.0
592,7896260.907308879
632,23975569.16685106
686,1.0
687,1.0
688,2.0
2,21, 1,21, 0,14,10.00,20.00,Monday
250,10.908825114276283
251,31919894.631153494
336,0.0
385,20.603082094616884
386,27.058175092050163
387,6.750504373316567
388,0.0
425,0.0
450,0.0
451,0.0
452,15.34415620427044
453,0.0
490,0.0
515,0.0
516,0.0
542,0.0
592,7922875.552815757
632,23845132.6315515
686,1.0
687,1.0
688,2.0
2,21, 1,21, 0,14,20.00,30.00,Monday
250,11.106339116482602
251,31817142.94559948
336,0.0
385,20.603082094616884
386,27.058175092050163
387,6.926695187221148
388,0.0
425,0.0
450,0.0
451,0.0
452,15.28831032524097
453,0.0
490,0.0
515,0.0
516,0.0
542,0.0
592,7949367.664591796
632,23715590.2644283
686,1.0
687,1.0
688,2.0
2,21, 1,21, 0,14,30.00,40.00,Monday
250,11.303604094793931
251,31714555.663998578
336,0.0
385,20.603082094616884
386,27.058175092050163
387,7.092929830297097
388,0.0
425,0.0
450,0.0
451,0.0
452,15.1658578644364
453,0.0
490,0.0
515,0.0
516,0.0
542,0.0
592,7975737.242637003
632,23586512.26159125
686,1.0
687,1.0
688,2.0
2,21, 1,21, 0,14,40.00,50.00,Monday
250,11.500593383450514
251,31612138.612896692
336,0.0
385,20.603082094616884
386,27.058175092050163
387,7.245516509071432
388,0.0
425,0.0
450,0.0
451,0.0
452,14.957099362461612
453,0.0
490,0.0
515,0.0
516,0.0
542,0.0
592,8001984.286951375
632,23457712.741200272
686,1.0
687,1.0
688,2.0
2,21, 1,21, 0,14,50.00,60.00,Monday
250,11.6971835613186
251,31509958.8919905
336,0.0
385,20.603082094616884
386,27.058175092050163
387,7.384744443174507
388,0.0
425,0.0
450,0.0
451,0.0
452,14.665101702670336
453,0.0
490,0.0
515,0.0
516,0.0
542,0.0
592,8028108.797534915
632,23329206.507782284
686,1.0
687,1.0
688,2.0
2,21, 1,21, 0,15, 0.00,10.00,Monday
250,11.958766774700713
251,31373424.652660675
336,0.0
385,20.603082094616884
386,27.058175092050163