Program Version,EnergyPlus, Version 24.2.0-94a887817b, YMD=2025.02.04 15:40
1,5,Environment Title[],Latitude[deg],Longitude[deg],Time Zone[],Elevation[m]
2,8,Day of Simulation[],Month[],Day of Month[],DST Indicator[1=yes 0=no],Hour[],StartMinute[],EndMinute[],DayType
3,5,Cumulative Day of Simulation[],Month[],Day of Month[],DST Indicator[1=yes 0=no],DayType  ! When Daily Meters Requested
4,2,Cumulative Days of Simulation[],Month[]  ! When Monthly Meters Requested
5,1,Cumulative Days of Simulation[] ! When Run Period Meters Requested
6,1,Calendar Year of Simulation[] ! When Annual Meters Requested
11,9,Electricity:Facility [J] !Monthly [Value,Min,Day,Hour,Minute,Max,Day,Hour,Minute]
23,9,Electricity:Building [J] !Monthly [Value,Min,Day,Hour,Minute,Max,Day,Hour,Minute]
59,9,InteriorLights:Electricity [J] !Monthly [Value,Min,Day,Hour,Minute,Max,Day,Hour,Minute]
521,9,Electricity:HVAC [J] !Monthly [Value,Min,Day,Hour,Minute,Max,Day,Hour,Minute]
637,9,NaturalGas:Facility [J] !Monthly [Value,Min,Day,Hour,Minute,Max,Day,Hour,Minute]
649,9,NaturalGas:HVAC [J] !Monthly [Value,Min,Day,Hour,Minute,Max,Day,Hour,Minute]
13,11,Electricity:Facility [J] !RunPeriod [Value,Min,Month,Day,Hour,Minute,Max,Month,Day,Hour,Minute]
25,11,Electricity:Building [J] !RunPeriod [Value,Min,Month,Day,Hour,Minute,Max,Month,Day,Hour,Minute]
61,11,InteriorLights:Electricity [J] !RunPeriod [Value,Min,Month,Day,Hour,Minute,Max,Month,Day,Hour,Minute]
523,11,Electricity:HVAC [J] !RunPeriod [Value,Min,Month,Day,Hour,Minute,Max,Month,Day,Hour,Minute]
639,11,NaturalGas:Facility [J] !RunPeriod [Value,Min,Month,Day,Hour,Minute,Max,Month,Day,Hour,Minute]
651,11,NaturalGas:HVAC [J] !RunPeriod [Value,Min,Month,Day,Hour,Minute,Max,Month,Day,Hour,Minute]
End of Data Dictionary
1,RUN PERIOD 1,  41.98, -87.92,  -6.00, 201.00
4,31, 1
11,9831383552.252821,408891.4285714286, 5, 6,50,2985511.9724059333,16,13,60
23,992333451.0218436,30000.0, 1, 1,10,616038.7326245086, 1, 9,10
59,970200000.0,30000.0, 1, 1,10,600000.0, 1, 8,10
521,8839050101.230986,378891.4285714286, 5, 6,50,2369473.239781425,16,13,60
637,179197906453.07397,28346913.601805083,21,16,10,41250000.0, 1, 1,10
649,179197906453.07397,28346913.601805083,21,16,10,41250000.0, 1, 1,10
4,59, 2
11,9363782600.213272,99999999999999.0, 5, 6,50,3026973.4126690556,22,15,30
23,867406479.1494282,99999999999999.0, 1, 1,10,-99999999999999.0, 1, 9,10
59,848160000.0,99999999999999.0, 1, 1,10,-99999999999999.0, 1, 8,10
521,8496376121.063895,99999999999999.0, 5, 6,50,2410934.680044547,22,15,30
637,158629286058.54233,26655130.050018884,23,12,10,-99999999999999.0, 1, 1,10
649,158629286058.54233,26655130.050018884,23,12,10,-99999999999999.0, 1, 1,10
4,90, 3
11,11019763613.79949,99999999999999.0, 5, 6,50,3270852.943500448,27,16,10
23,917688803.1069001,99999999999999.0, 1, 1,10,-99999999999999.0, 1, 9,10
59,897480000.0,99999999999999.0, 1, 1,10,-99999999999999.0, 1, 8,10
521,10102074810.69258,99999999999999.0, 5, 6,50,2654814.2108759396,27,16,10
637,163276309035.14478,21134352.405557476,27,16,10,-99999999999999.0, 1, 1,10
649,163276309035.14478,21134352.405557476,27,16,10,-99999999999999.0, 1, 1,10
4,120, 4
11,10043481603.53769,30000.0,11,19,10,3271647.053937734,24,11,50
23,950691127.0643717,99999999999999.0, 1, 1,10,-99999999999999.0, 1, 9,10
59,929520000.0,99999999999999.0, 1, 1,10,-99999999999999.0, 1, 8,10
521,9092790476.473364,0.0,11,14,20,2655608.3213132257,24,11,50
637,123571161409.35551,0.0,11,14,20,-99999999999999.0, 1, 1,10
649,123571161409.35551,0.0,11,14,20,-99999999999999.0, 1, 1,10
4,151, 5
11,9983633323.682894,99999999999999.0,11,19,10,3276230.0861897203,24,11,50
23,992647740.1740274,99999999999999.0, 1, 1,10,631970.8623890964,28,13,10
59,970200000.0,99999999999999.0, 1, 1,10,-99999999999999.0, 1, 8,10
521,8990985583.50891,99999999999999.0,11,14,20,2662745.914607397,26,13,30
637,98529191664.00568,99999999999999.0,11,14,20,-99999999999999.0, 1, 1,10
649,98529191664.00568,99999999999999.0,11,14,20,-99999999999999.0, 1, 1,10
4,181, 6
11,8540772948.232239,99999999999999.0,11,19,10,3276574.6974591273,25, 9,20
23,876072482.8419484,99999999999999.0, 1, 1,10,-99999999999999.0,28,13,10
59,856800000.0,99999999999999.0, 1, 1,10,-99999999999999.0, 1, 8,10
521,7664700465.390331,99999999999999.0,11,14,20,-99999999999999.0,26,13,30
637,48303283838.606384,99999999999999.0,11,14,20,-99999999999999.0, 1, 1,10
649,48303283838.606384,99999999999999.0,11,14,20,-99999999999999.0, 1, 1,10
4,212, 7
11,8381161517.754283,99999999999999.0,11,19,10,-99999999999999.0,25, 9,20
23,992596884.0609143,99999999999999.0, 1, 1,10,-99999999999999.0,28,13,10
59,970200000.0,99999999999999.0, 1, 1,10,-99999999999999.0, 1, 8,10
521,7388564633.69339,99999999999999.0,11,14,20,-99999999999999.0,26,13,30
637,23932303403.47224,99999999999999.0,11,14,20,-99999999999999.0, 1, 1,10
649,23932303403.47224,99999999999999.0,11,14,20,-99999999999999.0, 1, 1,10
4,243, 8
11,7848431606.651213,99999999999999.0,11,19,10,3278847.022167355, 6, 9,30
23,955289289.6940067,99999999999999.0, 1, 1,10,632068.8061283439,12,14,10
59,933840000.0,99999999999999.0, 1, 1,10,-99999999999999.0, 1, 8,10
521,6893142316.95735,99999999999999.0,11,14,20,2662808.2895428464, 6, 9,30
637,38610740013.32516,99999999999999.0,11,14,20,-99999999999999.0, 1, 1,10
649,38610740013.32516,99999999999999.0,11,14,20,-99999999999999.0, 1, 1,10
4,273, 9
11,8881188021.774872,99999999999999.0,11,19,10,-99999999999999.0, 6, 9,30
23,913368803.1069001,99999999999999.0, 1, 1,10,-99999999999999.0,12,14,10
59,893160000.0,99999999999999.0, 1, 1,10,-99999999999999.0, 1, 8,10
521,7967819218.668053,99999999999999.0,11,14,20,-99999999999999.0, 6, 9,30
637,74237222233.28122,99999999999999.0,11,14,20,-99999999999999.0, 1, 1,10
649,74237222233.28122,99999999999999.0,11,14,20,-99999999999999.0, 1, 1,10
4,304,10
11,10812144258.137331,99999999999999.0,11,19,10,-99999999999999.0, 6, 9,30
23,992369328.7189206,99999999999999.0, 1, 1,10,634132.1440143231,22,16,30
59,970200000.0,99999999999999.0, 1, 1,10,-99999999999999.0, 1, 8,10
521,9819774929.418446,99999999999999.0,11,14,20,-99999999999999.0, 6, 9,30
637,130647454659.73227,99999999999999.0,11,14,20,-99999999999999.0, 1, 1,10
649,130647454659.73227,99999999999999.0,11,14,20,-99999999999999.0, 1, 1,10
4,334,11
11,10599645791.716528,99999999999999.0,11,19,10,-99999999999999.0, 6, 9,30
23,913368803.1069001,99999999999999.0, 1, 1,10,-99999999999999.0,22,16,30
59,893160000.0,99999999999999.0, 1, 1,10,-99999999999999.0, 1, 8,10
521,9686276988.609661,99999999999999.0,11,14,20,-99999999999999.0, 6, 9,30
637,149170004192.64655,99999999999999.0,11,14,20,-99999999999999.0, 1, 1,10
649,149170004192.64655,99999999999999.0,11,14,20,-99999999999999.0, 1, 1,10
4,365,12
11,10443961747.448153,99999999999999.0,11,19,10,-99999999999999.0, 6, 9,30
23,955011127.064372,99999999999999.0, 1, 1,10,-99999999999999.0,22,16,30
59,933840000.0,99999999999999.0, 1, 1,10,-99999999999999.0, 1, 8,10
521,9488950620.383821,99999999999999.0,11,14,20,-99999999999999.0, 6, 9,30
637,180053393413.94046,99999999999999.0,11,14,20,-99999999999999.0, 1, 1,10
649,180053393413.94046,99999999999999.0,11,14,20,-99999999999999.0, 1, 1,10
5,365
13,115749350585.2049,30000.0, 4,11,19,10,3278847.022167355, 8, 6, 9,30
25,11318844319.10601,30000.0, 1, 1, 1,10,634132.1440143231,10,22,16,30
61,11066760000.0,30000.0, 1, 1, 1,10,600000.0, 1, 1, 8,10
523,104430506266.09673,0.0, 4,11,14,20,2662808.2895428464, 8, 6, 9,30
639,1368158256375.132,0.0, 4,11,14,20,41250000.0, 1, 1, 1,10
651,1368158256375.132,0.0, 4,11,14,20,41250000.0, 1, 1, 1,10
1,RUN PERIOD 2,  41.98, -87.92,  -6.00, 201.00
4,1, 7
11,156823445.30896965,99999999999999.0,11,19,10,-99999999999999.0, 6, 9,30
23,41642323.95747051,99999999999999.0, 1, 1,10,-99999999999999.0,22,16,30
59,40680000.0,99999999999999.0, 1, 1,10,-99999999999999.0, 1, 8,10
521,115181121.35149916,99999999999999.0,11,14,20,-99999999999999.0, 6, 9,30
637,0.0,99999999999999.0,11,14,20,-99999999999999.0, 1, 1,10
649,0.0,99999999999999.0,11,14,20,-99999999999999.0, 1, 1,10
5,1
13,156823445.30896965,99999999999999.0, 4,11,19,10,-99999999999999.0, 8, 6, 9,30
25,41642323.95747051,99999999999999.0, 1, 1, 1,10,-99999999999999.0,10,22,16,30
61,40680000.0,99999999999999.0, 1, 1, 1,10,-99999999999999.0, 1, 1, 8,10
523,115181121.35149916,99999999999999.0, 4,11,14,20,-99999999999999.0, 8, 6, 9,30
639,0.0,99999999999999.0, 4,11,14,20,-99999999999999.0, 1, 1, 1,10
651,0.0,99999999999999.0, 4,11,14,20,-99999999999999.0, 1, 1, 1,10
End of Data
 Number of Records Written=          90
