Program Version,EnergyPlus, Version 24.2.0-94a887817b, YMD=2025.02.04 15:37
1,5,Environment Title[],Latitude[deg],Longitude[deg],Time Zone[],Elevation[m]
2,8,Day of Simulation[],Month[],Day of Month[],DST Indicator[1=yes 0=no],Hour[],StartMinute[],EndMinute[],DayType
3,5,Cumulative Day of Simulation[],Month[],Day of Month[],DST Indicator[1=yes 0=no],DayType  ! When Daily Meters Requested
4,2,Cumulative Days of Simulation[],Month[]  ! When Monthly Meters Requested
5,1,Cumulative Days of Simulation[] ! When Run Period Meters Requested
6,1,Calendar Year of Simulation[] ! When Annual Meters Requested
11,9,Electricity:Facility [J] !Monthly [Value,Min,Day,Hour,Minute,Max,Day,Hour,Minute]
23,9,Electricity:Building [J] !Monthly [Value,Min,Day,Hour,Minute,Max,Day,Hour,Minute]
59,9,InteriorLights:Electricity [J] !Monthly [Value,Min,Day,Hour,Minute,Max,Day,Hour,Minute]
521,9,Electricity:HVAC [J] !Monthly [Value,Min,Day,Hour,Minute,Max,Day,Hour,Minute]
637,9,NaturalGas:Facility [J] !Monthly [Value,Min,Day,Hour,Minute,Max,Day,Hour,Minute]
649,9,NaturalGas:HVAC [J] !Monthly [Value,Min,Day,Hour,Minute,Max,Day,Hour,Minute]
13,11,Electricity:Facility [J] !RunPeriod [Value,Min,Month,Day,Hour,Minute,Max,Month,Day,Hour,Minute]
25,11,Electricity:Building [J] !RunPeriod [Value,Min,Month,Day,Hour,Minute,Max,Month,Day,Hour,Minute]
61,11,InteriorLights:Electricity [J] !RunPeriod [Value,Min,Month,Day,Hour,Minute,Max,Month,Day,Hour,Minute]
523,11,Electricity:HVAC [J] !RunPeriod [Value,Min,Month,Day,Hour,Minute,Max,Month,Day,Hour,Minute]
639,11,NaturalGas:Facility [J] !RunPeriod [Value,Min,Month,Day,Hour,Minute,Max,Month,Day,Hour,Minute]
651,11,NaturalGas:HVAC [J] !RunPeriod [Value,Min,Month,Day,Hour,Minute,Max,Month,Day,Hour,Minute]
End of Data Dictionary
1,RUN PERIOD 1,  41.98, -87.92,  -6.00, 201.00
4,31, 1
11,9836119089.772356,408891.4285714286, 5, 6,50,2988943.521333135,16,13,60
23,997068988.5413697,30000.0, 1, 1,10,619470.2815517104, 1, 9,10
59,970200000.0,30000.0, 1, 1,10,600000.0, 1, 8,10
521,8839050101.230986,378891.4285714286, 5, 6,50,2369473.239781425,16,13,60
637,179214913004.61514,28355890.450284317,21,16,10,41250000.0, 1, 1,10
649,179214913004.61514,28355890.450284317,21,16,10,41250000.0, 1, 1,10
4,59, 2
11,9367900458.92591,99999999999999.0, 5, 6,50,3030404.9615962575,22,15,30
23,871524337.8620603,99999999999999.0, 1, 1,10,-99999999999999.0, 1, 9,10
59,848160000.0,99999999999999.0, 1, 1,10,-99999999999999.0, 1, 8,10
521,8496376121.063895,99999999999999.0, 5, 6,50,2410934.680044547,22,15,30
637,158650751840.31482,26663806.48285497,23,12,10,-99999999999999.0, 1, 1,10
649,158650751840.31482,26663806.48285497,23,12,10,-99999999999999.0, 1, 1,10
4,90, 3
11,10944935139.353157,319470.28155171045,27,18,10,3112828.0767173725,27,13,20
23,922012554.7551634,99999999999999.0, 1, 1,10,-99999999999999.0, 1, 9,10
59,897480000.0,99999999999999.0, 1, 1,10,-99999999999999.0, 1, 8,10
521,10022922584.598019,0.0,27,13,40,2493357.795165662,27,13,20
637,162619214625.26144,0.0,27,13,30,-99999999999999.0, 1, 1,10
649,162619214625.26144,0.0,27,13,30,-99999999999999.0, 1, 1,10
4,120, 4
11,9175821279.971237,30000.0,11,19,10,3120215.2902357057,11,10,50
23,955220771.6482666,99999999999999.0, 1, 1,10,-99999999999999.0, 1, 9,10
59,929520000.0,99999999999999.0, 1, 1,10,-99999999999999.0, 1, 8,10
521,8220600508.323032,99999999999999.0,27,13,40,2500745.0086839953,11,10,50
637,117732494458.98738,99999999999999.0,27,13,30,-99999999999999.0, 1, 1,10
649,117732494458.98738,99999999999999.0,27,13,30,-99999999999999.0, 1, 1,10
4,151, 5
11,8023739102.817924,99999999999999.0,11,19,10,-99999999999999.0,11,10,50
23,997330403.6831377,99999999999999.0, 1, 1,10,635404.3170931012,28,13,10
59,970200000.0,99999999999999.0, 1, 1,10,-99999999999999.0, 1, 8,10
521,7026408699.134932,99999999999999.0,27,13,40,-99999999999999.0,11,10,50
637,85312556743.47179,99999999999999.0,27,13,30,-99999999999999.0, 1, 1,10
649,85312556743.47179,99999999999999.0,27,13,30,-99999999999999.0, 1, 1,10
4,181, 6
11,5218875869.89142,99999999999999.0,11,19,10,-99999999999999.0,11,10,50
23,880250623.4041044,99999999999999.0, 1, 1,10,-99999999999999.0,28,13,10
59,856800000.0,99999999999999.0, 1, 1,10,-99999999999999.0, 1, 8,10
521,4338625246.487379,99999999999999.0,27,13,40,-99999999999999.0,11,10,50
637,30381023491.524357,99999999999999.0,27,13,30,-99999999999999.0, 1, 1,10
649,30381023491.524357,99999999999999.0,27,13,30,-99999999999999.0, 1, 1,10
4,212, 7
11,5020154576.080559,99999999999999.0,11,19,10,3126685.1721017407, 1,13,20
23,997341248.3791956,99999999999999.0, 1, 1,10,-99999999999999.0,28,13,10
59,970200000.0,99999999999999.0, 1, 1,10,-99999999999999.0, 1, 8,10
521,4022813327.701409,99999999999999.0,27,13,40,2507214.8905500304, 1,13,20
637,7892356043.233088,99999999999999.0,27,13,30,-99999999999999.0, 1, 1,10
649,7892356043.233088,99999999999999.0,27,13,30,-99999999999999.0, 1, 1,10
4,243, 8
11,3622033549.3975434,99999999999999.0,11,19,10,-99999999999999.0, 1,13,20
23,959819036.7681552,99999999999999.0, 1, 1,10,635501.8310313977,12,14,10
59,933840000.0,99999999999999.0, 1, 1,10,-99999999999999.0, 1, 8,10
521,2662214512.6294,99999999999999.0,27,13,40,-99999999999999.0, 1,13,20
637,13879988216.044952,99999999999999.0,27,13,30,-99999999999999.0, 1, 1,10
649,13879988216.044952,99999999999999.0,27,13,30,-99999999999999.0, 1, 1,10
4,273, 9
11,5296378468.224135,99999999999999.0,11,19,10,-99999999999999.0, 1,13,20
23,917692554.7551636,99999999999999.0, 1, 1,10,-99999999999999.0,12,14,10
59,893160000.0,99999999999999.0, 1, 1,10,-99999999999999.0, 1, 8,10
521,4378685913.468985,99999999999999.0,27,13,40,-99999999999999.0, 1,13,20
637,48298314475.7726,99999999999999.0,27,13,30,-99999999999999.0, 1, 1,10
649,48298314475.7726,99999999999999.0,27,13,30,-99999999999999.0, 1, 1,10
4,304,10
11,10153913897.963373,99999999999999.0,11,19,10,-99999999999999.0, 1,13,20
23,997068988.5413697,99999999999999.0, 1, 1,10,-99999999999999.0,12,14,10
59,970200000.0,99999999999999.0, 1, 1,10,-99999999999999.0, 1, 8,10
521,9156844909.422037,99999999999999.0,27,13,40,-99999999999999.0, 1,13,20
637,125072627467.72209,99999999999999.0,27,13,30,-99999999999999.0, 1, 1,10
649,125072627467.72209,99999999999999.0,27,13,30,-99999999999999.0, 1, 1,10
4,334,11
11,10247493832.916132,99999999999999.0,11,19,10,-99999999999999.0, 1,13,20
23,917692554.7551634,99999999999999.0, 1, 1,10,-99999999999999.0,12,14,10
59,893160000.0,99999999999999.0, 1, 1,10,-99999999999999.0, 1, 8,10
521,9329801278.161009,99999999999999.0,27,13,40,-99999999999999.0, 1,13,20
637,145926953154.31528,99999999999999.0,27,13,30,-99999999999999.0, 1, 1,10
649,145926953154.31528,99999999999999.0,27,13,30,-99999999999999.0, 1, 1,10
4,365,12
11,10448491392.032057,99999999999999.0,11,19,10,-99999999999999.0, 1,13,20
23,959540771.6482667,99999999999999.0, 1, 1,10,-99999999999999.0,12,14,10
59,933840000.0,99999999999999.0, 1, 1,10,-99999999999999.0, 1, 8,10
521,9488950620.383821,99999999999999.0,27,13,40,-99999999999999.0, 1,13,20
637,180072256644.343,99999999999999.0,27,13,30,-99999999999999.0, 1, 1,10
649,180072256644.343,99999999999999.0,27,13,30,-99999999999999.0, 1, 1,10
5,365
13,97355856657.36264,30000.0, 4,11,19,10,3126685.1721017407, 7, 1,13,20
25,11372562834.738142,30000.0, 1, 1, 1,10,635501.8310313977, 8,12,14,10
61,11066760000.0,30000.0, 1, 1, 1,10,600000.0, 1, 1, 8,10
523,85983293822.60963,0.0, 3,27,13,40,2507214.8905500304, 7, 1,13,20
639,1255053450165.6106,0.0, 3,27,13,30,41250000.0, 1, 1, 1,10
651,1255053450165.6106,0.0, 3,27,13,30,41250000.0, 1, 1, 1,10
1,RUN PERIOD 2,  41.98, -87.92,  -6.00, 201.00
4,1, 7
11,104638618.4781117,99999999999999.0,11,19,10,-99999999999999.0, 1,13,20
23,41848216.89310267,99999999999999.0, 1, 1,10,-99999999999999.0,12,14,10
59,40680000.0,99999999999999.0, 1, 1,10,-99999999999999.0, 1, 8,10
521,62790401.58500912,99999999999999.0,27,13,40,-99999999999999.0, 1,13,20
637,0.0,99999999999999.0,27,13,30,-99999999999999.0, 1, 1,10
649,0.0,99999999999999.0,27,13,30,-99999999999999.0, 1, 1,10
5,1
13,104638618.4781117,99999999999999.0, 4,11,19,10,-99999999999999.0, 7, 1,13,20
25,41848216.89310267,99999999999999.0, 1, 1, 1,10,-99999999999999.0, 8,12,14,10
61,40680000.0,99999999999999.0, 1, 1, 1,10,-99999999999999.0, 1, 1, 8,10
523,62790401.58500912,99999999999999.0, 3,27,13,40,-99999999999999.0, 7, 1,13,20
639,0.0,99999999999999.0, 3,27,13,30,-99999999999999.0, 1, 1, 1,10
651,0.0,99999999999999.0, 3,27,13,30,-99999999999999.0, 1, 1, 1,10
End of Data
 Number of Records Written=          90
