Program Version,EnergyPlus, Version 24.2.0-94a887817b, YMD=2025.01.21 11:38
1,5,Environment Title[],Latitude[deg],Longitude[deg],Time Zone[],Elevation[m]
2,8,Day of Simulation[],Month[],Day of Month[],DST Indicator[1=yes 0=no],Hour[],StartMinute[],EndMinute[],DayType
3,5,Cumulative Day of Simulation[],Month[],Day of Month[],DST Indicator[1=yes 0=no],DayType  ! When Daily Report Variables Requested
4,2,Cumulative Days of Simulation[],Month[]  ! When Monthly Report Variables Requested
5,1,Cumulative Days of Simulation[] ! When Run Period Report Variables Requested
6,1,Calendar Year of Simulation[] ! When Annual Report Variables Requested
250,1,LIVING ZONE,Zone Air Temperature [C] !TimeStep,REPORTSCH
251,1,LIVING ZONE,Zone Air System Sensible Heating Energy [J] !TimeStep,REPORTSCH
336,1,LIVING ZONE,Zone Air System Sensible Cooling Energy [J] !TimeStep,REPORTSCH
385,1,LIVING ZONE,Zone Thermostat Heating Setpoint Temperature [C] !TimeStep,REPORTSCH
386,1,LIVING ZONE,Zone Thermostat Cooling Setpoint Temperature [C] !TimeStep,REPORTSCH
387,1,GARAGE ZONE,Zone Air Temperature [C] !TimeStep,REPORTSCH
388,1,GARAGE ZONE,Zone Air System Sensible Heating Energy [J] !TimeStep,REPORTSCH
425,1,GARAGE ZONE,Zone Air System Sensible Cooling Energy [J] !TimeStep,REPORTSCH
450,1,GARAGE ZONE,Zone Thermostat Heating Setpoint Temperature [C] !TimeStep,REPORTSCH
451,1,GARAGE ZONE,Zone Thermostat Cooling Setpoint Temperature [C] !TimeStep,REPORTSCH
452,1,ATTIC ZONE,Zone Air Temperature [C] !TimeStep,REPORTSCH
453,1,ATTIC ZONE,Zone Air System Sensible Heating Energy [J] !TimeStep,REPORTSCH
490,1,ATTIC ZONE,Zone Air System Sensible Cooling Energy [J] !TimeStep,REPORTSCH
515,1,ATTIC ZONE,Zone Thermostat Heating Setpoint Temperature [C] !TimeStep,REPORTSCH
516,1,ATTIC ZONE,Zone Thermostat Cooling Setpoint Temperature [C] !TimeStep,REPORTSCH
542,1,ACDXCOIL 1,Cooling Coil Total Cooling Energy [J] !TimeStep,REPORTSCH
592,1,HEAT PUMP DX HEATING COIL 1,Heating Coil Heating Energy [J] !TimeStep,REPORTSCH
632,1,SUPP HEATING COIL 1,Heating Coil Heating Energy [J] !TimeStep,REPORTSCH
686,1,TWOSPEED HEAT PUMP 1,Unitary System DX Coil Cycling Ratio [] !TimeStep,REPORTSCH
687,1,TWOSPEED HEAT PUMP 1,Unitary System DX Coil Speed Ratio [] !TimeStep,REPORTSCH
688,1,TWOSPEED HEAT PUMP 1,Unitary System DX Coil Speed Level [] !TimeStep,REPORTSCH
End of Data Dictionary
1,CHICAGO_IL_USA ANNUAL HEATING 99% DESIGN CONDITIONS DB,  41.98, -87.92,  -6.00, 201.00
2,1, 1,21, 0, 1, 0.00,10.00,WinterDesignDay
250,-17.09043705147614
251,33258891.428623397
336,0.0
385,19.067684426634692
386,26.36621350228644
387,-18.499404772600172
388,0.0
425,0.0
450,0.0
451,0.0
452,-19.36228305572238
453,0.0
490,0.0
515,0.0
516,0.0
542,0.0
592,0.0
632,33000000.0
686,1.0
687,1.0
688,2.0
2,1, 1,21, 0, 1,10.00,20.00,WinterDesignDay
250,-17.090437051571776
251,33258891.428622708
336,0.0
385,19.067684426634692
386,26.36621350228644
387,-18.499406260690062
388,0.0
425,0.0
450,0.0
451,0.0
452,-19.362283263170024
453,0.0
490,0.0
515,0.0
516,0.0
542,0.0
592,0.0
632,33000000.0
686,1.0
687,1.0
688,2.0
2,1, 1,21, 0, 1,20.00,30.00,WinterDesignDay
250,-17.090437051666147
251,33258891.428622026
336,0.0
385,19.067684426634692
386,26.36621350228644
387,-18.499407729378635
388,0.0
425,0.0
450,0.0
451,0.0
452,-19.36228346791242
453,0.0
490,0.0
515,0.0
516,0.0
542,0.0
592,0.0
632,33000000.0
686,1.0
687,1.0
688,2.0
2,1, 1,21, 0, 1,30.00,40.00,WinterDesignDay
250,-17.090437051759267
251,33258891.42862135
336,0.0
385,19.067684426634692
386,26.36621350228644
387,-18.499409178918963
388,0.0
425,0.0
450,0.0
451,0.0
452,-19.362283669984844
453,0.0
490,0.0
515,0.0
516,0.0
542,0.0
592,0.0
632,33000000.0
686,1.0
687,1.0
688,2.0
2,1, 1,21, 0, 1,40.00,50.00,WinterDesignDay
250,-17.090437051851147
251,33258891.428620696
336,0.0
385,19.067684426634692
386,26.36621350228644
387,-18.499410609560744
388,0.0
425,0.0
450,0.0
451,0.0
452,-19.362283869422125
453,0.0
490,0.0
515,0.0
516,0.0
542,0.0
592,0.0
632,33000000.0
686,1.0
687,1.0
688,2.0
2,1, 1,21, 0, 1,50.00,60.00,WinterDesignDay
250,-17.090437051941805
251,33258891.428620037
336,0.0
385,19.067684426634692
386,26.36621350228644
387,-18.499412021550206
388,0.0
425,0.0
450,0.0
451,0.0
452,-19.362284066258628
453,0.0
490,0.0
515,0.0
516,0.0
542,0.0
592,0.0
632,33000000.0
686,1.0
687,1.0
688,2.0
2,1, 1,21, 0, 2, 0.00,10.00,WinterDesignDay
250,-17.090437052031266
251,33258891.428619396
336,0.0
385,19.067684426634692
386,26.36621350228644
387,-18.49941341513063
388,0.0
425,0.0
450,0.0
451,0.0
452,-19.362284260528273
453,0.0
490,0.0
515,0.0
516,0.0
542,0.0
592,0.0
632,33000000.0
686,1.0
687,1.0
688,2.0
2,1, 1,21, 0, 2,10.00,20.00,WinterDesignDay
250,-17.090437052119537
251,33258891.428618755
336,0.0
385,19.067684426634692
386,26.36621350228644
387,-18.49941479054198
388,0.0
425,0.0
450,0.0
451,0.0
452,-19.36228445226454
453,0.0
490,0.0
515,0.0
516,0.0
542,0.0
592,0.0
632,33000000.0
686,1.0
687,1.0
688,2.0
2,1, 1,21, 0, 2,20.00,30.00,WinterDesignDay
250,-17.09043705220663
251,33258891.428618122
336,0.0
385,19.067684426634692
386,26.36621350228644
387,-18.499416148020977
388,0.0
425,0.0
450,0.0
451,0.0
452,-19.36228464150047
453,0.0
490,0.0
515,0.0
516,0.0
542,0.0
592,0.0
632,33000000.0
686,1.0
687,1.0
688,2.0
2,1, 1,21, 0, 2,30.00,40.00,WinterDesignDay
250,-17.09043705229257
251,33258891.428617503
336,0.0
385,19.067684426634692
386,26.36621350228644
387,-18.499417487801512
388,0.0
425,0.0
450,0.0
451,0.0
452,-19.362284828268674
453,0.0
490,0.0
515,0.0
516,0.0
542,0.0
592,0.0
632,33000000.0
686,1.0
687,1.0
688,2.0
2,1, 1,21, 0, 2,40.00,50.00,WinterDesignDay
250,-17.09043705237738
251,33258891.428616896
336,0.0
385,19.067684426634692
386,26.36621350228644
387,-18.499418810114353
388,0.0
425,0.0
450,0.0
451,0.0
452,-19.362285012601333
453,0.0
490,0.0
515,0.0
516,0.0
542,0.0
592,0.0
632,33000000.0
686,1.0
687,1.0
688,2.0
2,1, 1,21, 0, 2,50.00,60.00,WinterDesignDay
250,-17.090437052461056
251,33258891.428616293
336,0.0
385,19.067684426634692
386,26.36621350228644
387,-18.49942011518725
388,0.0
425,0.0
450,0.0
451,0.0
452,-19.362285194530216
453,0.0
490,0.0
515,0.0
516,0.0
542,0.0
592,0.0
632,33000000.0
686,1.0
687,1.0
688,2.0
2,1, 1,21, 0, 3, 0.00,10.00,WinterDesignDay
250,-17.090437052543624
251,33258891.4286157
336,0.0
385,19.067684426634692
386,26.36621350228644
387,-18.499421403244913
388,0.0
425,0.0
450,0.0
451,0.0
452,-19.362285374086674
453,0.0
490,0.0
515,0.0
516,0.0
542,0.0
592,0.0
632,33000000.0
686,1.0
687,1.0
688,2.0
2,1, 1,21, 0, 3,10.00,20.00,WinterDesignDay
250,-17.0904370526251
251,33258891.42861511
336,0.0
385,19.067684426634692
386,26.36621350228644
387,-18.499422674509304
388,0.0
425,0.0
450,0.0
451,0.0
452,-19.36228555130165
453,0.0
490,0.0
515,0.0
516,0.0
542,0.0
592,0.0
632,33000000.0
686,1.0
687,1.0
688,2.0
2,1, 1,21, 0, 3,20.00,30.00,WinterDesignDay
250,-17.09043705270549
251,33258891.42861453
336,0.0
385,19.067684426634692
386,26.36621350228644
387,-18.499423929199388
388,0.0
425,0.0
450,0.0
451,0.0
452,-19.362285726205673
453,0.0
490,0.0
515,0.0
516,0.0
542,0.0
592,0.0
632,33000000.0
686,1.0
687,1.0
688,2.0
2,1, 1,21, 0, 3,30.00,40.00,WinterDesignDay
250,-17.09043705278482
251,33258891.428613957
336,0.0
385,19.067684426634692
386,26.36621350228644
387,-18.49942516753114
388,0.0
425,0.0
450,0.0
451,0.0
452,-19.362285898828887
453,0.0
490,0.0
515,0.0
516,0.0
542,0.0
592,0.0
632,33000000.0
686,1.0
687,1.0
688,2.0
2,1, 1,21, 0, 3,40.00,50.00,WinterDesignDay
250,-17.0904370528631
251,33258891.4286134
336,0.0
385,19.067684426634692
386,26.36621350228644
387,-18.49942638971765
388,0.0
425,0.0
450,0.0
451,0.0
452,-19.362286069201037
453,0.0
490,0.0
515,0.0
516,0.0
542,0.0
592,0.0
632,33000000.0
686,1.0
687,1.0
688,2.0
2,1, 1,21, 0, 3,50.00,60.00,WinterDesignDay
250,-17.090437052940334
251,33258891.42861284
336,0.0
385,19.067684426634692
386,26.36621350228644
387,-18.49942759596947
388,0.0
425,0.0
450,0.0
451,0.0
452,-19.362286237351487
453,0.0
490,0.0
515,0.0
516,0.0
542,0.0
592,0.0
632,33000000.0
686,1.0
687,1.0
688,2.0
2,1, 1,21, 0, 4, 0.00,10.00,WinterDesignDay
250,-17.09043705301655
251,33258891.42861229
336,0.0
385,19.067684426634692
386,26.36621350228644
387,-18.499428786494423
388,0.0
425,0.0
450,0.0
451,0.0
452,-19.36228640330921
453,0.0
490,0.0
515,0.0
516,0.0
542,0.0
592,0.0
632,33000000.0
686,1.0
687,1.0
688,2.0
2,1, 1,21, 0, 4,10.00,20.00,WinterDesignDay
250,-17.090437053091755
251,33258891.428611748
336,0.0
385,19.067684426634692
386,26.36621350228644
387,-18.49942996149765
388,0.0
425,0.0
450,0.0
451,0.0
452,-19.3622865671028
453,0.0
490,0.0
515,0.0
516,0.0
542,0.0
592,0.0
632,33000000.0
686,1.0
687,1.0
688,2.0
2,1, 1,21, 0, 4,20.00,30.00,WinterDesignDay
250,-17.09043705316596
251,33258891.42861121
336,0.0
385,19.067684426634692
386,26.36621350228644
387,-18.499431121181505
388,0.0
425,0.0
450,0.0
451,0.0
452,-19.362286728760484
453,0.0
490,0.0
515,0.0
516,0.0
542,0.0
592,0.0
632,33000000.0
686,1.0
687,1.0
688,2.0
2,1, 1,21, 0, 4,30.00,40.00,WinterDesignDay
250,-17.09043705323919
251,33258891.42861069
336,0.0
385,19.067684426634692
386,26.36621350228644
387,-18.499432265745842
388,0.0
425,0.0
450,0.0
451,0.0
452,-19.36228688831012
453,0.0
490,0.0
515,0.0
516,0.0
542,0.0
592,0.0
632,33000000.0
686,1.0
687,1.0
688,2.0
2,1, 1,21, 0, 4,40.00,50.00,WinterDesignDay
250,-17.09043705331144
251,33258891.42861017
336,0.0
385,19.067684426634692
386,26.36621350228644
387,-18.499433395387445
388,0.0
425,0.0
450,0.0
451,0.0
452,-19.362287045779198
453,0.0
490,0.0
515,0.0
516,0.0
542,0.0
592,0.0
632,33000000.0
686,1.0
687,1.0
688,2.0
2,1, 1,21, 0, 4,50.00,60.00,WinterDesignDay
250,-17.090437053382743
251,33258891.428609658
336,0.0
385,19.067684426634692
386,26.36621350228644
387,-18.49943451030088
388,0.0
425,0.0
450,0.0
451,0.0
452,-19.362287201194853
453,0.0
490,0.0
515,0.0
516,0.0
542,0.0
592,0.0
632,33000000.0
686,1.0
687,1.0
688,2.0
2,1, 1,21, 0, 5, 0.00,10.00,WinterDesignDay
250,-17.090437053453098
251,33258891.428609148
336,0.0
385,19.067684426634692
386,26.36621350228644
387,-18.49943561067831
388,0.0
425,0.0
450,0.0
451,0.0
452,-19.362287354583867
453,0.0
490,0.0
515,0.0
516,0.0
542,0.0
592,0.0
632,33000000.0
686,1.0
687,1.0
688,2.0
2,1, 1,21, 0, 5,10.00,20.00,WinterDesignDay
250,-17.09043705352252
251,33258891.42860865
336,0.0
385,19.067684426634692
386,26.36621350228644
387,-18.499436696709147
388,0.0
425,0.0
450,0.0
451,0.0
452,-19.36228750597267
453,0.0
490,0.0
515,0.0
516,0.0
542,0.0
592,0.0
632,33000000.0
686,1.0
687,1.0
688,2.0
2,1, 1,21, 0, 5,20.00,30.00,WinterDesignDay
250,-17.09043705359103
251,33258891.428608164
336,0.0
385,19.067684426634692
386,26.36621350228644
387,-18.499437768580574
388,0.0
425,0.0
450,0.0
451,0.0
452,-19.362287655387348
453,0.0
490,0.0
515,0.0
516,0.0
542,0.0
592,0.0
632,33000000.0
686,1.0
687,1.0
688,2.0
2,1, 1,21, 0, 5,30.00,40.00,WinterDesignDay
250,-17.090437053658626
251,33258891.428607672
336,0.0
385,19.067684426634692
386,26.36621350228644
387,-18.49943882647714
388,0.0
425,0.0
450,0.0
451,0.0
452,-19.362287802853643
453,0.0
490,0.0
515,0.0
516,0.0
542,0.0
592,0.0
632,33000000.0
686,1.0
687,1.0
688,2.0
2,1, 1,21, 0, 5,40.00,50.00,WinterDesignDay
250,-17.090437053725335
251,33258891.428607192
336,0.0
385,19.067684426634692
386,26.36621350228644
387,-18.499439870580957
388,0.0
425,0.0
450,0.0
451,0.0
452,-19.36228794839697
453,0.0
490,0.0
515,0.0
516,0.0
542,0.0
592,0.0
632,33000000.0
686,1.0
687,1.0
688,2.0
2,1, 1,21, 0, 5,50.00,60.00,WinterDesignDay
250,-17.090437053791153
251,33258891.428606715
336,0.0
385,19.067684426634692
386,26.36621350228644
387,-18.499440901071864
388,0.0
425,0.0
450,0.0
451,0.0
452,-19.3622880920424
453,0.0
490,0.0
515,0.0
516,0.0
542,0.0
592,0.0
632,33000000.0
686,1.0
687,1.0
688,2.0
2,1, 1,21, 0, 6, 0.00,10.00,WinterDesignDay
250,-17.090437053856103
251,33258891.428606253
336,0.0
385,19.067684426634692
386,26.36621350228644
387,-18.49944191812734
388,0.0
425,0.0
450,0.0
451,0.0
452,-19.3622882338147
453,0.0
490,0.0
515,0.0
516,0.0
542,0.0
592,0.0
632,33000000.0
686,1.0
687,1.0
688,2.0
2,1, 1,21, 0, 6,10.00,20.00,WinterDesignDay
250,-17.0904370539202
251,33258891.428605795
336,0.0
385,19.067684426634692
386,26.36621350228644
387,-18.499442921922665
388,0.0
425,0.0
450,0.0
451,0.0
452,-19.362288373738284
453,0.0
490,0.0
515,0.0
516,0.0
542,0.0
592,0.0
632,33000000.0
686,1.0
687,1.0
688,2.0
2,1, 1,21, 0, 6,20.00,30.00,WinterDesignDay
250,-17.090437053983447
251,33258891.42860534
336,0.0
385,19.067684426634692
386,26.36621350228644
387,-18.49944391263065
388,0.0
425,0.0
450,0.0
451,0.0
452,-19.362288511837264
453,0.0
490,0.0
515,0.0
516,0.0
542,0.0
592,0.0
632,33000000.0
686,1.0
687,1.0
688,2.0
2,1, 1,21, 0, 6,30.00,40.00,WinterDesignDay
250,-17.09043705404585
251,33258891.428604886
336,0.0
385,19.067684426634692
386,26.36621350228644
387,-18.499444890421838
388,0.0
425,0.0
450,0.0
451,0.0
452,-19.362288648135433
453,0.0
490,0.0
515,0.0
516,0.0
542,0.0
592,0.0
632,33000000.0
686,1.0
687,1.0
688,2.0
2,1, 1,21, 0, 6,40.00,50.00,WinterDesignDay
250,-17.090437054107436
251,33258891.428604454
336,0.0
385,19.067684426634692
386,26.36621350228644
387,-18.499445855464735
388,0.0
425,0.0
450,0.0
451,0.0
452,-19.362288782656282
453,0.0
490,0.0
515,0.0
516,0.0
542,0.0
592,0.0
632,33000000.0
686,1.0
687,1.0
688,2.0
2,1, 1,21, 0, 6,50.00,60.00,WinterDesignDay
250,-17.090437054168202
251,33258891.428604003
336,0.0
385,19.067684426634692
386,26.36621350228644
387,-18.499446807925583
388,0.0
425,0.0
450,0.0
451,0.0
452,-19.362288915422987
453,0.0
490,0.0
515,0.0
516,0.0
542,0.0
592,0.0
632,33000000.0
686,1.0
687,1.0
688,2.0
2,1, 1,21, 0, 7, 0.00,10.00,WinterDesignDay
250,-17.090437054228165
251,33258891.428603582
336,0.0
385,19.067684426634692
386,26.36621350228644
387,-18.49944774796832
388,0.0
425,0.0
450,0.0
451,0.0
452,-19.362289046458425
453,0.0
490,0.0
515,0.0
516,0.0
542,0.0
592,0.0
632,33000000.0
686,1.0
687,1.0
688,2.0
2,1, 1,21, 0, 7,10.00,20.00,WinterDesignDay
250,-17.090437054287335
251,33258891.42860315
336,0.0
385,19.067684426634692
386,26.36621350228644
387,-18.499448675754845
388,0.0
425,0.0
450,0.0
451,0.0
452,-19.362289175785175
453,0.0
490,0.0
515,0.0
516,0.0
542,0.0
592,0.0
632,33000000.0
686,1.0
687,1.0
688,2.0
2,1, 1,21, 0, 7,20.00,30.00,WinterDesignDay
250,-17.090437054345728
251,33258891.42860274
336,0.0
385,19.067684426634692
386,26.36621350228644
387,-18.499449591444925
388,0.0
425,0.0
450,0.0
451,0.0
452,-19.362289303425523
453,0.0
490,0.0
515,0.0
516,0.0
542,0.0
592,0.0
632,33000000.0
686,1.0
687,1.0
688,2.0
2,1, 1,21, 0, 7,30.00,40.00,WinterDesignDay
250,-17.090437054403345
251,33258891.428602315
336,0.0
385,19.067684426634692
386,26.36621350228644
387,-18.499450495196402
388,0.0
425,0.0
450,0.0
451,0.0
452,-19.362289429401457
453,0.0
490,0.0
515,0.0
516,0.0
542,0.0
592,0.0
632,33000000.0
686,1.0
687,1.0
688,2.0
2,1, 1,21, 0, 7,40.00,50.00,WinterDesignDay
250,-17.090437054460207
251,33258891.428601917
336,0.0
385,19.067684426634692
386,26.36621350228644
387,-18.499451387164875
388,0.0
425,0.0
450,0.0
451,0.0
452,-19.362289553734684
453,0.0
490,0.0
515,0.0
516,0.0
542,0.0
592,0.0
632,33000000.0
686,1.0
687,1.0
688,2.0
2,1, 1,21, 0, 7,50.00,60.00,WinterDesignDay
250,-17.09043705451631
251,33258891.428601507
336,0.0
385,19.067684426634692
386,26.36621350228644
387,-18.499452267503866
388,0.0
425,0.0
450,0.0
451,0.0
452,-19.362289676446625
453,0.0
490,0.0
515,0.0
516,0.0
542,0.0
592,0.0
632,33000000.0
686,1.0
687,1.0
688,2.0
2,1, 1,21, 0, 8, 0.00,10.00,WinterDesignDay
250,-17.090437054571677
251,33258891.428601116
336,0.0
385,19.067684426634692
386,26.36621350228644
387,-18.499453136364956
388,0.0
425,0.0
450,0.0
451,0.0
452,-19.362289797558425
453,0.0
490,0.0
515,0.0
516,0.0
542,0.0
592,0.0
632,33000000.0
686,1.0
687,1.0
688,2.0
2,1, 1,21, 0, 8,10.00,20.00,WinterDesignDay
250,-17.090437054626314
251,33258891.42860072
336,0.0
385,19.067684426634692
386,26.36621350228644
387,-18.499453993897998
388,0.0
425,0.0
450,0.0
451,0.0
452,-19.362289917090948
453,0.0
490,0.0
515,0.0
516,0.0
542,0.0
592,0.0
632,33000000.0
686,1.0
687,1.0
688,2.0
2,1, 1,21, 0, 8,20.00,30.00,WinterDesignDay
250,-17.090437054680226
251,33258891.42860033
336,0.0
385,19.067684426634692
386,26.36621350228644
387,-18.49945484025055
388,0.0
425,0.0
450,0.0
451,0.0
452,-19.36229003506479
453,0.0
490,0.0
515,0.0
516,0.0
542,0.0
592,0.0
632,33000000.0
686,1.0
687,1.0
688,2.0
2,1, 1,21, 0, 8,30.00,40.00,WinterDesignDay
250,-17.090437054733425
251,33258891.428599954
336,0.0
385,19.067684426634692
386,26.36621350228644
387,-18.499455675568335
388,0.0
425,0.0
450,0.0
451,0.0
452,-19.362290151500286
453,0.0
490,0.0
515,0.0
516,0.0
542,0.0
592,0.0
632,33000000.0
686,1.0
687,1.0
688,2.0
2,1, 1,21, 0, 8,40.00,50.00,WinterDesignDay
250,-17.09043705478592
251,33258891.428599574
336,0.0
385,19.067684426634692
386,26.36621350228644
387,-18.499456499995365
388,0.0
425,0.0
450,0.0
451,0.0
452,-19.362290266417492
453,0.0
490,0.0
515,0.0
516,0.0
542,0.0
592,0.0
632,33000000.0
686,1.0
687,1.0
688,2.0
2,1, 1,21, 0, 8,50.00,60.00,WinterDesignDay
250,-17.09043705483773
251,33258891.42859921
336,0.0
385,19.067684426634692
386,26.36621350228644
387,-18.499457313673577
388,0.0
425,0.0
450,0.0
451,0.0
452,-19.36229037983621
453,0.0
490,0.0
515,0.0
516,0.0
542,0.0
592,0.0
632,33000000.0
686,1.0
687,1.0
688,2.0
2,1, 1,21, 0, 9, 0.00,10.00,WinterDesignDay
250,-17.09043705488884
251,33258891.428598832
336,0.0
385,19.067684426634692
386,26.36621350228644
387,-18.49945811674311
388,0.0
425,0.0
450,0.0
451,0.0
452,-19.362290491775973
453,0.0
490,0.0
515,0.0
516,0.0
542,0.0
592,0.0
632,33000000.0
686,1.0
687,1.0
688,2.0
2,1, 1,21, 0, 9,10.00,20.00,WinterDesignDay
250,-17.090437054939294
251,33258891.428598482
336,0.0
385,19.067684426634692
386,26.36621350228644
387,-18.499458909342383
388,0.0
425,0.0
450,0.0
451,0.0
452,-19.362290602256074
453,0.0
490,0.0
515,0.0
516,0.0
542,0.0
592,0.0
632,33000000.0
686,1.0
687,1.0
688,2.0
2,1, 1,21, 0, 9,20.00,30.00,WinterDesignDay
250,-17.090437054989067
251,33258891.428598117
336,0.0
385,19.067684426634692
386,26.36621350228644
387,-18.499459691607772
388,0.0
425,0.0
450,0.0
451,0.0
452,-19.36229071129555
453,0.0
490,0.0
515,0.0
516,0.0
542,0.0
592,0.0
632,33000000.0
686,1.0
687,1.0
688,2.0
2,1, 1,21, 0, 9,30.00,40.00,WinterDesignDay
250,-17.090437055038198
251,33258891.42859777
336,0.0
385,19.067684426634692
386,26.36621350228644
387,-18.499460463673884
388,0.0
425,0.0
450,0.0
451,0.0
452,-19.362290818913188
453,0.0
490,0.0
515,0.0
516,0.0
542,0.0
592,0.0
632,33000000.0
686,1.0
687,1.0
688,2.0
2,1, 1,21, 0, 9,40.00,50.00,WinterDesignDay
250,-17.090437055086674
251,33258891.428597417
336,0.0
385,19.067684426634692
386,26.36621350228644
387,-18.49946122567378
388,0.0
425,0.0
450,0.0
451,0.0
452,-19.362290925127528
453,0.0
490,0.0
515,0.0
516,0.0
542,0.0
592,0.0
632,33000000.0
686,1.0
687,1.0
688,2.0
2,1, 1,21, 0, 9,50.00,60.00,WinterDesignDay
250,-17.090437055134508
251,33258891.42859707
336,0.0
385,19.067684426634692
386,26.36621350228644
387,-18.499461977738854
388,0.0
425,0.0
450,0.0
451,0.0
452,-19.36229102995688
453,0.0
490,0.0
515,0.0
516,0.0
542,0.0
592,0.0
632,33000000.0
686,1.0
687,1.0
688,2.0
2,1, 1,21, 0,10, 0.00,10.00,WinterDesignDay
250,-17.090437055181713
251,33258891.428596735
336,0.0
385,19.067684426634692
386,26.36621350228644
387,-18.499462719998462
388,0.0
425,0.0
450,0.0
451,0.0
452,-19.36229113341929
453,0.0
490,0.0
515,0.0
516,0.0
542,0.0
592,0.0
632,33000000.0
686,1.0
687,1.0
688,2.0
2,1, 1,21, 0,10,10.00,20.00,WinterDesignDay
250,-17.09043705522829
251,33258891.4285964
336,0.0
385,19.067684426634692
386,26.36621350228644
387,-18.49946345258049
388,0.0
425,0.0
450,0.0
451,0.0
452,-19.36229123553259
453,0.0
490,0.0
515,0.0
516,0.0
542,0.0
592,0.0
632,33000000.0
686,1.0
687,1.0
688,2.0
2,1, 1,21, 0,10,20.00,30.00,WinterDesignDay
250,-17.09043705527426
251,33258891.428596076
336,0.0
385,19.067684426634692
386,26.36621350228644
387,-18.4994641756112
388,0.0
425,0.0
450,0.0
451,0.0
452,-19.362291336314374
453,0.0
490,0.0
515,0.0
516,0.0
542,0.0
592,0.0
632,33000000.0
686,1.0
687,1.0
688,2.0
2,1, 1,21, 0,10,30.00,40.00,WinterDesignDay
250,-17.090437055319622
251,33258891.428595744
336,0.0
385,19.067684426634692
386,26.36621350228644
387,-18.499464889215137
388,0.0
425,0.0
450,0.0
451,0.0
452,-19.362291435782005
453,0.0
490,0.0
515,0.0
516,0.0
542,0.0
592,0.0
632,33000000.0
686,1.0
687,1.0
688,2.0
2,1, 1,21, 0,10,40.00,50.00,WinterDesignDay
250,-17.09043705536439
251,33258891.42859543
336,0.0
385,19.067684426634692
386,26.36621350228644
387,-18.499465593514955
388,0.0
425,0.0
450,0.0
451,0.0
452,-19.362291533952618
453,0.0
490,0.0
515,0.0
516,0.0
542,0.0
592,0.0
632,33000000.0
686,1.0
687,1.0
688,2.0
2,1, 1,21, 0,10,50.00,60.00,WinterDesignDay
250,-17.09043705540856
251,33258891.42859511
336,0.0
385,19.067684426634692
386,26.36621350228644
387,-18.49946628863205
388,0.0
425,0.0
450,0.0
451,0.0
452,-19.36229163084313
453,0.0
490,0.0
515,0.0
516,0.0
542,0.0
592,0.0
632,33000000.0
686,1.0
687,1.0
688,2.0
2,1, 1,21, 0,11, 0.00,10.00,WinterDesignDay
250,-17.090437055452146
251,33258891.428594798
336,0.0
385,19.067684426634692
386,26.36621350228644
387,-18.499466974686236
388,0.0
425,0.0
450,0.0
451,0.0
452,-19.36229172647024
453,0.0
490,0.0
515,0.0
516,0.0
542,0.0
592,0.0
632,33000000.0
686,1.0
687,1.0
688,2.0
2,1, 1,21, 0,11,10.00,20.00,WinterDesignDay
250,-17.090437055495165
251,33258891.428594496
336,0.0
385,19.067684426634692
386,26.36621350228644
387,-18.49946765179568
388,0.0
425,0.0
450,0.0
451,0.0
452,-19.362291820850416
453,0.0
490,0.0
515,0.0
516,0.0
542,0.0
592,0.0
632,33000000.0
686,1.0
687,1.0
688,2.0
2,1, 1,21, 0,11,20.00,30.00,WinterDesignDay
250,-17.09043705553761
251,33258891.428594183
336,0.0
385,19.067684426634692
386,26.36621350228644
387,-18.499468320076947
388,0.0
425,0.0
450,0.0
451,0.0
452,-19.36229191399992
453,0.0
490,0.0
515,0.0
516,0.0
542,0.0
592,0.0
632,33000000.0
686,1.0
687,1.0
688,2.0
2,1, 1,21, 0,11,30.00,40.00,WinterDesignDay
250,-17.090437055579503
251,33258891.42859389
336,0.0
385,19.067684426634692
386,26.36621350228644
387,-18.499468979645215
388,0.0
425,0.0
450,0.0
451,0.0
452,-19.362292005934794
453,0.0
490,0.0
515,0.0
516,0.0
542,0.0
592,0.0
632,33000000.0
686,1.0
687,1.0
688,2.0
2,1, 1,21, 0,11,40.00,50.00,WinterDesignDay
250,-17.090437055620843
251,33258891.42859359
336,0.0
385,19.067684426634692
386,26.36621350228644
387,-18.49946963061398
388,0.0
425,0.0
450,0.0
451,0.0
452,-19.362292096670885
453,0.0
490,0.0
515,0.0
516,0.0
542,0.0
592,0.0
632,33000000.0
686,1.0
687,1.0
688,2.0
2,1, 1,21, 0,11,50.00,60.00,WinterDesignDay
250,-17.090437055661635
251,33258891.4285933
336,0.0
385,19.067684426634692
386,26.36621350228644
387,-18.49947027309527
388,0.0
425,0.0
450,0.0
451,0.0
452,-19.362292186223826
453,0.0
490,0.0
515,0.0
516,0.0
542,0.0
592,0.0
632,33000000.0
686,1.0
687,1.0
688,2.0
2,1, 1,21, 0,12, 0.00,10.00,WinterDesignDay
250,-17.09043705570189
251,33258891.428593013
336,0.0
385,19.067684426634692
386,26.36621350228644
387,-18.499470907199832
388,0.0
425,0.0
450,0.0
451,0.0
452,-19.362292274609043
453,0.0
490,0.0
515,0.0
516,0.0
542,0.0
592,0.0
632,33000000.0
686,1.0
687,1.0
688,2.0
2,1, 1,21, 0,12,10.00,20.00,WinterDesignDay
250,-17.090437055741617
251,33258891.428592727
336,0.0
385,19.067684426634692
386,26.36621350228644
387,-18.49947153303698
388,0.0
425,0.0
450,0.0
451,0.0
452,-19.362292361841764
453,0.0
490,0.0
515,0.0
516,0.0
542,0.0
592,0.0
632,33000000.0
686,1.0
687,1.0
688,2.0
2,1, 1,21, 0,12,20.00,30.00,WinterDesignDay
250,-17.09043705578081
251,33258891.428592443
336,0.0
385,19.067684426634692
386,26.36621350228644
387,-18.499472150714457
388,0.0
425,0.0
450,0.0
451,0.0
452,-19.36229244793702
453,0.0
490,0.0
515,0.0
516,0.0
542,0.0
592,0.0
632,33000000.0
686,1.0
687,1.0
688,2.0
2,1, 1,21, 0,12,30.00,40.00,WinterDesignDay
250,-17.0904370558195
251,33258891.428592175
336,0.0
385,19.067684426634692
386,26.36621350228644
387,-18.49947276033869
388,0.0
425,0.0
450,0.0
451,0.0
452,-19.362292532909645
453,0.0
490,0.0
515,0.0
516,0.0
542,0.0
592,0.0
632,33000000.0
686,1.0
687,1.0
688,2.0
2,1, 1,21, 0,12,40.00,50.00,WinterDesignDay
250,-17.090437055857674
251,33258891.428591896
336,0.0
385,19.067684426634692
386,26.36621350228644
387,-18.499473362014836
388,0.0
425,0.0
450,0.0
451,0.0
452,-19.36229261677427
453,0.0
490,0.0
515,0.0
516,0.0
542,0.0
592,0.0
632,33000000.0
686,1.0
687,1.0
688,2.0
2,1, 1,21, 0,12,50.00,60.00,WinterDesignDay
250,-17.090437055895347
251,33258891.428591628
336,0.0
385,19.067684426634692
386,26.36621350228644
387,-18.49947395584625
388,0.0
425,0.0
450,0.0
451,0.0
452,-19.36229269954535
453,0.0
490,0.0
515,0.0
516,0.0
542,0.0
592,0.0
632,33000000.0
686,1.0
687,1.0
688,2.0
2,1, 1,21, 0,13, 0.00,10.00,WinterDesignDay
250,-17.090437055932522
251,33258891.428591356
336,0.0
385,19.067684426634692
386,26.36621350228644
387,-18.499474541935044
388,0.0
425,0.0
450,0.0
451,0.0
452,-19.362292781237148
453,0.0
490,0.0
515,0.0
516,0.0
542,0.0
592,0.0
632,33000000.0
686,1.0
687,1.0
688,2.0
2,1, 1,21, 0,13,10.00,20.00,WinterDesignDay
250,-17.09043705596921
251,33258891.4285911
336,0.0
385,19.067684426634692
386,26.36621350228644
387,-18.49947512038243
388,0.0
425,0.0
450,0.0
451,0.0
452,-19.362292861863736
453,0.0
490,0.0
515,0.0
516,0.0
542,0.0
592,0.0
632,33000000.0
686,1.0
687,1.0
688,2.0
2,1, 1,21, 0,13,20.00,30.00,WinterDesignDay
250,-17.090437056005413
251,33258891.428590838
336,0.0
385,19.067684426634692
386,26.36621350228644
387,-18.499475691288087
388,0.0
425,0.0
450,0.0
451,0.0
452,-19.36229294143901
453,0.0
490,0.0
515,0.0
516,0.0
542,0.0
592,0.0
632,33000000.0
686,1.0
687,1.0
688,2.0
2,1, 1,21, 0,13,30.00,40.00,WinterDesignDay
250,-17.09043705604114
251,33258891.428590585
336,0.0
385,19.067684426634692
386,26.36621350228644
387,-18.49947625475012
388,0.0
425,0.0
450,0.0
451,0.0
452,-19.362293019976672
453,0.0
490,0.0
515,0.0
516,0.0
542,0.0
592,0.0
632,33000000.0
686,1.0
687,1.0
688,2.0
2,1, 1,21, 0,13,40.00,50.00,WinterDesignDay
250,-17.090437056076397
251,33258891.42859033
336,0.0
385,19.067684426634692
386,26.36621350228644
387,-18.49947681086547
388,0.0
425,0.0
450,0.0
451,0.0
452,-19.362293097490248
453,0.0
490,0.0
515,0.0
516,0.0
542,0.0
592,0.0
632,33000000.0
686,1.0
687,1.0
688,2.0
2,1, 1,21, 0,13,50.00,60.00,WinterDesignDay
250,-17.09043705611119
251,33258891.42859008
336,0.0
385,19.067684426634692
386,26.36621350228644
387,-18.49947735973031
388,0.0
425,0.0
450,0.0
451,0.0
452,-19.362293173993102
453,0.0
490,0.0
515,0.0
516,0.0
542,0.0
592,0.0
632,33000000.0
686,1.0
687,1.0
688,2.0
2,1, 1,21, 0,14, 0.00,10.00,WinterDesignDay
250,-17.090437056145525
251,33258891.42858984
336,0.0
385,19.067684426634692
386,26.36621350228644
387,-18.499477901439057
388,0.0
425,0.0
450,0.0
451,0.0
452,-19.36229324949841
453,0.0
490,0.0
515,0.0
516,0.0
542,0.0
592,0.0
632,33000000.0
686,1.0
687,1.0
688,2.0
2,1, 1,21, 0,14,10.00,20.00,WinterDesignDay
250,-17.090437056179404
251,33258891.42858959
336,0.0
385,19.067684426634692
386,26.36621350228644
387,-18.49947843608506
388,0.0
425,0.0
450,0.0
451,0.0
452,-19.36229332401918
453,0.0
490,0.0
515,0.0
516,0.0
542,0.0
592,0.0
632,33000000.0
686,1.0
687,1.0
688,2.0
2,1, 1,21, 0,14,20.00,30.00,WinterDesignDay
250,-17.090437056212842
251,33258891.428589355
336,0.0
385,19.067684426634692
386,26.36621350228644
387,-18.49947896376032
388,0.0
425,0.0
450,0.0
451,0.0
452,-19.362293397568248
453,0.0
490,0.0
515,0.0
516,0.0
542,0.0
592,0.0
632,33000000.0
686,1.0
687,1.0
688,2.0
2,1, 1,21, 0,14,30.00,40.00,WinterDesignDay
250,-17.09043705624584
251,33258891.428589117
336,0.0
385,19.067684426634692
386,26.36621350228644
387,-18.499479484555682
388,0.0
425,0.0
450,0.0
451,0.0
452,-19.36229347015829
453,0.0
490,0.0
515,0.0
516,0.0
542,0.0
592,0.0
632,33000000.0
686,1.0
687,1.0
688,2.0
2,1, 1,21, 0,14,40.00,50.00,WinterDesignDay
250,-17.090437056278404
251,33258891.428588886
336,0.0
385,19.067684426634692
386,26.36621350228644
387,-18.499479998560933
388,0.0
425,0.0
450,0.0
451,0.0
452,-19.362293541801808
453,0.0
490,0.0
515,0.0
516,0.0
542,0.0
592,0.0
632,33000000.0
686,1.0
687,1.0
688,2.0
2,1, 1,21, 0,14,50.00,60.00,WinterDesignDay
250,-17.090437056310538
251,33258891.42858866
336,0.0
385,19.067684426634692
386,26.36621350228644
387,-18.499480505864412
388,0.0
425,0.0
450,0.0
451,0.0
452,-19.36229361251115
453,0.0
490,0.0
515,0.0
516,0.0
542,0.0
592,0.0
632,33000000.0
686,1.0
687,1.0
688,2.0
2,1, 1,21, 0,15, 0.00,10.00,WinterDesignDay
250,-17.09043705634225
251,33258891.428588428
336,0.0
385,19.067684426634692
386,26.36621350228644
387,-18.49948100655355
388,0.0
425,0.0
450,0.0
451,0.0
452,-19.36229368229849
453,0.0
490,0.0
515,0.0
516,0.0
542,0.0
592,0.0
632,33000000.0
686,1.0
687,1.0
688,2.0
2,1, 1,21, 0,15,10.00,20.00,WinterDesignDay
250,-17.09043705637355
251,33258891.42858821
336,0.0
385,19.067684426634692
386,26.36621350228644
387,-18.499481500714616
388,0.0
425,0.0
450,0.0
451,0.0
452,-19.362293751175855
453,0.0
490,0.0
515,0.0
516,0.0
542,0.0
592,0.0
632,33000000.0
686,1.0
687,1.0
688,2.0
2,1, 1,21, 0,15,20.00,30.00,WinterDesignDay
250,-17.09043705640443
251,33258891.428587984
336,0.0
385,19.067684426634692
386,26.36621350228644
387,-18.499481988432827
388,0.0
425,0.0
450,0.0
451,0.0
452,-19.362293819155113
453,0.0
490,0.0
515,0.0
516,0.0
542,0.0
592,0.0
632,33000000.0
686,1.0
687,1.0
688,2.0
2,1, 1,21, 0,15,30.00,40.00,WinterDesignDay
250,-17.090437056434908
251,33258891.428587772
336,0.0
385,19.067684426634692
386,26.36621350228644
387,-18.49948246979226
388,0.0
425,0.0
450,0.0
451,0.0
452,-19.362293886247976
453,0.0
490,0.0
515,0.0
516,0.0
542,0.0
592,0.0
632,33000000.0
686,1.0
687,1.0
688,2.0
2,1, 1,21, 0,15,40.00,50.00,WinterDesignDay
250,-17.09043705646498
251,33258891.428587556
336,0.0
385,19.067684426634692
386,26.36621350228644
387,-18.49948294487578
388,0.0
425,0.0
450,0.0
451,0.0
452,-19.362293952465997
453,0.0
490,0.0
515,0.0
516,0.0
542,0.0
592,0.0
632,33000000.0
686,1.0
687,1.0
688,2.0