Program Version,EnergyPlus, Version 24.1.0-9d7789a3ac, YMD=2024.07.03 09:44
1,5,Environment Title[],Latitude[deg],Longitude[deg],Time Zone[],Elevation[m]
2,8,Day of Simulation[],Month[],Day of Month[],DST Indicator[1=yes 0=no],Hour[],StartMinute[],EndMinute[],DayType
3,5,Cumulative Day of Simulation[],Month[],Day of Month[],DST Indicator[1=yes 0=no],DayType  ! When Daily Report Variables Requested
4,2,Cumulative Days of Simulation[],Month[]  ! When Monthly Report Variables Requested
5,1,Cumulative Days of Simulation[] ! When Run Period Report Variables Requested
6,1,Calendar Year of Simulation[] ! When Annual Report Variables Requested
250,1,LIVING ZONE,Zone Air Temperature [C] !TimeStep,REPORTSCH
251,1,LIVING ZONE,Zone Air System Sensible Heating Energy [J] !TimeStep,REPORTSCH
336,1,LIVING ZONE,Zone Air System Sensible Cooling Energy [J] !TimeStep,REPORTSCH
385,1,LIVING ZONE,Zone Thermostat Heating Setpoint Temperature [C] !TimeStep,REPORTSCH
386,1,LIVING ZONE,Zone Thermostat Cooling Setpoint Temperature [C] !TimeStep,REPORTSCH
387,1,GARAGE ZONE,Zone Air Temperature [C] !TimeStep,REPORTSCH
388,1,GARAGE ZONE,Zone Air System Sensible Heating Energy [J] !TimeStep,REPORTSCH
425,1,GARAGE ZONE,Zone Air System Sensible Cooling Energy [J] !TimeStep,REPORTSCH
450,1,GARAGE ZONE,Zone Thermostat Heating Setpoint Temperature [C] !TimeStep,REPORTSCH
451,1,GARAGE ZONE,Zone Thermostat Cooling Setpoint Temperature [C] !TimeStep,REPORTSCH
452,1,ATTIC ZONE,Zone Air Temperature [C] !TimeStep,REPORTSCH
453,1,ATTIC ZONE,Zone Air System Sensible Heating Energy [J] !TimeStep,REPORTSCH
490,1,ATTIC ZONE,Zone Air System Sensible Cooling Energy [J] !TimeStep,REPORTSCH
515,1,ATTIC ZONE,Zone Thermostat Heating Setpoint Temperature [C] !TimeStep,REPORTSCH
516,1,ATTIC ZONE,Zone Thermostat Cooling Setpoint Temperature [C] !TimeStep,REPORTSCH
542,1,ACDXCOIL 1,Cooling Coil Total Cooling Energy [J] !TimeStep,REPORTSCH
592,1,HEAT PUMP DX HEATING COIL 1,Heating Coil Heating Energy [J] !TimeStep,REPORTSCH
632,1,SUPP HEATING COIL 1,Heating Coil Heating Energy [J] !TimeStep,REPORTSCH
686,1,TWOSPEED HEAT PUMP 1,Unitary System DX Coil Cycling Ratio [] !TimeStep,REPORTSCH
687,1,TWOSPEED HEAT PUMP 1,Unitary System DX Coil Speed Ratio [] !TimeStep,REPORTSCH
688,1,TWOSPEED HEAT PUMP 1,Unitary System DX Coil Speed Level [] !TimeStep
End of Data Dictionary
1,CHICAGO_IL_USA ANNUAL HEATING 99% DESIGN CONDITIONS DB,  41.98, -87.92,  -6.00, 201.00
2,1, 1,21, 0, 1, 0.00,10.00,WinterDesignDay
250,17.005341896381207
251,4247986.324390385
336,0.0
385,16.90362617085404
386,25.46747701988673
387,-17.69193380024456
388,0.0
425,0.0
450,0.0
451,0.0
452,-18.393064434642728
453,0.0
490,0.0
515,0.0
516,0.0
542,0.0
592,0.0
632,4200729.52043965
686,0.6666666666666666
687,0.6666666666666666
688,1.3333333333333333
2,1, 1,21, 0, 1,10.00,20.00,WinterDesignDay
250,16.59168399298844
251,4175593.0257264622
336,0.0
385,16.370292837520704
386,25.467477019886733
387,-17.691934443392924
388,0.0
425,0.0
450,0.0
451,0.0
452,-18.39311588994078
453,0.0
490,0.0
515,0.0
516,0.0
542,0.0
592,0.0
632,4180770.7482904675
686,0.6000000000000001
687,0.6000000000000001
688,1.2000000000000002
2,1, 1,21, 0, 1,20.00,30.00,WinterDesignDay
250,16.857500868411723
251,5801990.23656999
336,0.0
385,16.90362617085403
386,25.46747701988672
387,-17.691911397842773
388,0.0
425,0.0
450,0.0
451,0.0
452,-18.39308702745651
453,0.0
490,0.0
515,0.0
516,0.0
542,0.0
592,0.0
632,5712539.990798823
686,0.9999999999999996
687,0.9999999999999996
688,1.9999999999999991
2,1, 1,21, 0, 1,30.00,40.00,WinterDesignDay
250,17.005341893478416
251,4247986.347192125
336,0.0
385,16.903626170854043
386,25.46747701988674
387,-17.691937296028918
388,0.0
425,0.0
450,0.0
451,0.0
452,-18.393064815347234
453,0.0
490,0.0
515,0.0
516,0.0
542,0.0
592,0.0
632,4200729.543265865
686,0.6666666666666667
687,0.6666666666666667
688,1.3333333333333335
2,1, 1,21, 0, 1,40.00,50.00,WinterDesignDay
250,16.591683990094626
251,4175593.0509523493
336,0.0
385,16.370292837520704
386,25.467477019886733
387,-17.69193789971869
388,0.0
425,0.0
450,0.0
451,0.0
452,-18.39311626621129
453,0.0
490,0.0
515,0.0
516,0.0
542,0.0
592,0.0
632,4180770.7743925825
686,0.6000000000000001
687,0.6000000000000001
688,1.2000000000000002
2,1, 1,21, 0, 1,50.00,60.00,WinterDesignDay
250,16.857500868284593
251,5801990.270150234
336,0.0
385,16.90362617085405
386,25.46747701988675
387,-17.691914812694254
388,0.0
425,0.0
450,0.0
451,0.0
452,-18.393087399165406
453,0.0
490,0.0
515,0.0
516,0.0
542,0.0
592,0.0
632,5712540.024898148
686,1.0000000000000009
687,1.0000000000000009
688,2.0000000000000018
2,1, 1,21, 0, 2, 0.00,10.00,WinterDesignDay
250,17.005341890689685
251,4247986.36909783
336,0.0
385,16.90362617085404
386,25.46747701988673
387,-17.69194065450283
388,0.0
425,0.0
450,0.0
451,0.0
452,-18.393065181091504
453,0.0
490,0.0
515,0.0
516,0.0
542,0.0
592,0.0
632,4200729.565195081
686,0.6666666666666666
687,0.6666666666666666
688,1.3333333333333333
2,1, 1,21, 0, 2,10.00,20.00,WinterDesignDay
250,16.591683987314532
251,4175593.0751869716
336,0.0
385,16.370292837520704
386,25.467477019886733
387,-17.69194122028388
388,0.0
425,0.0
450,0.0
451,0.0
452,-18.393116627695875
453,0.0
490,0.0
515,0.0
516,0.0
542,0.0
592,0.0
632,4180770.7994689946
686,0.6000000000000001
687,0.6000000000000001
688,1.2000000000000002
2,1, 1,21, 0, 2,20.00,30.00,WinterDesignDay
250,16.85750086816242
251,5801990.302410876
336,0.0
385,16.90362617085403
386,25.46747701988672
387,-17.69191809341422
388,0.0
425,0.0
450,0.0
451,0.0
452,-18.39308775626767
453,0.0
490,0.0
515,0.0
516,0.0
542,0.0
592,0.0
632,5712540.057657473
686,0.9999999999999996
687,0.9999999999999996
688,1.9999999999999991
2,1, 1,21, 0, 2,30.00,40.00,WinterDesignDay
250,17.005341888010545
251,4247986.390142741
336,0.0
385,16.903626170854043
386,25.46747701988674
387,-17.69194388105939
388,0.0
425,0.0
450,0.0
451,0.0
452,-18.393065532463655
453,0.0
490,0.0
515,0.0
516,0.0
542,0.0
592,0.0
632,4200729.586262578
686,0.6666666666666667
687,0.6666666666666667
688,1.3333333333333335
2,1, 1,21, 0, 2,40.00,50.00,WinterDesignDay
250,16.59168398464368
251,4175593.098469262
336,0.0
385,16.370292837520704
386,25.467477019886733
387,-17.691944410420653
388,0.0
425,0.0
450,0.0
451,0.0
452,-18.393116974975797
453,0.0
490,0.0
515,0.0
516,0.0
542,0.0
592,0.0
632,4180770.823560001
686,0.6000000000000001
687,0.6000000000000001
688,1.2000000000000002
2,1, 1,21, 0, 2,50.00,60.00,WinterDesignDay
250,16.857500868045086
251,5801990.333403896
336,0.0
385,16.90362617085405
386,25.46747701988675
387,-17.691921245270912
388,0.0
425,0.0
450,0.0
451,0.0
452,-18.393088099337568
453,0.0
490,0.0
515,0.0
516,0.0
542,0.0
592,0.0
632,5712540.089129581
686,1.0000000000000009
687,1.0000000000000009
688,2.0000000000000018
2,1, 1,21, 0, 3, 0.00,10.00,WinterDesignDay
250,17.005341885436664
251,4247986.410360749
336,0.0
385,16.90362617085404
386,25.46747701988673
387,-17.691946980880314
388,0.0
425,0.0
450,0.0
451,0.0
452,-18.393065870028618
453,0.0
490,0.0
515,0.0
516,0.0
542,0.0
592,0.0
632,4200729.606502289
686,0.6666666666666666
687,0.6666666666666666
688,1.3333333333333333
2,1, 1,21, 0, 3,10.00,20.00,WinterDesignDay
250,16.591683982077775
251,4175593.120836749
336,0.0
385,16.370292837520704
386,25.467477019886733
387,-17.69194747525223
388,0.0
425,0.0
450,0.0
451,0.0
452,-18.393117308609376
453,0.0
490,0.0
515,0.0
516,0.0
542,0.0
592,0.0
632,4180770.8467044267
686,0.6000000000000001
687,0.6000000000000001
688,1.2000000000000002
2,1, 1,21, 0, 3,20.00,30.00,WinterDesignDay
250,16.85750086793232
251,5801990.363179043
336,0.0
385,16.90362617085403
386,25.46747701988672
387,-17.691924273325668
388,0.0
425,0.0
450,0.0
451,0.0
452,-18.39308842892659
453,0.0
490,0.0
515,0.0
516,0.0
542,0.0
592,0.0
632,5712540.119364991
686,0.9999999999999996
687,0.9999999999999996
688,1.9999999999999991
2,1, 1,21, 0, 3,30.00,40.00,WinterDesignDay
250,17.00534188296394
251,4247986.429784281
336,0.0
385,16.903626170854043
386,25.46747701988674
387,-17.691949958942978
388,0.0
425,0.0
450,0.0
451,0.0
452,-18.393066194329155
453,0.0
490,0.0
515,0.0
516,0.0
542,0.0
592,0.0
632,4200729.62594667
686,0.6666666666666667
687,0.6666666666666667
688,1.3333333333333335
2,1, 1,21, 0, 3,40.00,50.00,WinterDesignDay
250,16.591683979612696
251,4175593.142325305
336,0.0
385,16.370292837520704
386,25.467477019886733
387,-17.69195041969989
388,0.0
425,0.0
450,0.0
451,0.0
452,-18.393117629133062
453,0.0
490,0.0
515,0.0
516,0.0
542,0.0
592,0.0
632,4180770.86893939
686,0.6000000000000001
687,0.6000000000000001
688,1.2000000000000002
2,1, 1,21, 0, 3,50.00,60.00,WinterDesignDay
250,16.85750086782403
251,5801990.391784225
336,0.0
385,16.90362617085405
386,25.46747701988675
387,-17.6919271824409
388,0.0
425,0.0
450,0.0
451,0.0
452,-18.39308874556473
453,0.0
490,0.0
515,0.0
516,0.0
542,0.0
592,0.0
632,5712540.148412345
686,1.0000000000000009
687,1.0000000000000009
688,2.0000000000000018
2,1, 1,21, 0, 4, 0.00,10.00,WinterDesignDay
250,17.005341880588357
251,4247986.448444666
336,0.0
385,16.90362617085404
386,25.46747701988673
387,-17.69195282002945
388,0.0
425,0.0
450,0.0
451,0.0
452,-18.393066505886623
453,0.0
490,0.0
515,0.0
516,0.0
542,0.0
592,0.0
632,4200729.644627083
686,0.6666666666666666
687,0.6666666666666666
688,1.3333333333333333
2,1, 1,21, 0, 4,10.00,20.00,WinterDesignDay
250,16.59168397724448
251,4175593.162969525
336,0.0
385,16.370292837520704
386,25.467477019886733
387,-17.69195324849168
388,0.0
425,0.0
450,0.0
451,0.0
452,-18.393117937062144
453,0.0
490,0.0
515,0.0
516,0.0
542,0.0
592,0.0
632,4180770.8903006893
686,0.6000000000000001
687,0.6000000000000001
688,1.2000000000000002
2,1, 1,21, 0, 4,20.00,30.00,WinterDesignDay
250,16.85750086771995
251,5801990.419265434
336,0.0
385,16.90362617085403
386,25.46747701988672
387,-17.69192997728832
388,0.0
425,0.0
450,0.0
451,0.0
452,-18.393089049760952
453,0.0
490,0.0
515,0.0
516,0.0
542,0.0
592,0.0
632,5712540.176318359
686,0.9999999999999996
687,0.9999999999999996
688,1.9999999999999991
2,1, 1,21, 0, 4,30.00,40.00,WinterDesignDay
250,17.005341878306137
251,4247986.466371751
336,0.0
385,16.903626170854043
386,25.46747701988674
387,-17.691955568735057
388,0.0
425,0.0
450,0.0
451,0.0
452,-18.393066805201897
453,0.0
490,0.0
515,0.0
516,0.0
542,0.0
592,0.0
632,4200729.662573411
686,0.6666666666666667
687,0.6666666666666667
688,1.3333333333333335
2,1, 1,21, 0, 4,40.00,50.00,WinterDesignDay
250,16.591683974969314
251,4175593.1828025808
336,0.0
385,16.370292837520704
386,25.467477019886733
387,-17.691955966170937
388,0.0
425,0.0
450,0.0
451,0.0
452,-18.393118232891638
453,0.0
490,0.0
515,0.0
516,0.0
542,0.0
592,0.0
632,4180770.91082265
686,0.6000000000000001
687,0.6000000000000001
688,1.2000000000000002
2,1, 1,21, 0, 4,50.00,60.00,WinterDesignDay
250,16.85750086762
251,5801990.445666903
336,0.0
385,16.90362617085405
386,25.46747701988675
387,-17.691932662356283
388,0.0
425,0.0
450,0.0
451,0.0
452,-18.39308934200435
453,0.0
490,0.0
515,0.0
516,0.0
542,0.0
592,0.0
632,5712540.203127937
686,1.0000000000000009
687,1.0000000000000009
688,2.0000000000000018
2,1, 1,21, 0, 5, 0.00,10.00,WinterDesignDay
250,17.005341876113572
251,4247986.4835945
336,0.0
385,16.90362617085404
386,25.46747701988673
387,-17.691958209473064
388,0.0
425,0.0
450,0.0
451,0.0
452,-18.39306709275617
453,0.0
490,0.0
515,0.0
516,0.0
542,0.0
592,0.0
632,4200729.679814646
686,0.6666666666666666
687,0.6666666666666666
688,1.3333333333333333
2,1, 1,21, 0, 5,10.00,20.00,WinterDesignDay
250,16.591683972783546
251,4175593.2018563515
336,0.0
385,16.370292837520704
386,25.467477019886733
387,-17.691958577101307
388,0.0
425,0.0
450,0.0
451,0.0
452,-18.39311851709715
453,0.0
490,0.0
515,0.0
516,0.0
542,0.0
592,0.0
632,4180770.9305382567
686,0.6000000000000001
687,0.6000000000000001
688,1.2000000000000002
2,1, 1,21, 0, 5,20.00,30.00,WinterDesignDay
250,16.857500867523942
251,5801990.471030992
336,0.0
385,16.90362617085403
386,25.46747701988672
387,-17.69193524195614
388,0.0
425,0.0
450,0.0
451,0.0
452,-18.393089622764688
453,0.0
490,0.0
515,0.0
516,0.0
542,0.0
592,0.0
632,5712540.228884103
686,0.9999999999999996
687,0.9999999999999996
688,1.9999999999999991
2,1, 1,21, 0, 5,30.00,40.00,WinterDesignDay
250,17.005341874007172
251,4247986.500140525
336,0.0
385,16.903626170854043
386,25.46747701988674
387,-17.691960746484206
388,0.0
425,0.0
450,0.0
451,0.0
452,-18.3930673690117
453,0.0
490,0.0
515,0.0
516,0.0
542,0.0
592,0.0
632,4200729.69637843
686,0.6666666666666667
687,0.6666666666666667
688,1.3333333333333335
2,1, 1,21, 0, 5,40.00,50.00,WinterDesignDay
250,16.591683970683658
251,4175593.220161444
336,0.0
385,16.370292837520704
386,25.467477019886733
387,-17.691961085475477
388,0.0
425,0.0
450,0.0
451,0.0
452,-18.393118790135524
453,0.0
490,0.0
515,0.0
516,0.0
542,0.0
592,0.0
632,4180770.949479178
686,0.6000000000000001
687,0.6000000000000001
688,1.2000000000000002
2,1, 1,21, 0, 5,50.00,60.00,WinterDesignDay
250,16.857500867431696
251,5801990.495398441
336,0.0
385,16.90362617085405
386,25.46747701988675
387,-17.691937720230385
388,0.0
425,0.0
450,0.0
451,0.0
452,-18.393089892493332
453,0.0
490,0.0
515,0.0
516,0.0
542,0.0
592,0.0
632,5712540.253628221
686,1.0000000000000009
687,1.0000000000000009
688,2.0000000000000018
2,1, 1,21, 0, 6, 0.00,10.00,WinterDesignDay
250,17.005341871983514
251,4247986.516036476
336,0.0
385,16.90362617085404
386,25.46747701988673
387,-17.691963183842486
388,0.0
425,0.0
450,0.0
451,0.0
452,-18.39306763441253
453,0.0
490,0.0
515,0.0
516,0.0
542,0.0
592,0.0
632,4200729.712291442
686,0.6666666666666666
687,0.6666666666666666
688,1.3333333333333333
2,1, 1,21, 0, 6,10.00,20.00,WinterDesignDay
250,16.591683968666274
251,4175593.2377473796
336,0.0
385,16.370292837520704
386,25.467477019886733
387,-17.691963495321694
388,0.0
425,0.0
450,0.0
451,0.0
452,-18.393119052445655
453,0.0
490,0.0
515,0.0
516,0.0
542,0.0
592,0.0
632,4180770.967675964
686,0.6000000000000001
687,0.6000000000000001
688,1.2000000000000002
2,1, 1,21, 0, 6,20.00,30.00,WinterDesignDay
250,16.85750086734303
251,5801990.518808493
336,0.0
385,16.90362617085403
386,25.46747701988672
387,-17.691940101159123
388,0.0
425,0.0
450,0.0
451,0.0
452,-18.393090151623774
453,0.0
490,0.0
515,0.0
516,0.0
542,0.0
592,0.0
632,5712540.277400143
686,0.9999999999999996
687,0.9999999999999996
688,1.9999999999999991
2,1, 1,21, 0, 6,30.00,40.00,WinterDesignDay
250,17.00534187003939
251,4247986.531307815
336,0.0
385,16.903626170854043
386,25.46747701988674
387,-17.69196552546248
388,0.0
425,0.0
450,0.0
451,0.0
452,-18.39306788938532
453,0.0
490,0.0
515,0.0
516,0.0
542,0.0
592,0.0
632,4200729.727579171
686,0.6666666666666667
687,0.6666666666666667
688,1.3333333333333335
2,1, 1,21, 0, 6,40.00,50.00,WinterDesignDay
250,16.59168396672816
251,4175593.254642295
336,0.0
385,16.370292837520704
386,25.467477019886733
387,-17.69196581051028
388,0.0
425,0.0
450,0.0
451,0.0
452,-18.39311930444921
453,0.0
490,0.0
515,0.0
516,0.0
542,0.0
592,0.0
632,4180770.9851577273
686,0.6000000000000001
687,0.6000000000000001
688,1.2000000000000002
2,1, 1,21, 0, 6,50.00,60.00,WinterDesignDay
250,16.857500867257894
251,5801990.541298757
336,0.0
385,16.90362617085405
386,25.46747701988675
387,-17.691942388566165
388,0.0
425,0.0
450,0.0
451,0.0
452,-18.39309040057265
453,0.0
490,0.0
515,0.0
516,0.0
542,0.0
592,0.0
632,5712540.30023806
686,1.0000000000000009
687,1.0000000000000009
688,2.0000000000000018
2,1, 1,21, 0, 7, 0.00,10.00,WinterDesignDay
250,17.005341868171634
251,4247986.545979163
336,0.0
385,16.90362617085404
386,25.46747701988673
387,-17.691967775104825
388,0.0
425,0.0
450,0.0
451,0.0
452,-18.393068134339885
453,0.0
490,0.0
515,0.0
516,0.0
542,0.0
592,0.0
632,4200729.742266268
686,0.6666666666666666
687,0.6666666666666666
688,1.3333333333333333
2,1, 1,21, 0, 7,10.00,20.00,WinterDesignDay
250,16.591683964866185
251,4175593.27087343
336,0.0
385,16.370292837520704
386,25.467477019886733
387,-17.691968034759093
388,0.0
425,0.0
450,0.0
451,0.0
452,-18.393119546551237
453,0.0
490,0.0
515,0.0
516,0.0
542,0.0
592,0.0
632,4180771.0019526524
686,0.6000000000000001
687,0.6000000000000001
688,1.2000000000000002
2,1, 1,21, 0, 7,20.00,30.00,WinterDesignDay
250,16.85750086717606
251,5801990.5629053125
336,0.0
385,16.90362617085403
386,25.46747701988672
387,-17.69194458612448
388,0.0
425,0.0
450,0.0
451,0.0
452,-18.393090639740013
453,0.0
490,0.0
515,0.0
516,0.0
542,0.0
592,0.0
632,5712540.322178608
686,0.9999999999999996
687,0.9999999999999996
688,1.9999999999999991
2,1, 1,21, 0, 7,30.00,40.00,WinterDesignDay
250,17.00534186637728
251,4247986.560074065
336,0.0
385,16.903626170854043
386,25.46747701988674
387,-17.69196993638175
388,0.0
425,0.0
450,0.0
451,0.0
452,-18.39306836966996
453,0.0
490,0.0
515,0.0
516,0.0
542,0.0
592,0.0
632,4200729.7563763
686,0.6666666666666667
687,0.6666666666666667
688,1.3333333333333335
2,1, 1,21, 0, 7,40.00,50.00,WinterDesignDay
250,16.591683963077383
251,4175593.2864667843
336,0.0
385,16.370292837520704
386,25.467477019886733
387,-17.69197017163981
388,0.0
425,0.0
450,0.0
451,0.0
452,-18.39311977914087
453,0.0
490,0.0
515,0.0
516,0.0
542,0.0
592,0.0
632,4180771.018087645
686,0.6000000000000001
687,0.6000000000000001
688,1.2000000000000002
2,1, 1,21, 0, 7,50.00,60.00,WinterDesignDay
250,16.857500867097485
251,5801990.583662955
336,0.0
385,16.90362617085405
386,25.46747701988675
387,-17.691946697362617
388,0.0
425,0.0
450,0.0
451,0.0
452,-18.393090869510353
453,0.0
490,0.0
515,0.0
516,0.0
542,0.0
592,0.0
632,5712540.343257121
686,1.0000000000000009
687,1.0000000000000009
688,2.0000000000000018
2,1, 1,21, 0, 8, 0.00,10.00,WinterDesignDay
250,17.005341864653417
251,4247986.573615101
336,0.0
385,16.90362617085404
386,25.46747701988673
387,-17.69197201276311
388,0.0
425,0.0
450,0.0
451,0.0
452,-18.39306859575376
453,0.0
490,0.0
515,0.0
516,0.0
542,0.0
592,0.0
632,4200729.769931868
686,0.6666666666666666
687,0.6666666666666666
688,1.3333333333333333
2,1, 1,21, 0, 8,10.00,20.00,WinterDesignDay
250,16.59168396135886
251,4175593.301447477
336,0.0
385,16.370292837520704
386,25.467477019886733
387,-17.69197222458375
388,0.0
425,0.0
450,0.0
451,0.0
452,-18.393120002591942
453,0.0
490,0.0
515,0.0
516,0.0
542,0.0
592,0.0
632,4180771.033588693
686,0.6000000000000001
687,0.6000000000000001
688,1.2000000000000002
2,1, 1,21, 0, 8,20.00,30.00,WinterDesignDay
250,16.85750086702195
251,5801990.603605103
336,0.0
385,16.90362617085403
386,25.46747701988672
387,-17.69194872567163
388,0.0
425,0.0
450,0.0
451,0.0
452,-18.393091090252888
453,0.0
490,0.0
515,0.0
516,0.0
542,0.0
592,0.0
632,5712540.36350753
686,0.9999999999999996
687,0.9999999999999996
688,1.9999999999999991
2,1, 1,21, 0, 8,30.00,40.00,WinterDesignDay
250,17.00534186299729
251,4247986.586624177
336,0.0
385,16.903626170854043
386,25.46747701988674
387,-17.691974007584754
388,0.0
425,0.0
450,0.0
451,0.0
452,-18.393068812954677
453,0.0
490,0.0
515,0.0
516,0.0
542,0.0
592,0.0
632,4200729.782954907
686,0.6666666666666667
687,0.6666666666666667
688,1.3333333333333335
2,1, 1,21, 0, 8,40.00,50.00,WinterDesignDay
250,16.59168395970785
251,4175593.315839656
336,0.0
385,16.370292837520704
386,25.467477019886733
387,-17.69197419688826
388,0.0
425,0.0
450,0.0
451,0.0
452,-18.393120217263572
453,0.0
490,0.0
515,0.0
516,0.0
542,0.0
592,0.0
632,4180771.0484807855
686,0.6000000000000001
687,0.6000000000000001
688,1.2000000000000002
2,1, 1,21, 0, 8,50.00,60.00,WinterDesignDay
250,16.85750086694943
251,5801990.622763731
336,0.0
385,16.90362617085405
386,25.46747701988675
387,-17.69195067430885
388,0.0
425,0.0
450,0.0
451,0.0
452,-18.393091302322464
453,0.0
490,0.0
515,0.0
516,0.0
542,0.0
592,0.0
632,5712540.382962309
686,1.0000000000000009
687,1.0000000000000009
688,2.0000000000000018
2,1, 1,21, 0, 9, 0.00,10.00,WinterDesignDay
250,17.00534186140622
251,4247986.599122177
336,0.0
385,16.90362617085404
386,25.46747701988673
387,-17.691975924050233
388,0.0
425,0.0
450,0.0
451,0.0
452,-18.39306902162176
453,0.0
490,0.0
515,0.0
516,0.0
542,0.0
592,0.0
632,4200729.795466322
686,0.6666666666666666
687,0.6666666666666666
688,1.3333333333333333
2,1, 1,21, 0, 9,10.00,20.00,WinterDesignDay
250,16.59168395812171
251,4175593.329666359
336,0.0
385,16.370292837520704
386,25.467477019886733
387,-17.691976091721273
388,0.0
425,0.0
450,0.0
451,0.0
452,-18.3931204235008
453,0.0
490,0.0
515,0.0
516,0.0
542,0.0
592,0.0
632,4180771.062787762
686,0.6000000000000001
687,0.6000000000000001
688,1.2000000000000002
2,1, 1,21, 0, 9,20.00,30.00,WinterDesignDay
250,16.857500866879715
251,5801990.64116955
336,0.0
385,16.90362617085403
386,25.46747701988672
387,-17.691952546404274
388,0.0
425,0.0
450,0.0
451,0.0
452,-18.393091506059864
453,0.0
490,0.0
515,0.0
516,0.0
542,0.0
592,0.0
632,5712540.401652643
686,0.9999999999999996
687,0.9999999999999996
688,1.9999999999999991
2,1, 1,21, 0, 9,30.00,40.00,WinterDesignDay
250,17.00534185987768
251,4247986.611129042
336,0.0
385,16.903626170854043
386,25.46747701988674
387,-17.691977765237432
388,0.0
425,0.0
450,0.0
451,0.0
452,-18.393069222090446
453,0.0
490,0.0
515,0.0
516,0.0
542,0.0
592,0.0
632,4200729.807486074
686,0.6666666666666667
687,0.6666666666666667
688,1.3333333333333335
2,1, 1,21, 0, 9,40.00,50.00,WinterDesignDay
250,16.59168395659789
251,4175593.3429497825
336,0.0
385,16.370292837520704
386,25.467477019886733
387,-17.69197791212514
388,0.0
425,0.0
450,0.0
451,0.0
452,-18.393120621635106
453,0.0
490,0.0
515,0.0
516,0.0
542,0.0
592,0.0
632,4180771.0765325855
686,0.6000000000000001
687,0.6000000000000001
688,1.2000000000000002
2,1, 1,21, 0, 9,50.00,60.00,WinterDesignDay
250,16.857500866812778
251,5801990.658852276
336,0.0
385,16.90362617085405
386,25.46747701988675
387,-17.69195434496337
388,0.0
425,0.0
450,0.0
451,0.0
452,-18.393091701792617
453,0.0
490,0.0
515,0.0
516,0.0
542,0.0
592,0.0
632,5712540.41960871
686,1.0000000000000009
687,1.0000000000000009
688,2.0000000000000018
2,1, 1,21, 0,10, 0.00,10.00,WinterDesignDay
250,17.005341858409174
251,4247986.622664278
336,0.0
385,16.90362617085404
386,25.46747701988673
387,-17.691979534102007
388,0.0
425,0.0
450,0.0
451,0.0
452,-18.39306941468287
453,0.0
490,0.0
515,0.0
516,0.0
542,0.0
592,0.0
632,4200729.819033693
686,0.6666666666666666
687,0.6666666666666666
688,1.3333333333333333
2,1, 1,21, 0,10,10.00,20.00,WinterDesignDay
250,16.591683955133938
251,4175593.3557113707
336,0.0
385,16.370292837520704
386,25.467477019886733
387,-17.691979661022867
388,0.0
425,0.0
450,0.0
451,0.0
452,-18.39312081198487
453,0.0
490,0.0
515,0.0
516,0.0
542,0.0
592,0.0
632,4180771.08973745
686,0.6000000000000001
687,0.6000000000000001
688,1.2000000000000002
2,1, 1,21, 0,10,20.00,30.00,WinterDesignDay
250,16.857500866748435
251,5801990.675840313
336,0.0
385,16.90362617085403
386,25.46747701988672
387,-17.691956072874373
388,0.0
425,0.0
450,0.0
451,0.0
452,-18.393091889835162
453,0.0
490,0.0
515,0.0
516,0.0
542,0.0
592,0.0
632,5712540.436859341
686,0.9999999999999996
687,0.9999999999999996
688,1.9999999999999991
2,1, 1,21, 0,10,30.00,40.00,WinterDesignDay
250,17.005341856998378
251,4247986.633746268
336,0.0
385,16.903626170854043
386,25.46747701988674
387,-17.691981233485322
388,0.0
425,0.0
450,0.0
451,0.0
452,-18.393069599708532
453,0.0
490,0.0
515,0.0
516,0.0
542,0.0
592,0.0
632,4200729.830127576
686,0.6666666666666667
687,0.6666666666666667
688,1.3333333333333335
2,1, 1,21, 0,10,40.00,50.00,WinterDesignDay
250,16.5916839537275
251,4175593.367971522
336,0.0
385,16.370292837520704
386,25.467477019886733
387,-17.691981341224007
388,0.0
425,0.0
450,0.0
451,0.0
452,-18.393120994855998
453,0.0
490,0.0
515,0.0
516,0.0
542,0.0
592,0.0
632,4180771.102423457
686,0.6000000000000001
687,0.6000000000000001
688,1.2000000000000002
2,1, 1,21, 0,10,50.00,60.00,WinterDesignDay
250,16.85750086668666
251,5801990.692160844
336,0.0
385,16.90362617085405
386,25.46747701988675
387,-17.69195773291318
388,0.0
425,0.0
450,0.0
451,0.0
452,-18.39309207048977
453,0.0
490,0.0
515,0.0
516,0.0
542,0.0
592,0.0
632,5712540.453432152
686,1.0000000000000009
687,1.0000000000000009
688,2.0000000000000018
2,1, 1,21, 0,11, 0.00,10.00,WinterDesignDay
250,17.005341855643
251,4247986.644392848
336,0.0
385,16.90362617085404
386,25.46747701988673
387,-17.691982866116597
388,0.0
425,0.0
450,0.0
451,0.0
452,-18.393069777464767
453,0.0
490,0.0
515,0.0
516,0.0
542,0.0
592,0.0
632,4200729.840785585
686,0.6666666666666666
687,0.6666666666666666
688,1.3333333333333333
2,1, 1,21, 0,11,10.00,20.00,WinterDesignDay
250,16.59168395237632
251,4175593.3797500026
336,0.0
385,16.370292837520704
386,25.467477019886733
387,-17.69198295542644
388,0.0
425,0.0
450,0.0
451,0.0
452,-18.393121170542386
453,0.0
490,0.0
515,0.0
516,0.0
542,0.0
592,0.0
632,4180771.1146110664
686,0.6000000000000001
687,0.6000000000000001
688,1.2000000000000002
2,1, 1,21, 0,11,20.00,30.00,WinterDesignDay
250,16.85750086662727
251,5801990.7078402145
336,0.0
385,16.90362617085403
386,25.46747701988672
387,-17.691959327745096
388,0.0
425,0.0
450,0.0
451,0.0
452,-18.39309224404671
453,0.0
490,0.0
515,0.0
516,0.0
542,0.0
592,0.0
632,5712540.469353898
686,0.9999999999999996
687,0.9999999999999996
688,1.9999999999999991
2,1, 1,21, 0,11,30.00,40.00,WinterDesignDay
250,17.00534185434088
251,4247986.654621144
336,0.0
385,16.903626170854043
386,25.46747701988674
387,-17.691984434617666
388,0.0
425,0.0
450,0.0
451,0.0
452,-18.39306994823726
453,0.0
490,0.0
515,0.0
516,0.0
542,0.0
592,0.0
632,4200729.851024855
686,0.6666666666666667
687,0.6666666666666667
688,1.3333333333333335
2,1, 1,21, 0,11,40.00,50.00,WinterDesignDay
250,16.59168395107823
251,4175593.391065736
336,0.0
385,16.370292837520704
386,25.467477019886733
387,-17.691984506222454
388,0.0
425,0.0
450,0.0
451,0.0
452,-18.39312133932635
453,0.0
490,0.0
515,0.0
516,0.0
542,0.0
592,0.0
632,4180771.1263198527
686,0.6000000000000001
687,0.6000000000000001
688,1.2000000000000002
2,1, 1,21, 0,11,50.00,60.00,WinterDesignDay
250,16.85750086657025
251,5801990.722903541
336,0.0
385,16.90362617085405
386,25.46747701988675
387,-17.69196085993169
388,0.0
425,0.0
450,0.0
451,0.0
452,-18.393092410784934
453,0.0
490,0.0
515,0.0
516,0.0
542,0.0
592,0.0
632,5712540.484650069
686,1.0000000000000009
687,1.0000000000000009
688,2.0000000000000018
2,1, 1,21, 0,12, 0.00,10.00,WinterDesignDay
250,17.005341853089902
251,4247986.664447659
336,0.0
385,16.90362617085404
386,25.46747701988673
387,-17.691985941507724
388,0.0
425,0.0
450,0.0
451,0.0
452,-18.39307011230041
453,0.0
490,0.0
515,0.0
516,0.0
542,0.0
592,0.0
632,4200729.860861921
686,0.6666666666666666
687,0.6666666666666666
688,1.3333333333333333
2,1, 1,21, 0,12,10.00,20.00,WinterDesignDay
250,16.591683949831136
251,4175593.4019369315
336,0.0
385,16.370292837520704
386,25.467477019886733
387,-17.691985996102915
388,0.0
425,0.0
450,0.0
451,0.0
452,-18.393121501479122
453,0.0
490,0.0
515,0.0
516,0.0
542,0.0
592,0.0
632,4180771.137568662
686,0.6000000000000001
687,0.6000000000000001
688,1.2000000000000002
2,1, 1,21, 0,12,20.00,30.00,WinterDesignDay
250,16.857500866515437
251,5801990.7373751085
336,0.0
385,16.90362617085403
386,25.46747701988672
387,-17.691962331933397
388,0.0
425,0.0
450,0.0
451,0.0
452,-18.39309257097232
453,0.0
490,0.0
515,0.0
516,0.0
542,0.0
592,0.0
632,5712540.499345334
686,0.9999999999999996
687,0.9999999999999996
688,1.9999999999999991
2,1, 1,21, 0,12,30.00,40.00,WinterDesignDay
250,17.005341851888087
251,4247986.673888098
336,0.0
385,16.903626170854043
386,25.46747701988674
387,-17.69198738920627
388,0.0
425,0.0
450,0.0
451,0.0
452,-18.393070269917885
453,0.0
490,0.0
515,0.0
516,0.0
542,0.0
592,0.0
632,4200729.870312492
686,0.6666666666666667
687,0.6666666666666667
688,1.3333333333333335
2,1, 1,21, 0,12,40.00,50.00,WinterDesignDay
250,16.591683948633026
251,4175593.4123810637
336,0.0
385,16.370292837520704
386,25.467477019886733
387,-17.691987427459498
388,0.0
425,0.0
450,0.0
451,0.0
452,-18.39312165726127
453,0.0
490,0.0
515,0.0
516,0.0
542,0.0
592,0.0
632,4180771.14837557
686,0.6000000000000001
687,0.6000000000000001
688,1.2000000000000002
2,1, 1,21, 0,12,50.00,60.00,WinterDesignDay
250,16.85750086646281
251,5801990.751278149
336,0.0
385,16.90362617085405
386,25.46747701988675
387,-17.69196374611364
388,0.0
425,0.0
450,0.0
451,0.0
452,-18.393092724866342
453,0.0
490,0.0
515,0.0
516,0.0
542,0.0
592,0.0
632,5712540.513463286
686,1.0000000000000009
687,1.0000000000000009
688,2.0000000000000018
2,1, 1,21, 0,13, 0.00,10.00,WinterDesignDay
250,17.005341850733487
251,4247986.682957578
336,0.0
385,16.90362617085404
386,25.46747701988673
387,-17.691988780038304
388,0.0
425,0.0
450,0.0
451,0.0
452,-18.393070421342912
453,0.0
490,0.0
515,0.0
516,0.0
542,0.0
592,0.0
632,4200729.8793917075
686,0.6666666666666666
687,0.6666666666666666
688,1.3333333333333333
2,1, 1,21, 0,13,10.00,20.00,WinterDesignDay
250,16.591683947481997
251,4175593.4224148365
336,0.0
385,16.370292837520704
386,25.467477019886733
387,-17.69198880259245
388,0.0
425,0.0
450,0.0
451,0.0
452,-18.39312180692309
453,0.0
490,0.0
515,0.0
516,0.0
542,0.0
592,0.0
632,4180771.1587578678
686,0.6000000000000001
687,0.6000000000000001
688,1.2000000000000002
2,1, 1,21, 0,13,20.00,30.00,WinterDesignDay
250,16.857500866412217
251,5801990.764634969
336,0.0
385,16.90362617085403
386,25.46747701988672
387,-17.691965104745478
388,0.0
425,0.0
450,0.0
451,0.0
452,-18.3930928727142
453,0.0
490,0.0
515,0.0
516,0.0
542,0.0
592,0.0
632,5712540.527026574
686,0.9999999999999996
687,0.9999999999999996
688,1.9999999999999991
2,1, 1,21, 0,13,30.00,40.00,WinterDesignDay
250,17.00534184962424
251,4247986.6916708285
336,0.0
385,16.903626170854043
386,25.46747701988674
387,-17.691990116238987
388,0.0
425,0.0
450,0.0
451,0.0
452,-18.393070566818864
453,0.0
490,0.0
515,0.0
516,0.0
542,0.0
592,0.0
632,4200729.88811431
686,0.6666666666666667
687,0.6666666666666667
688,1.3333333333333335
2,1, 1,21, 0,13,40.00,50.00,WinterDesignDay
250,16.59168394637618
251,4175593.4320544456
336,0.0
385,16.370292837520704
386,25.467477019886733
387,-17.691990123709804
388,0.0
425,0.0
450,0.0
451,0.0
452,-18.393121950705126