Program Version,EnergyPlus, Version 24.2.0-94a887817b, YMD=2025.01.21 11:38
1,5,Environment Title[],Latitude[deg],Longitude[deg],Time Zone[],Elevation[m]
2,8,Day of Simulation[],Month[],Day of Month[],DST Indicator[1=yes 0=no],Hour[],StartMinute[],EndMinute[],DayType
3,5,Cumulative Day of Simulation[],Month[],Day of Month[],DST Indicator[1=yes 0=no],DayType  ! When Daily Report Variables Requested
4,2,Cumulative Days of Simulation[],Month[]  ! When Monthly Report Variables Requested
5,1,Cumulative Days of Simulation[] ! When Run Period Report Variables Requested
6,1,Calendar Year of Simulation[] ! When Annual Report Variables Requested
250,1,LIVING ZONE,Zone Air Temperature [C] !TimeStep,REPORTSCH
251,1,LIVING ZONE,Zone Air System Sensible Heating Energy [J] !TimeStep,REPORTSCH
336,1,LIVING ZONE,Zone Air System Sensible Cooling Energy [J] !TimeStep,REPORTSCH
385,1,LIVING ZONE,Zone Thermostat Heating Setpoint Temperature [C] !TimeStep,REPORTSCH
386,1,LIVING ZONE,Zone Thermostat Cooling Setpoint Temperature [C] !TimeStep,REPORTSCH
387,1,GARAGE ZONE,Zone Air Temperature [C] !TimeStep,REPORTSCH
388,1,GARAGE ZONE,Zone Air System Sensible Heating Energy [J] !TimeStep,REPORTSCH
425,1,GARAGE ZONE,Zone Air System Sensible Cooling Energy [J] !TimeStep,REPORTSCH
450,1,GARAGE ZONE,Zone Thermostat Heating Setpoint Temperature [C] !TimeStep,REPORTSCH
451,1,GARAGE ZONE,Zone Thermostat Cooling Setpoint Temperature [C] !TimeStep,REPORTSCH
452,1,ATTIC ZONE,Zone Air Temperature [C] !TimeStep,REPORTSCH
453,1,ATTIC ZONE,Zone Air System Sensible Heating Energy [J] !TimeStep,REPORTSCH
490,1,ATTIC ZONE,Zone Air System Sensible Cooling Energy [J] !TimeStep,REPORTSCH
515,1,ATTIC ZONE,Zone Thermostat Heating Setpoint Temperature [C] !TimeStep,REPORTSCH
516,1,ATTIC ZONE,Zone Thermostat Cooling Setpoint Temperature [C] !TimeStep,REPORTSCH
542,1,ACDXCOIL 1,Cooling Coil Total Cooling Energy [J] !TimeStep,REPORTSCH
592,1,HEAT PUMP DX HEATING COIL 1,Heating Coil Heating Energy [J] !TimeStep,REPORTSCH
632,1,SUPP HEATING COIL 1,Heating Coil Heating Energy [J] !TimeStep,REPORTSCH
686,1,TWOSPEED HEAT PUMP 1,Unitary System DX Coil Cycling Ratio [] !TimeStep,REPORTSCH
687,1,TWOSPEED HEAT PUMP 1,Unitary System DX Coil Speed Ratio [] !TimeStep,REPORTSCH
688,1,TWOSPEED HEAT PUMP 1,Unitary System DX Coil Speed Level [] !TimeStep,REPORTSCH
End of Data Dictionary
1,CHICAGO_IL_USA ANNUAL HEATING 99% DESIGN CONDITIONS DB,  41.98, -87.92,  -6.00, 201.00
2,1, 1,21, 0, 1, 0.00,10.00,WinterDesignDay
250,-17.11493926239004
251,33258891.4286173
336,0.0
385,20.486906264944935
386,28.482359793390646
387,-18.499921367869934
388,0.0
425,0.0
450,0.0
451,0.0
452,-19.362865980050803
453,0.0
490,0.0
515,0.0
516,0.0
542,0.0
592,0.0
632,33000000.0
686,1.0
687,1.0
688,2.0
2,1, 1,21, 0, 1,10.00,20.00,WinterDesignDay
250,-17.11493926247446
251,33258891.428616695
336,0.0
385,20.486906264944935
386,28.482359793390646
387,-18.499922856096315
388,0.0
425,0.0
450,0.0
451,0.0
452,-19.36286618749602
453,0.0
490,0.0
515,0.0
516,0.0
542,0.0
592,0.0
632,33000000.0
686,1.0
687,1.0
688,2.0
2,1, 1,21, 0, 1,20.00,30.00,WinterDesignDay
250,-17.114939262557765
251,33258891.42861609
336,0.0
385,20.486906264944935
386,28.482359793390646
387,-18.499924324919785
388,0.0
425,0.0
450,0.0
451,0.0
452,-19.362866392235993
453,0.0
490,0.0
515,0.0
516,0.0
542,0.0
592,0.0
632,33000000.0
686,1.0
687,1.0
688,2.0
2,1, 1,21, 0, 1,30.00,40.00,WinterDesignDay
250,-17.114939262639965
251,33258891.4286155
336,0.0
385,20.486906264944935
386,28.482359793390646
387,-18.499925774593123
388,0.0
425,0.0
450,0.0
451,0.0
452,-19.36286659430601
453,0.0
490,0.0
515,0.0
516,0.0
542,0.0
592,0.0
632,33000000.0
686,1.0
687,1.0
688,2.0
2,1, 1,21, 0, 1,40.00,50.00,WinterDesignDay
250,-17.114939262721066
251,33258891.428614914
336,0.0
385,20.486906264944935
386,28.482359793390646
387,-18.499927205365843
388,0.0
425,0.0
450,0.0
451,0.0
452,-19.36286679374089
453,0.0
490,0.0
515,0.0
516,0.0
542,0.0
592,0.0
632,33000000.0
686,1.0
687,1.0
688,2.0
2,1, 1,21, 0, 1,50.00,60.00,WinterDesignDay
250,-17.114939262801094
251,33258891.428614337
336,0.0
385,20.486906264944935
386,28.482359793390646
387,-18.499928617484358
388,0.0
425,0.0
450,0.0
451,0.0
452,-19.362866990574997
453,0.0
490,0.0
515,0.0
516,0.0
542,0.0
592,0.0
632,33000000.0
686,1.0
687,1.0
688,2.0
2,1, 1,21, 0, 2, 0.00,10.00,WinterDesignDay
250,-17.11493926288006
251,33258891.428613767
336,0.0
385,20.486906264944935
386,28.482359793390646
387,-18.49993001119197
388,0.0
425,0.0
450,0.0
451,0.0
452,-19.36286718484226
453,0.0
490,0.0
515,0.0
516,0.0
542,0.0
592,0.0
632,33000000.0
686,1.0
687,1.0
688,2.0
2,1, 1,21, 0, 2,10.00,20.00,WinterDesignDay
250,-17.114939262957982
251,33258891.428613205
336,0.0
385,20.486906264944935
386,28.482359793390646
387,-18.499931386728985
388,0.0
425,0.0
450,0.0
451,0.0
452,-19.362867376576155
453,0.0
490,0.0
515,0.0
516,0.0
542,0.0
592,0.0
632,33000000.0
686,1.0
687,1.0
688,2.0
2,1, 1,21, 0, 2,20.00,30.00,WinterDesignDay
250,-17.114939263034856
251,33258891.428612646
336,0.0
385,20.486906264944935
386,28.482359793390646
387,-18.49993274433202
388,0.0
425,0.0
450,0.0
451,0.0
452,-19.362867565809726
453,0.0
490,0.0
515,0.0
516,0.0
542,0.0
592,0.0
632,33000000.0
686,1.0
687,1.0
688,2.0
2,1, 1,21, 0, 2,30.00,40.00,WinterDesignDay
250,-17.11493926311072
251,33258891.428612098
336,0.0
385,20.486906264944935
386,28.482359793390646
387,-18.499934084234688
388,0.0
425,0.0
450,0.0
451,0.0
452,-19.36286775257558
453,0.0
490,0.0
515,0.0
516,0.0
542,0.0
592,0.0
632,33000000.0
686,1.0
687,1.0
688,2.0
2,1, 1,21, 0, 2,40.00,50.00,WinterDesignDay
250,-17.114939263185583
251,33258891.428611565
336,0.0
385,20.486906264944935
386,28.482359793390646
387,-18.499935406668026
388,0.0
425,0.0
450,0.0
451,0.0
452,-19.362867936905896
453,0.0
490,0.0
515,0.0
516,0.0
542,0.0
592,0.0
632,33000000.0
686,1.0
687,1.0
688,2.0
2,1, 1,21, 0, 2,50.00,60.00,WinterDesignDay
250,-17.114939263259448
251,33258891.42861103
336,0.0
385,20.486906264944935
386,28.482359793390646
387,-18.499936711859835
388,0.0
425,0.0
450,0.0
451,0.0
452,-19.362868118832456
453,0.0
490,0.0
515,0.0
516,0.0
542,0.0
592,0.0
632,33000000.0
686,1.0
687,1.0
688,2.0
2,1, 1,21, 0, 3, 0.00,10.00,WinterDesignDay
250,-17.114939263332325
251,33258891.428610504
336,0.0
385,20.486906264944935
386,28.482359793390646
387,-18.499938000034817
388,0.0
425,0.0
450,0.0
451,0.0
452,-19.362868298386598
453,0.0
490,0.0
515,0.0
516,0.0
542,0.0
592,0.0
632,33000000.0
686,1.0
687,1.0
688,2.0
2,1, 1,21, 0, 3,10.00,20.00,WinterDesignDay
250,-17.114939263404246
251,33258891.42860999
336,0.0
385,20.486906264944935
386,28.482359793390646
387,-18.499939271414604
388,0.0
425,0.0
450,0.0
451,0.0
452,-19.362868475599264
453,0.0
490,0.0
515,0.0
516,0.0
542,0.0
592,0.0
632,33000000.0
686,1.0
687,1.0
688,2.0
2,1, 1,21, 0, 3,20.00,30.00,WinterDesignDay
250,-17.11493926347521
251,33258891.428609475
336,0.0
385,20.486906264944935
386,28.482359793390646
387,-18.49994052621832
388,0.0
425,0.0
450,0.0
451,0.0
452,-19.362868650501
453,0.0
490,0.0
515,0.0
516,0.0
542,0.0
592,0.0
632,33000000.0
686,1.0
687,1.0
688,2.0
2,1, 1,21, 0, 3,30.00,40.00,WinterDesignDay
250,-17.114939263545224
251,33258891.42860897
336,0.0
385,20.486906264944935
386,28.482359793390646
387,-18.499941764662267
388,0.0
425,0.0
450,0.0
451,0.0
452,-19.36286882312194
453,0.0
490,0.0
515,0.0
516,0.0
542,0.0
592,0.0
632,33000000.0
686,1.0
687,1.0
688,2.0
2,1, 1,21, 0, 3,40.00,50.00,WinterDesignDay
250,-17.11493926361432
251,33258891.42860848
336,0.0
385,20.486906264944935
386,28.482359793390646
387,-18.499942986959542
388,0.0
425,0.0
450,0.0
451,0.0
452,-19.362868993491826
453,0.0
490,0.0
515,0.0
516,0.0
542,0.0
592,0.0
632,33000000.0
686,1.0
687,1.0
688,2.0
2,1, 1,21, 0, 3,50.00,60.00,WinterDesignDay
250,-17.1149392636825
251,33258891.42860798
336,0.0
385,20.486906264944935
386,28.482359793390646
387,-18.499944193320605
388,0.0
425,0.0
450,0.0
451,0.0
452,-19.362869161640024
453,0.0
490,0.0
515,0.0
516,0.0
542,0.0
592,0.0
632,33000000.0
686,1.0
687,1.0
688,2.0
2,1, 1,21, 0, 4, 0.00,10.00,WinterDesignDay
250,-17.114939263749772
251,33258891.428607497
336,0.0
385,20.486906264944935
386,28.482359793390646
387,-18.49994538395324
388,0.0
425,0.0
450,0.0
451,0.0
452,-19.362869327595508
453,0.0
490,0.0
515,0.0
516,0.0
542,0.0
592,0.0
632,33000000.0
686,1.0
687,1.0
688,2.0
2,1, 1,21, 0, 4,10.00,20.00,WinterDesignDay
250,-17.114939263816158
251,33258891.42860702
336,0.0
385,20.486906264944935
386,28.482359793390646
387,-18.49994655906247
388,0.0
425,0.0
450,0.0
451,0.0
452,-19.362869491386874
453,0.0
490,0.0
515,0.0
516,0.0
542,0.0
592,0.0
632,33000000.0
686,1.0
687,1.0
688,2.0
2,1, 1,21, 0, 4,20.00,30.00,WinterDesignDay
250,-17.114939263881663
251,33258891.42860655
336,0.0
385,20.486906264944935
386,28.482359793390646
387,-18.499947718850805
388,0.0
425,0.0
450,0.0
451,0.0
452,-19.362869653042342
453,0.0
490,0.0
515,0.0
516,0.0
542,0.0
592,0.0
632,33000000.0
686,1.0
687,1.0
688,2.0
2,1, 1,21, 0, 4,30.00,40.00,WinterDesignDay
250,-17.114939263946297
251,33258891.42860608
336,0.0
385,20.486906264944935
386,28.482359793390646
387,-18.499948863517993
388,0.0
425,0.0
450,0.0
451,0.0
452,-19.36286981258977
453,0.0
490,0.0
515,0.0
516,0.0
542,0.0
592,0.0
632,33000000.0
686,1.0
687,1.0
688,2.0
2,1, 1,21, 0, 4,40.00,50.00,WinterDesignDay
250,-17.11493926401008
251,33258891.428605627
336,0.0
385,20.486906264944935
386,28.482359793390646
387,-18.49994999326116
388,0.0
425,0.0
450,0.0
451,0.0
452,-19.36286997005666
453,0.0
490,0.0
515,0.0
516,0.0
542,0.0
592,0.0
632,33000000.0
686,1.0
687,1.0
688,2.0
2,1, 1,21, 0, 4,50.00,60.00,WinterDesignDay
250,-17.11493926407301
251,33258891.428605165
336,0.0
385,20.486906264944935
386,28.482359793390646
387,-18.499951108274804
388,0.0
425,0.0
450,0.0
451,0.0
452,-19.36287012547014
453,0.0
490,0.0
515,0.0
516,0.0
542,0.0
592,0.0
632,33000000.0
686,1.0
687,1.0
688,2.0
2,1, 1,21, 0, 5, 0.00,10.00,WinterDesignDay
250,-17.114939264135113
251,33258891.428604726
336,0.0
385,20.486906264944935
386,28.482359793390646
387,-18.499952208750944
388,0.0
425,0.0
450,0.0
451,0.0
452,-19.362870278856985
453,0.0
490,0.0
515,0.0
516,0.0
542,0.0
592,0.0
632,33000000.0
686,1.0
687,1.0
688,2.0
2,1, 1,21, 0, 5,10.00,20.00,WinterDesignDay
250,-17.11493926419639
251,33258891.42860428
336,0.0
385,20.486906264944935
386,28.482359793390646
387,-18.49995329487914
388,0.0
425,0.0
450,0.0
451,0.0
452,-19.362870430243632
453,0.0
490,0.0
515,0.0
516,0.0
542,0.0
592,0.0
632,33000000.0
686,1.0
687,1.0
688,2.0
2,1, 1,21, 0, 5,20.00,30.00,WinterDesignDay
250,-17.114939264256858
251,33258891.42860385
336,0.0
385,20.486906264944935
386,28.482359793390646
387,-18.499954366846616
388,0.0
425,0.0
450,0.0
451,0.0
452,-19.362870579656164
453,0.0
490,0.0
515,0.0
516,0.0
542,0.0
592,0.0
632,33000000.0
686,1.0
687,1.0
688,2.0
2,1, 1,21, 0, 5,30.00,40.00,WinterDesignDay
250,-17.114939264316533
251,33258891.428603426
336,0.0
385,20.486906264944935
386,28.482359793390646
387,-18.49995542483793
388,0.0
425,0.0
450,0.0
451,0.0
452,-19.362870727120328
453,0.0
490,0.0
515,0.0
516,0.0
542,0.0
592,0.0
632,33000000.0
686,1.0
687,1.0
688,2.0
2,1, 1,21, 0, 5,40.00,50.00,WinterDesignDay
250,-17.114939264375405
251,33258891.428602997
336,0.0
385,20.486906264944935
386,28.482359793390646
387,-18.499956469035162
388,0.0
425,0.0
450,0.0
451,0.0
452,-19.36287087266153
453,0.0
490,0.0
515,0.0
516,0.0
542,0.0
592,0.0
632,33000000.0
686,1.0
687,1.0
688,2.0
2,1, 1,21, 0, 5,50.00,60.00,WinterDesignDay
250,-17.114939264433502
251,33258891.428602576
336,0.0
385,20.486906264944935
386,28.482359793390646
387,-18.49995749961804
388,0.0
425,0.0
450,0.0
451,0.0
452,-19.36287101630485
453,0.0
490,0.0
515,0.0
516,0.0
542,0.0
592,0.0
632,33000000.0
686,1.0
687,1.0
688,2.0
2,1, 1,21, 0, 6, 0.00,10.00,WinterDesignDay
250,-17.114939264490832
251,33258891.428602166
336,0.0
385,20.486906264944935
386,28.482359793390646
387,-18.499958516764316
388,0.0
425,0.0
450,0.0
451,0.0
452,-19.36287115807505
453,0.0
490,0.0
515,0.0
516,0.0
542,0.0
592,0.0
632,33000000.0
686,1.0
687,1.0
688,2.0
2,1, 1,21, 0, 6,10.00,20.00,WinterDesignDay
250,-17.114939264547406
251,33258891.428601757
336,0.0
385,20.486906264944935
386,28.482359793390646
387,-18.499959520649202
388,0.0
425,0.0
450,0.0
451,0.0
452,-19.36287129799655
453,0.0
490,0.0
515,0.0
516,0.0
542,0.0
592,0.0
632,33000000.0
686,1.0
687,1.0
688,2.0
2,1, 1,21, 0, 6,20.00,30.00,WinterDesignDay
250,-17.114939264603226
251,33258891.428601358
336,0.0
385,20.486906264944935
386,28.482359793390646
387,-18.49996051144558
388,0.0
425,0.0
450,0.0
451,0.0
452,-19.362871436093464
453,0.0
490,0.0
515,0.0
516,0.0
542,0.0
592,0.0
632,33000000.0
686,1.0
687,1.0
688,2.0
2,1, 1,21, 0, 6,30.00,40.00,WinterDesignDay
250,-17.114939264658314
251,33258891.428600963
336,0.0
385,20.486906264944935
386,28.482359793390646
387,-18.499961489323947
388,0.0
425,0.0
450,0.0
451,0.0
452,-19.362871572389583
453,0.0
490,0.0
515,0.0
516,0.0
542,0.0
592,0.0
632,33000000.0
686,1.0
687,1.0
688,2.0
2,1, 1,21, 0, 6,40.00,50.00,WinterDesignDay
250,-17.11493926471267
251,33258891.428600572
336,0.0
385,20.486906264944935
386,28.482359793390646
387,-18.499962454452685
388,0.0
425,0.0
450,0.0
451,0.0
452,-19.362871706908393
453,0.0
490,0.0
515,0.0
516,0.0
542,0.0
592,0.0
632,33000000.0
686,1.0
687,1.0
688,2.0
2,1, 1,21, 0, 6,50.00,60.00,WinterDesignDay
250,-17.11493926476631
251,33258891.42860019
336,0.0
385,20.486906264944935
386,28.482359793390646
387,-18.499963406998027
388,0.0
425,0.0
450,0.0
451,0.0
452,-19.362871839673073
453,0.0
490,0.0
515,0.0
516,0.0
542,0.0
592,0.0
632,33000000.0
686,1.0
687,1.0
688,2.0
2,1, 1,21, 0, 7, 0.00,10.00,WinterDesignDay
250,-17.114939264819235
251,33258891.428599805
336,0.0
385,20.486906264944935
386,28.482359793390646
387,-18.499964347123978
388,0.0
425,0.0
450,0.0
451,0.0
452,-19.362871970706497
453,0.0
490,0.0
515,0.0
516,0.0
542,0.0
592,0.0
632,33000000.0
686,1.0
687,1.0
688,2.0
2,1, 1,21, 0, 7,10.00,20.00,WinterDesignDay
250,-17.114939264871463
251,33258891.42859943
336,0.0
385,20.486906264944935
386,28.482359793390646
387,-18.499965274992658
388,0.0
425,0.0
450,0.0
451,0.0
452,-19.362872100031247
453,0.0
490,0.0
515,0.0
516,0.0
542,0.0
592,0.0
632,33000000.0
686,1.0
687,1.0
688,2.0
2,1, 1,21, 0, 7,20.00,30.00,WinterDesignDay
250,-17.114939264923002
251,33258891.428599063
336,0.0
385,20.486906264944935
386,28.482359793390646
387,-18.49996619076402
388,0.0
425,0.0
450,0.0
451,0.0
452,-19.3628722276696
453,0.0
490,0.0
515,0.0
516,0.0
542,0.0
592,0.0
632,33000000.0
686,1.0
687,1.0
688,2.0
2,1, 1,21, 0, 7,30.00,40.00,WinterDesignDay
250,-17.11493926497386
251,33258891.428598695
336,0.0
385,20.486906264944935
386,28.482359793390646
387,-18.499967094595632
388,0.0
425,0.0
450,0.0
451,0.0
452,-19.362872353643557
453,0.0
490,0.0
515,0.0
516,0.0
542,0.0
592,0.0
632,33000000.0
686,1.0
687,1.0
688,2.0
2,1, 1,21, 0, 7,40.00,50.00,WinterDesignDay
250,-17.11493926502405
251,33258891.428598337
336,0.0
385,20.486906264944935
386,28.482359793390646
387,-18.4999679866429
388,0.0
425,0.0
450,0.0
451,0.0
452,-19.362872477974815
453,0.0
490,0.0
515,0.0
516,0.0
542,0.0
592,0.0
632,33000000.0
686,1.0
687,1.0
688,2.0
2,1, 1,21, 0, 7,50.00,60.00,WinterDesignDay
250,-17.11493926507357
251,33258891.428597983
336,0.0
385,20.486906264944935
386,28.482359793390646
387,-18.499968867059692
388,0.0
425,0.0
450,0.0
451,0.0
452,-19.362872600684806
453,0.0
490,0.0
515,0.0
516,0.0
542,0.0
592,0.0
632,33000000.0
686,1.0
687,1.0
688,2.0
2,1, 1,21, 0, 8, 0.00,10.00,WinterDesignDay
250,-17.114939265122437
251,33258891.428597625
336,0.0
385,20.486906264944935
386,28.482359793390646
387,-18.499969735997542
388,0.0
425,0.0
450,0.0
451,0.0
452,-19.362872721794673
453,0.0
490,0.0
515,0.0
516,0.0
542,0.0
592,0.0
632,33000000.0
686,1.0
687,1.0
688,2.0
2,1, 1,21, 0, 8,10.00,20.00,WinterDesignDay
250,-17.114939265170662
251,33258891.428597283
336,0.0
385,20.486906264944935
386,28.482359793390646
387,-18.499970593606022
388,0.0
425,0.0
450,0.0
451,0.0
452,-19.36287284132528
453,0.0
490,0.0
515,0.0
516,0.0
542,0.0
592,0.0
632,33000000.0
686,1.0
687,1.0
688,2.0
2,1, 1,21, 0, 8,20.00,30.00,WinterDesignDay
250,-17.114939265218243
251,33258891.42859694
336,0.0
385,20.486906264944935
386,28.482359793390646
387,-18.499971440033004
388,0.0
425,0.0
450,0.0
451,0.0
452,-19.36287295929722
453,0.0
490,0.0
515,0.0
516,0.0
542,0.0
592,0.0
632,33000000.0
686,1.0
687,1.0
688,2.0
2,1, 1,21, 0, 8,30.00,40.00,WinterDesignDay
250,-17.114939265265203
251,33258891.428596605
336,0.0
385,20.486906264944935
386,28.482359793390646
387,-18.499972275424394
388,0.0
425,0.0
450,0.0
451,0.0
452,-19.36287307573082
453,0.0
490,0.0
515,0.0
516,0.0
542,0.0
592,0.0
632,33000000.0
686,1.0
687,1.0
688,2.0
2,1, 1,21, 0, 8,40.00,50.00,WinterDesignDay
250,-17.114939265311534
251,33258891.42859627
336,0.0
385,20.486906264944935
386,28.482359793390646
387,-18.499973099923988
388,0.0
425,0.0
450,0.0
451,0.0
452,-19.362873190646148
453,0.0
490,0.0
515,0.0
516,0.0
542,0.0
592,0.0
632,33000000.0
686,1.0
687,1.0
688,2.0
2,1, 1,21, 0, 8,50.00,60.00,WinterDesignDay
250,-17.114939265357265
251,33258891.42859595
336,0.0
385,20.486906264944935
386,28.482359793390646
387,-18.499973913673674
388,0.0
425,0.0
450,0.0
451,0.0
452,-19.362873304062994
453,0.0
490,0.0
515,0.0
516,0.0
542,0.0
592,0.0
632,33000000.0
686,1.0
687,1.0
688,2.0
2,1, 1,21, 0, 9, 0.00,10.00,WinterDesignDay
250,-17.114939265402384
251,33258891.42859562
336,0.0
385,20.486906264944935
386,28.482359793390646
387,-18.499974716813544
388,0.0
425,0.0
450,0.0
451,0.0
452,-19.362873416000905
453,0.0
490,0.0
515,0.0
516,0.0
542,0.0
592,0.0
632,33000000.0
686,1.0
687,1.0
688,2.0
2,1, 1,21, 0, 9,10.00,20.00,WinterDesignDay
250,-17.11493926544691
251,33258891.4285953
336,0.0
385,20.486906264944935
386,28.482359793390646
387,-18.499975509482045
388,0.0
425,0.0
450,0.0
451,0.0
452,-19.362873526479166
453,0.0
490,0.0
515,0.0
516,0.0
542,0.0
592,0.0
632,33000000.0
686,1.0
687,1.0
688,2.0
2,1, 1,21, 0, 9,20.00,30.00,WinterDesignDay
250,-17.114939265490847
251,33258891.428594984
336,0.0
385,20.486906264944935
386,28.482359793390646
387,-18.499976291815727
388,0.0
425,0.0
450,0.0
451,0.0
452,-19.362873635516817
453,0.0
490,0.0
515,0.0
516,0.0
542,0.0
592,0.0
632,33000000.0
686,1.0
687,1.0
688,2.0
2,1, 1,21, 0, 9,30.00,40.00,WinterDesignDay
250,-17.114939265534208
251,33258891.42859468
336,0.0
385,20.486906264944935
386,28.482359793390646
387,-18.499977063949217
388,0.0
425,0.0
450,0.0
451,0.0
452,-19.36287374313264
453,0.0
490,0.0
515,0.0
516,0.0
542,0.0
592,0.0
632,33000000.0
686,1.0
687,1.0
688,2.0
2,1, 1,21, 0, 9,40.00,50.00,WinterDesignDay
250,-17.11493926557699
251,33258891.428594366
336,0.0
385,20.486906264944935
386,28.482359793390646
387,-18.49997782601551
388,0.0
425,0.0
450,0.0
451,0.0
452,-19.362873849345174
453,0.0
490,0.0
515,0.0
516,0.0
542,0.0
592,0.0
632,33000000.0
686,1.0
687,1.0
688,2.0
2,1, 1,21, 0, 9,50.00,60.00,WinterDesignDay
250,-17.114939265619213
251,33258891.428594068
336,0.0
385,20.486906264944935
386,28.482359793390646
387,-18.49997857814612
388,0.0
425,0.0
450,0.0
451,0.0
452,-19.362873954172727
453,0.0
490,0.0
515,0.0
516,0.0
542,0.0
592,0.0
632,33000000.0
686,1.0
687,1.0
688,2.0
2,1, 1,21, 0,10, 0.00,10.00,WinterDesignDay
250,-17.114939265660876
251,33258891.428593762
336,0.0
385,20.486906264944935
386,28.482359793390646
387,-18.49997932047046
388,0.0
425,0.0
450,0.0
451,0.0
452,-19.362874057633356
453,0.0
490,0.0
515,0.0
516,0.0
542,0.0
592,0.0
632,33000000.0
686,1.0
687,1.0
688,2.0
2,1, 1,21, 0,10,10.00,20.00,WinterDesignDay
250,-17.11493926570199
251,33258891.428593475
336,0.0
385,20.486906264944935
386,28.482359793390646
387,-18.499980053116218
388,0.0
425,0.0
450,0.0
451,0.0
452,-19.362874159744887
453,0.0
490,0.0
515,0.0
516,0.0
542,0.0
592,0.0
632,33000000.0
686,1.0
687,1.0
688,2.0
2,1, 1,21, 0,10,20.00,30.00,WinterDesignDay
250,-17.114939265742564
251,33258891.42859318
336,0.0
385,20.486906264944935
386,28.482359793390646
387,-18.499980776209725
388,0.0
425,0.0
450,0.0
451,0.0
452,-19.362874260524915
453,0.0
490,0.0
515,0.0
516,0.0
542,0.0
592,0.0
632,33000000.0
686,1.0
687,1.0
688,2.0
2,1, 1,21, 0,10,30.00,40.00,WinterDesignDay
250,-17.1149392657826
251,33258891.428592898
336,0.0
385,20.486906264944935
386,28.482359793390646
387,-18.499981489875573
388,0.0
425,0.0
450,0.0
451,0.0
452,-19.362874359990805
453,0.0
490,0.0
515,0.0
516,0.0
542,0.0
592,0.0
632,33000000.0
686,1.0
687,1.0
688,2.0
2,1, 1,21, 0,10,40.00,50.00,WinterDesignDay
250,-17.114939265822112
251,33258891.428592615
336,0.0
385,20.486906264944935
386,28.482359793390646
387,-18.49998219423651
388,0.0
425,0.0
450,0.0
451,0.0
452,-19.362874458159688
453,0.0
490,0.0
515,0.0
516,0.0
542,0.0
592,0.0
632,33000000.0
686,1.0
687,1.0
688,2.0
2,1, 1,21, 0,10,50.00,60.00,WinterDesignDay
250,-17.114939265861096
251,33258891.428592328
336,0.0
385,20.486906264944935
386,28.482359793390646
387,-18.49998288941386
388,0.0
425,0.0
450,0.0
451,0.0
452,-19.36287455504848
453,0.0
490,0.0
515,0.0
516,0.0
542,0.0
592,0.0
632,33000000.0
686,1.0
687,1.0
688,2.0
2,1, 1,21, 0,11, 0.00,10.00,WinterDesignDay
250,-17.114939265899572
251,33258891.42859206
336,0.0
385,20.486906264944935
386,28.482359793390646
387,-18.49998357552735
388,0.0
425,0.0
450,0.0
451,0.0
452,-19.36287465067388
453,0.0
490,0.0
515,0.0
516,0.0
542,0.0
592,0.0
632,33000000.0
686,1.0
687,1.0
688,2.0
2,1, 1,21, 0,11,10.00,20.00,WinterDesignDay
250,-17.114939265937537
251,33258891.42859178
336,0.0
385,20.486906264944935
386,28.482359793390646
387,-18.499984252695167
388,0.0
425,0.0
450,0.0
451,0.0
452,-19.362874745052363
453,0.0
490,0.0
515,0.0
516,0.0
542,0.0
592,0.0
632,33000000.0
686,1.0
687,1.0
688,2.0
2,1, 1,21, 0,11,20.00,30.00,WinterDesignDay
250,-17.114939265975003
251,33258891.42859152
336,0.0
385,20.486906264944935
386,28.482359793390646
387,-18.499984921034116
388,0.0
425,0.0
450,0.0
451,0.0
452,-19.362874838200185
453,0.0
490,0.0
515,0.0
516,0.0
542,0.0
592,0.0
632,33000000.0
686,1.0
687,1.0
688,2.0
2,1, 1,21, 0,11,30.00,40.00,WinterDesignDay
250,-17.114939266011977
251,33258891.42859125
336,0.0
385,20.486906264944935
386,28.482359793390646
387,-18.499985580659377
388,0.0
425,0.0
450,0.0
451,0.0
452,-19.362874930133394
453,0.0
490,0.0
515,0.0
516,0.0
542,0.0
592,0.0
632,33000000.0
686,1.0
687,1.0
688,2.0
2,1, 1,21, 0,11,40.00,50.00,WinterDesignDay
250,-17.11493926604846
251,33258891.428590987
336,0.0
385,20.486906264944935
386,28.482359793390646
387,-18.499986231684485
388,0.0
425,0.0
450,0.0
451,0.0
452,-19.362875020867833
453,0.0
490,0.0
515,0.0
516,0.0
542,0.0
592,0.0
632,33000000.0
686,1.0
687,1.0
688,2.0
2,1, 1,21, 0,11,50.00,60.00,WinterDesignDay
250,-17.114939266084463
251,33258891.42859073
336,0.0
385,20.486906264944935
386,28.482359793390646
387,-18.499986874221253
388,0.0
425,0.0
450,0.0
451,0.0
452,-19.36287511041913
453,0.0
490,0.0
515,0.0
516,0.0
542,0.0
592,0.0
632,33000000.0
686,1.0
687,1.0
688,2.0
2,1, 1,21, 0,12, 0.00,10.00,WinterDesignDay
250,-17.114939266119993
251,33258891.42859048
336,0.0
385,20.486906264944935
386,28.482359793390646
387,-18.49998750838033
388,0.0
425,0.0
450,0.0
451,0.0
452,-19.362875198802715
453,0.0
490,0.0
515,0.0
516,0.0
542,0.0
592,0.0
632,33000000.0
686,1.0
687,1.0
688,2.0
2,1, 1,21, 0,12,10.00,20.00,WinterDesignDay
250,-17.114939266155055
251,33258891.42859023
336,0.0
385,20.486906264944935
386,28.482359793390646
387,-18.49998813427116
388,0.0
425,0.0
450,0.0
451,0.0
452,-19.362875286033823
453,0.0
490,0.0
515,0.0
516,0.0
542,0.0
592,0.0
632,33000000.0
686,1.0
687,1.0
688,2.0
2,1, 1,21, 0,12,20.00,30.00,WinterDesignDay
250,-17.114939266189655
251,33258891.428589977
336,0.0
385,20.486906264944935
386,28.482359793390646
387,-18.499988752001535
388,0.0
425,0.0
450,0.0
451,0.0
452,-19.36287537212748
453,0.0
490,0.0
515,0.0
516,0.0
542,0.0
592,0.0
632,33000000.0
686,1.0
687,1.0
688,2.0
2,1, 1,21, 0,12,30.00,40.00,WinterDesignDay
250,-17.114939266223796
251,33258891.428589735
336,0.0
385,20.486906264944935
386,28.482359793390646
387,-18.499989361678036
388,0.0
425,0.0
450,0.0
451,0.0
452,-19.362875457098514
453,0.0
490,0.0
515,0.0
516,0.0
542,0.0
592,0.0
632,33000000.0
686,1.0
687,1.0
688,2.0
2,1, 1,21, 0,12,40.00,50.00,WinterDesignDay
250,-17.11493926625749
251,33258891.428589493
336,0.0
385,20.486906264944935
386,28.482359793390646
387,-18.499989963405667
388,0.0
425,0.0
450,0.0
451,0.0
452,-19.362875540961564
453,0.0
490,0.0
515,0.0
516,0.0
542,0.0
592,0.0
632,33000000.0
686,1.0
687,1.0
688,2.0
2,1, 1,21, 0,12,50.00,60.00,WinterDesignDay
250,-17.11493926629074
251,33258891.42858926
336,0.0
385,20.486906264944935
386,28.482359793390646
387,-18.499990557287983
388,0.0
425,0.0
450,0.0
451,0.0
452,-19.362875623731078
453,0.0
490,0.0
515,0.0
516,0.0
542,0.0
592,0.0
632,33000000.0
686,1.0
687,1.0
688,2.0
2,1, 1,21, 0,13, 0.00,10.00,WinterDesignDay
250,-17.114939266323553
251,33258891.428589024
336,0.0
385,20.486906264944935
386,28.482359793390646
387,-18.49999114342704
388,0.0
425,0.0
450,0.0
451,0.0
452,-19.362875705421324
453,0.0
490,0.0
515,0.0
516,0.0
542,0.0
592,0.0
632,33000000.0
686,1.0
687,1.0
688,2.0
2,1, 1,21, 0,13,10.00,20.00,WinterDesignDay
250,-17.114939266355933
251,33258891.428588785
336,0.0
385,20.486906264944935
386,28.482359793390646
387,-18.499991721923795
388,0.0
425,0.0
450,0.0
451,0.0
452,-19.362875786046374
453,0.0
490,0.0
515,0.0
516,0.0
542,0.0
592,0.0
632,33000000.0
686,1.0
687,1.0
688,2.0
2,1, 1,21, 0,13,20.00,30.00,WinterDesignDay
250,-17.114939266387886
251,33258891.42858856
336,0.0
385,20.486906264944935
386,28.482359793390646
387,-18.499992292877934
388,0.0
425,0.0
450,0.0
451,0.0
452,-19.36287586562012
453,0.0
490,0.0
515,0.0
516,0.0
542,0.0
592,0.0
632,33000000.0
686,1.0
687,1.0
688,2.0
2,1, 1,21, 0,13,30.00,40.00,WinterDesignDay
250,-17.114939266419416
251,33258891.42858833
336,0.0
385,20.486906264944935
386,28.482359793390646
387,-18.499992856387895
388,0.0
425,0.0
450,0.0
451,0.0
452,-19.362875944156265
453,0.0
490,0.0
515,0.0
516,0.0
542,0.0
592,0.0
632,33000000.0
686,1.0
687,1.0
688,2.0
2,1, 1,21, 0,13,40.00,50.00,WinterDesignDay
250,-17.114939266450538
251,33258891.428588115
336,0.0
385,20.486906264944935
386,28.482359793390646
387,-18.4999934125507
388,0.0
425,0.0
450,0.0
451,0.0
452,-19.362876021668338
453,0.0
490,0.0
515,0.0
516,0.0
542,0.0
592,0.0
632,33000000.0
686,1.0
687,1.0
688,2.0
2,1, 1,21, 0,13,50.00,60.00,WinterDesignDay
250,-17.11493926648124
251,33258891.428587887
336,0.0
385,20.486906264944935
386,28.482359793390646
387,-18.499993961462177
388,0.0
425,0.0
450,0.0
451,0.0
452,-19.362876098169693
453,0.0
490,0.0
515,0.0
516,0.0
542,0.0
592,0.0
632,33000000.0
686,1.0
687,1.0
688,2.0
2,1, 1,21, 0,14, 0.00,10.00,WinterDesignDay
250,-17.114939266511545
251,33258891.42858768
336,0.0
385,20.486906264944935
386,28.482359793390646
387,-18.499994503216868
388,0.0
425,0.0
450,0.0
451,0.0
452,-19.362876173673513
453,0.0
490,0.0
515,0.0
516,0.0
542,0.0
592,0.0
632,33000000.0
686,1.0
687,1.0
688,2.0
2,1, 1,21, 0,14,10.00,20.00,WinterDesignDay
250,-17.114939266541448
251,33258891.42858746
336,0.0
385,20.486906264944935
386,28.482359793390646
387,-18.499995037908278
388,0.0
425,0.0
450,0.0
451,0.0
452,-19.36287624819281
453,0.0
490,0.0
515,0.0
516,0.0
542,0.0
592,0.0
632,33000000.0
686,1.0
687,1.0
688,2.0
2,1, 1,21, 0,14,20.00,30.00,WinterDesignDay
250,-17.11493926657096
251,33258891.428587254
336,0.0
385,20.486906264944935
386,28.482359793390646
387,-18.499995565628346
388,0.0
425,0.0
450,0.0
451,0.0
452,-19.36287632174042
453,0.0
490,0.0
515,0.0
516,0.0
542,0.0
592,0.0
632,33000000.0
686,1.0
687,1.0
688,2.0
2,1, 1,21, 0,14,30.00,40.00,WinterDesignDay
250,-17.114939266600082
251,33258891.42858704
336,0.0
385,20.486906264944935
386,28.482359793390646
387,-18.499996086467767
388,0.0
425,0.0
450,0.0
451,0.0
452,-19.362876394329017
453,0.0
490,0.0
515,0.0
516,0.0
542,0.0
592,0.0
632,33000000.0
686,1.0
687,1.0
688,2.0
2,1, 1,21, 0,14,40.00,50.00,WinterDesignDay
250,-17.114939266628824
251,33258891.428586833
336,0.0
385,20.486906264944935
386,28.482359793390646
387,-18.499996600516326
388,0.0
425,0.0
450,0.0
451,0.0
452,-19.3628764659711
453,0.0
490,0.0
515,0.0
516,0.0
542,0.0
592,0.0
632,33000000.0
686,1.0
687,1.0
688,2.0
2,1, 1,21, 0,14,50.00,60.00,WinterDesignDay
250,-17.11493926665718
251,33258891.428586636
336,0.0
385,20.486906264944935
386,28.482359793390646
387,-18.49999710786273
388,0.0
425,0.0
450,0.0
451,0.0
452,-19.362876536679014
453,0.0
490,0.0
515,0.0
516,0.0
542,0.0
592,0.0
632,33000000.0
686,1.0
687,1.0
688,2.0
2,1, 1,21, 0,15, 0.00,10.00,WinterDesignDay
250,-17.114939266685173
251,33258891.428586435
336,0.0
385,20.486906264944935
386,28.482359793390646
387,-18.499997608594352
388,0.0
425,0.0
450,0.0
451,0.0
452,-19.362876606464944
453,0.0
490,0.0
515,0.0
516,0.0
542,0.0
592,0.0
632,33000000.0
686,1.0
687,1.0
688,2.0
2,1, 1,21, 0,15,10.00,20.00,WinterDesignDay
250,-17.11493926671279
251,33258891.42858623
336,0.0
385,20.486906264944935
386,28.482359793390646
387,-18.4999981027972
388,0.0
425,0.0
450,0.0
451,0.0
452,-19.362876675340914
453,0.0
490,0.0
515,0.0
516,0.0
542,0.0
592,0.0
632,33000000.0
686,1.0
687,1.0
688,2.0
2,1, 1,21, 0,15,20.00,30.00,WinterDesignDay
250,-17.114939266740045
251,33258891.42858604
336,0.0
385,20.486906264944935
386,28.482359793390646
387,-18.499998590556373
388,0.0
425,0.0
450,0.0
451,0.0
452,-19.36287674331879
453,0.0
490,0.0
515,0.0
516,0.0
542,0.0
592,0.0
632,33000000.0
686,1.0
687,1.0
688,2.0
2,1, 1,21, 0,15,30.00,40.00,WinterDesignDay
250,-17.114939266766946
251,33258891.428585853
336,0.0
385,20.486906264944935
386,28.482359793390646
387,-18.499999071956218
388,0.0
425,0.0
450,0.0
451,0.0
452,-19.362876810410278
453,0.0
490,0.0
515,0.0
516,0.0
542,0.0
592,0.0
632,33000000.0
686,1.0
687,1.0
688,2.0
2,1, 1,21, 0,15,40.00,50.00,WinterDesignDay
250,-17.11493926679349
251,33258891.42858566
336,0.0
385,20.486906264944935
386,28.482359793390646
387,-18.499999547079735
388,0.0
425,0.0
450,0.0
451,0.0