Program Version,EnergyPlus, Version 24.2.0-94a887817b, YMD=2025.01.30 19:33
1,5,Environment Title[],Latitude[deg],Longitude[deg],Time Zone[],Elevation[m]
2,8,Day of Simulation[],Month[],Day of Month[],DST Indicator[1=yes 0=no],Hour[],StartMinute[],EndMinute[],DayType
3,5,Cumulative Day of Simulation[],Month[],Day of Month[],DST Indicator[1=yes 0=no],DayType  ! When Daily Meters Requested
4,2,Cumulative Days of Simulation[],Month[]  ! When Monthly Meters Requested
5,1,Cumulative Days of Simulation[] ! When Run Period Meters Requested
6,1,Calendar Year of Simulation[] ! When Annual Meters Requested
11,9,Electricity:Facility [J] !Monthly [Value,Min,Day,Hour,Minute,Max,Day,Hour,Minute]
23,9,Electricity:Building [J] !Monthly [Value,Min,Day,Hour,Minute,Max,Day,Hour,Minute]
59,9,InteriorLights:Electricity [J] !Monthly [Value,Min,Day,Hour,Minute,Max,Day,Hour,Minute]
521,9,Electricity:HVAC [J] !Monthly [Value,Min,Day,Hour,Minute,Max,Day,Hour,Minute]
637,9,NaturalGas:Facility [J] !Monthly [Value,Min,Day,Hour,Minute,Max,Day,Hour,Minute]
649,9,NaturalGas:HVAC [J] !Monthly [Value,Min,Day,Hour,Minute,Max,Day,Hour,Minute]
13,11,Electricity:Facility [J] !RunPeriod [Value,Min,Month,Day,Hour,Minute,Max,Month,Day,Hour,Minute]
25,11,Electricity:Building [J] !RunPeriod [Value,Min,Month,Day,Hour,Minute,Max,Month,Day,Hour,Minute]
61,11,InteriorLights:Electricity [J] !RunPeriod [Value,Min,Month,Day,Hour,Minute,Max,Month,Day,Hour,Minute]
523,11,Electricity:HVAC [J] !RunPeriod [Value,Min,Month,Day,Hour,Minute,Max,Month,Day,Hour,Minute]
639,11,NaturalGas:Facility [J] !RunPeriod [Value,Min,Month,Day,Hour,Minute,Max,Month,Day,Hour,Minute]
651,11,NaturalGas:HVAC [J] !RunPeriod [Value,Min,Month,Day,Hour,Minute,Max,Month,Day,Hour,Minute]
End of Data Dictionary
1,RUN PERIOD 1,  41.98, -87.92,  -6.00, 201.00
4,31, 1
11,9822884957.909103,408891.4285714286, 5, 6,60,2979353.5707075843,16,13,60
23,983834856.6781194,30000.0, 1, 1,10,609880.3309261595, 1, 9,10
59,970200000.0,30000.0, 1, 1,10,600000.0, 1, 8,10
521,8839050101.230986,378891.4285714286, 5, 6,60,2369473.239781425,16,13,60
637,173814466297.2052,26182290.603155322,21,16,10,41250000.0, 1, 1,30
649,173814466297.2052,26182290.603155322,21,16,10,41250000.0, 1, 1,30
4,59, 2
11,9356392518.17526,99999999999999.0, 5, 6,60,3020815.0109707066,22,15,30
23,860016397.1114074,99999999999999.0, 1, 1,10,-99999999999999.0, 1, 9,10
59,848160000.0,99999999999999.0, 1, 1,10,-99999999999999.0, 1, 8,10
521,8496376121.063895,99999999999999.0, 5, 6,60,2410934.680044547,22,15,30
637,152254689681.49063,24558859.494962115,23,12,60,-99999999999999.0, 1, 1,30
649,152254689681.49063,24558859.494962115,23,12,60,-99999999999999.0, 1, 1,30
4,90, 3
11,10983232874.946795,99999999999999.0, 5, 6,60,3299216.5876899236,27,13,20
23,921289345.1864997,99999999999999.0, 1, 1,10,698986.993833438,26,14,60
59,897480000.0,99999999999999.0, 1, 1,10,-99999999999999.0, 1, 8,10
521,10061943529.760284,0.0,27,14,30,2633101.280831062,27,13,40
637,152460893433.4243,0.0,27,14,30,-99999999999999.0, 1, 1,30
649,152460893433.4243,0.0,27,14,30,-99999999999999.0, 1, 1,30
4,120, 4
11,9753948197.914557,30000.0,11,19,10,3319026.0354565186,24,10,30
23,969581630.0585322,99999999999999.0, 1, 1,10,700697.834682174,24,16,60
59,929520000.0,99999999999999.0, 1, 1,10,-99999999999999.0, 1, 8,10
521,8784366567.856102,99999999999999.0,27,14,30,2638419.807267824,12, 2,40
637,112536391074.84914,99999999999999.0,27,14,30,-99999999999999.0, 1, 1,30
649,112536391074.84914,99999999999999.0,27,14,30,-99999999999999.0, 1, 1,30
4,151, 5
11,9254999104.27834,99999999999999.0,11,19,10,3321291.198034155,13,13,30
23,1051752407.9186913,99999999999999.0, 1, 1,10,705066.4154932587,13,13,60
59,970200000.0,99999999999999.0, 1, 1,10,-99999999999999.0, 1, 8,10
521,8203246696.359648,99999999999999.0,27,14,30,-99999999999999.0,12, 2,40
637,84333167034.00603,99999999999999.0,27,14,30,-99999999999999.0, 1, 1,30
649,84333167034.00603,99999999999999.0,27,14,30,-99999999999999.0, 1, 1,30
4,181, 6
11,7471454980.695987,99999999999999.0,11,19,10,-99999999999999.0,13,13,30
23,940035280.451093,99999999999999.0, 1, 1,10,-99999999999999.0,13,13,60
59,856800000.0,99999999999999.0, 1, 1,10,-99999999999999.0, 1, 8,10
521,6531419700.244971,99999999999999.0,27,14,30,2645426.28188769,29, 7,20
637,37648038228.36564,99999999999999.0,27,14,30,-99999999999999.0, 1, 1,30
649,37648038228.36564,99999999999999.0,27,14,30,-99999999999999.0, 1, 1,30
4,212, 7
11,7124156651.588394,99999999999999.0,11,19,10,-99999999999999.0,13,13,30
23,1021918384.5442625,99999999999999.0, 1, 1,10,-99999999999999.0,13,13,60
59,970200000.0,99999999999999.0, 1, 1,10,-99999999999999.0, 1, 8,10
521,6102238267.044179,99999999999999.0,27,14,30,-99999999999999.0,29, 7,20
637,14053914929.404245,99999999999999.0,27,14,30,-99999999999999.0, 1, 1,30
649,14053914929.404245,99999999999999.0,27,14,30,-99999999999999.0, 1, 1,30
4,243, 8
11,6397699109.044759,99999999999999.0,11,19,10,-99999999999999.0,13,13,30
23,1007052683.2149559,99999999999999.0, 1, 1,10,-99999999999999.0,13,13,60
59,933840000.0,99999999999999.0, 1, 1,10,-99999999999999.0, 1, 8,10
521,5390646425.829926,99999999999999.0,27,14,30,-99999999999999.0,29, 7,20
637,26157714067.02598,99999999999999.0,27,14,30,-99999999999999.0, 1, 1,30
649,26157714067.02598,99999999999999.0,27,14,30,-99999999999999.0, 1, 1,30
4,273, 9
11,7856275823.142452,99999999999999.0,11,19,10,3321594.4627860673, 2,11,20
23,994113075.6273576,99999999999999.0, 1, 1,10,-99999999999999.0,13,13,60
59,893160000.0,99999999999999.0, 1, 1,10,-99999999999999.0, 1, 8,10
521,6862162747.515177,99999999999999.0,27,14,30,2647016.8614544556,27, 4,60
637,58219641864.53699,99999999999999.0,27,14,30,-99999999999999.0, 1, 1,30
649,58219641864.53699,99999999999999.0,27,14,30,-99999999999999.0, 1, 1,30
4,304,10
11,10620363470.569044,99999999999999.0,11,19,10,3332393.9422048135,30,13,40
23,1038828982.6873817,99999999999999.0, 1, 1,10,-99999999999999.0,13,13,60
59,970200000.0,99999999999999.0, 1, 1,10,-99999999999999.0, 1, 8,10
521,9581534487.881693,99999999999999.0,27,14,30,-99999999999999.0,27, 4,60
637,118324127815.38725,99999999999999.0,27,14,30,-99999999999999.0, 1, 1,30
649,118324127815.38725,99999999999999.0,27,14,30,-99999999999999.0, 1, 1,30
4,334,11
11,10516112108.294596,99999999999999.0,11,19,10,-99999999999999.0,30,13,40
23,942537227.8752849,99999999999999.0, 1, 1,10,-99999999999999.0,13,13,60
59,893160000.0,99999999999999.0, 1, 1,10,-99999999999999.0, 1, 8,10
521,9573574880.41931,99999999999999.0,27,14,30,-99999999999999.0,27, 4,60
637,139606108776.96326,99999999999999.0,27,14,30,-99999999999999.0, 1, 1,30
649,139606108776.96326,99999999999999.0,27,14,30,-99999999999999.0, 1, 1,30
4,365,12
11,10435832657.206347,99999999999999.0,11,19,10,-99999999999999.0,30,13,40
23,946882036.8225487,99999999999999.0, 1, 1,10,-99999999999999.0,13,13,60
59,933840000.0,99999999999999.0, 1, 1,10,-99999999999999.0, 1, 8,10
521,9488950620.383821,99999999999999.0,27,14,30,-99999999999999.0,27, 4,60
637,174359689817.57254,99999999999999.0,27,14,30,-99999999999999.0, 1, 1,30
649,174359689817.57254,99999999999999.0,27,14,30,-99999999999999.0, 1, 1,30
5,365
13,109593352453.77243,30000.0, 4,11,19,10,3332393.9422048135,10,30,13,40
25,11677842308.177004,30000.0, 1, 1, 1,10,705066.4154932587, 5,13,13,60
61,11066760000.0,30000.0, 1, 1, 1,10,600000.0, 1, 1, 8,10
523,97915510145.59454,0.0, 3,27,14,30,2647016.8614544556, 9,27, 4,60
639,1243768843020.2432,0.0, 3,27,14,30,41250000.0, 1, 1, 1,30
651,1243768843020.2432,0.0, 3,27,14,30,41250000.0, 1, 1, 1,30
1,RUN PERIOD 2,  41.98, -87.92,  -6.00, 201.00
4,1, 7
11,124424405.63236195,99999999999999.0,11,19,10,-99999999999999.0,30,13,40
23,41272819.85556959,99999999999999.0, 1, 1,10,-99999999999999.0,13,13,60
59,40680000.0,99999999999999.0, 1, 1,10,-99999999999999.0, 1, 8,10
521,83151585.77679238,99999999999999.0,27,14,30,-99999999999999.0,27, 4,60
637,0.0,99999999999999.0,27,14,30,-99999999999999.0, 1, 1,30
649,0.0,99999999999999.0,27,14,30,-99999999999999.0, 1, 1,30
5,1
13,124424405.63236195,99999999999999.0, 4,11,19,10,-99999999999999.0,10,30,13,40
25,41272819.85556959,99999999999999.0, 1, 1, 1,10,-99999999999999.0, 5,13,13,60
61,40680000.0,99999999999999.0, 1, 1, 1,10,-99999999999999.0, 1, 1, 8,10
523,83151585.77679238,99999999999999.0, 3,27,14,30,-99999999999999.0, 9,27, 4,60
639,0.0,99999999999999.0, 3,27,14,30,-99999999999999.0, 1, 1, 1,30
651,0.0,99999999999999.0, 3,27,14,30,-99999999999999.0, 1, 1, 1,30
End of Data
 Number of Records Written=          90
