Program Version,EnergyPlus, Version 24.1.0-9d7789a3ac, YMD=2024.10.18 13:36
1,5,Environment Title[],Latitude[deg],Longitude[deg],Time Zone[],Elevation[m]
2,8,Day of Simulation[],Month[],Day of Month[],DST Indicator[1=yes 0=no],Hour[],StartMinute[],EndMinute[],DayType
3,5,Cumulative Day of Simulation[],Month[],Day of Month[],DST Indicator[1=yes 0=no],DayType  ! When Daily Report Variables Requested
4,2,Cumulative Days of Simulation[],Month[]  ! When Monthly Report Variables Requested
5,1,Cumulative Days of Simulation[] ! When Run Period Report Variables Requested
6,1,Calendar Year of Simulation[] ! When Annual Report Variables Requested
250,1,LIVING ZONE,Zone Air Temperature [C] !TimeStep,REPORTSCH
251,1,LIVING ZONE,Zone Air System Sensible Heating Energy [J] !TimeStep,REPORTSCH
336,1,LIVING ZONE,Zone Air System Sensible Cooling Energy [J] !TimeStep,REPORTSCH
385,1,LIVING ZONE,Zone Thermostat Heating Setpoint Temperature [C] !TimeStep,REPORTSCH
386,1,LIVING ZONE,Zone Thermostat Cooling Setpoint Temperature [C] !TimeStep,REPORTSCH
387,1,GARAGE ZONE,Zone Air Temperature [C] !TimeStep,REPORTSCH
388,1,GARAGE ZONE,Zone Air System Sensible Heating Energy [J] !TimeStep,REPORTSCH
425,1,GARAGE ZONE,Zone Air System Sensible Cooling Energy [J] !TimeStep,REPORTSCH
450,1,GARAGE ZONE,Zone Thermostat Heating Setpoint Temperature [C] !TimeStep,REPORTSCH
451,1,GARAGE ZONE,Zone Thermostat Cooling Setpoint Temperature [C] !TimeStep,REPORTSCH
452,1,ATTIC ZONE,Zone Air Temperature [C] !TimeStep,REPORTSCH
453,1,ATTIC ZONE,Zone Air System Sensible Heating Energy [J] !TimeStep,REPORTSCH
490,1,ATTIC ZONE,Zone Air System Sensible Cooling Energy [J] !TimeStep,REPORTSCH
515,1,ATTIC ZONE,Zone Thermostat Heating Setpoint Temperature [C] !TimeStep,REPORTSCH
516,1,ATTIC ZONE,Zone Thermostat Cooling Setpoint Temperature [C] !TimeStep,REPORTSCH
542,1,ACDXCOIL 1,Cooling Coil Total Cooling Energy [J] !TimeStep,REPORTSCH
592,1,HEAT PUMP DX HEATING COIL 1,Heating Coil Heating Energy [J] !TimeStep,REPORTSCH
632,1,SUPP HEATING COIL 1,Heating Coil Heating Energy [J] !TimeStep,REPORTSCH
686,1,TWOSPEED HEAT PUMP 1,Unitary System DX Coil Cycling Ratio [] !TimeStep,REPORTSCH
687,1,TWOSPEED HEAT PUMP 1,Unitary System DX Coil Speed Ratio [] !TimeStep,REPORTSCH
688,1,TWOSPEED HEAT PUMP 1,Unitary System DX Coil Speed Level [] !TimeStep
End of Data Dictionary
1,CHICAGO_IL_USA ANNUAL HEATING 99% DESIGN CONDITIONS DB,  41.98, -87.92,  -6.00, 201.00
2,1, 1,21, 0, 1, 0.00,10.00,WinterDesignDay
250,21.283806720677315
251,15356676.201578397
336,0.0
385,21.630681345499966
386,27.654812171284725
387,-17.56667829315887
388,0.0
425,0.0
450,0.0
451,0.0
452,-18.239463260708703
453,0.0
490,0.0
515,0.0
516,0.0
542,0.0
592,0.0
632,14998318.51515579
686,1.0
687,1.0
688,2.0
2,1, 1,21, 0, 1,10.00,20.00,WinterDesignDay
250,21.66518252126381
251,14478720.370785946
336,0.0
385,21.630681345499962
386,27.654812171284725
387,-17.5666774688372
388,0.0
425,0.0
450,0.0
451,0.0
452,-18.239582697342577
453,0.0
490,0.0
515,0.0
516,0.0
542,0.0
592,0.0
632,14086760.843998611
686,1.0
687,1.0
688,2.0
2,1, 1,21, 0, 1,20.00,30.00,WinterDesignDay
250,21.910048162040784
251,15465137.862046542
336,0.0
385,22.29734801216663
386,27.654812171284725
387,-17.56657033552112
388,0.0
425,0.0
450,0.0
451,0.0
452,-18.23951625788679
453,0.0
490,0.0
515,0.0
516,0.0
542,0.0
592,0.0
632,15941213.60536945
686,1.0
687,1.0
688,2.0
2,1, 1,21, 0, 1,30.00,40.00,WinterDesignDay
250,22.26270453099371
251,16565586.91346462
336,0.0
385,22.29734801216663
386,27.654812171284725
387,-17.566573843674785
388,0.0
425,0.0
450,0.0
451,0.0
452,-18.239372671374426
453,0.0
490,0.0
515,0.0
516,0.0
542,0.0
592,0.0
632,16408030.19678764
686,1.0
687,1.0
688,2.0
2,1, 1,21, 0, 1,40.00,50.00,WinterDesignDay
250,21.28380671878751
251,15356676.234216873
336,0.0
385,21.630681345499934
386,27.654812171284686
387,-17.566683137248393
388,0.0
425,0.0
450,0.0
451,0.0
452,-18.239463740294546
453,0.0
490,0.0
515,0.0
516,0.0
542,0.0
592,0.0
632,14998318.54730336
686,0.9999999999999986
687,0.9999999999999986
688,1.9999999999999971
2,1, 1,21, 0, 1,50.00,60.00,WinterDesignDay
250,21.66518252116798
251,14478720.410797475
336,0.0
385,21.63068134549998
386,27.654812171284746
387,-17.56668225244833
388,0.0
425,0.0
450,0.0
451,0.0
452,-18.239583170772956
453,0.0
490,0.0
515,0.0
516,0.0
542,0.0
592,0.0
632,14086760.884334236
686,1.0000000000000009
687,1.0000000000000009
688,2.0000000000000018
2,1, 1,21, 0, 2, 0.00,10.00,WinterDesignDay
250,21.9100481622842
251,15465137.901860865
336,0.0
385,22.29734801216663
386,27.654812171284725
387,-17.566575046489646
388,0.0
425,0.0
450,0.0
451,0.0
452,-18.239516724136525
453,0.0
490,0.0
515,0.0
516,0.0
542,0.0
592,0.0
632,15941213.645355206
686,1.0
687,1.0
688,2.0
2,1, 1,21, 0, 2,10.00,20.00,WinterDesignDay
250,22.262704531030977
251,16565586.95371151
336,0.0
385,22.29734801216663
386,27.654812171284725
387,-17.566578491250855
388,0.0
425,0.0
450,0.0
451,0.0
452,-18.239373131499747
453,0.0
490,0.0
515,0.0
516,0.0
542,0.0
592,0.0
632,16408030.236972809
686,1.0
687,1.0
688,2.0
2,1, 1,21, 0, 2,20.00,30.00,WinterDesignDay
250,21.283806716995453
251,15356676.265168395
336,0.0
385,21.63068134549998
386,27.65481217128475
387,-17.56668773098601
388,0.0
425,0.0
450,0.0
451,0.0
452,-18.23946419509906
453,0.0
490,0.0
515,0.0
516,0.0
542,0.0
592,0.0
632,14998318.577789344
686,1.0000000000000007
687,1.0000000000000007
688,2.0000000000000013
2,1, 1,21, 0, 2,30.00,40.00,WinterDesignDay
250,21.66518252107709
251,14478720.448741082
336,0.0
385,21.63068134549998
386,27.654812171284746
387,-17.566686788833195
388,0.0
425,0.0
450,0.0
451,0.0
452,-18.239583619739918
453,0.0
490,0.0
515,0.0
516,0.0
542,0.0
592,0.0
632,14086760.922585186
686,1.0000000000000009
687,1.0000000000000009
688,2.0000000000000018
2,1, 1,21, 0, 2,40.00,50.00,WinterDesignDay
250,21.910048162515032
251,15465137.939617474
336,0.0
385,22.29734801216663
386,27.654812171284725
387,-17.566579513986458
388,0.0
425,0.0
450,0.0
451,0.0
452,-18.23951716629381
453,0.0
490,0.0
515,0.0
516,0.0
542,0.0
592,0.0
632,15941213.683274396
686,1.0
687,1.0
688,2.0
2,1, 1,21, 0, 2,50.00,60.00,WinterDesignDay
250,22.26270453106632
251,16565586.991878325
336,0.0
385,22.29734801216663
386,27.654812171284725
387,-17.56658289863134
388,0.0
425,0.0
450,0.0
451,0.0
452,-18.239373567849004
453,0.0
490,0.0
515,0.0
516,0.0
542,0.0
592,0.0
632,16408030.27508109
686,1.0
687,1.0
688,2.0
2,1, 1,21, 0, 3, 0.00,10.00,WinterDesignDay
250,21.283806715295956
251,15356676.294520233
336,0.0
385,21.630681345499966
386,27.654812171284725
387,-17.566692087310624
388,0.0
425,0.0
450,0.0
451,0.0
452,-18.239464626402324
453,0.0
490,0.0
515,0.0
516,0.0
542,0.0
592,0.0
632,14998318.606699709
686,1.0
687,1.0
688,2.0
2,1, 1,21, 0, 3,10.00,20.00,WinterDesignDay
250,21.66518252099088
251,14478720.48472343
336,0.0
385,21.630681345499962
386,27.654812171284725
387,-17.566691090768753
388,0.0
425,0.0
450,0.0
451,0.0
452,-18.239584045507257
453,0.0
490,0.0
515,0.0
516,0.0
542,0.0
592,0.0
632,14086760.958858991
686,1.0
687,1.0
688,2.0
2,1, 1,21, 0, 3,20.00,30.00,WinterDesignDay
250,21.91004816273393
251,15465137.975422522
336,0.0
385,22.29734801216663
386,27.654812171284725
387,-17.566583750593367
388,0.0
425,0.0
450,0.0
451,0.0
452,-18.2395175856033
453,0.0
490,0.0
515,0.0
516,0.0
542,0.0
592,0.0
632,15941213.719233613
686,1.0
687,1.0
688,2.0
2,1, 1,21, 0, 3,30.00,40.00,WinterDesignDay
250,22.262704531099832
251,16565587.02807234
336,0.0
385,22.29734801216663
386,27.654812171284725
387,-17.56658707822837
388,0.0
425,0.0
450,0.0
451,0.0
452,-18.23937398165051
453,0.0
490,0.0
515,0.0
516,0.0
542,0.0
592,0.0
632,16408030.311219603
686,1.0
687,1.0
688,2.0
2,1, 1,21, 0, 3,40.00,50.00,WinterDesignDay
250,21.28380671368429
251,15356676.322354984
336,0.0
385,21.630681345499934
386,27.654812171284686
387,-17.566696218489913
388,0.0
425,0.0
450,0.0
451,0.0
452,-18.239465035418494
453,0.0
490,0.0
515,0.0
516,0.0
542,0.0
592,0.0
632,14998318.634115804
686,0.9999999999999986
687,0.9999999999999986
688,1.9999999999999971
2,1, 1,21, 0, 3,50.00,60.00,WinterDesignDay
250,21.665182520909156
251,14478720.51884615
336,0.0
385,21.63068134549998
386,27.654812171284746
387,-17.566695170369933
388,0.0
425,0.0
450,0.0
451,0.0
452,-18.23958444927354
453,0.0
490,0.0
515,0.0
516,0.0
542,0.0
592,0.0
632,14086760.99325811
686,1.0000000000000009
687,1.0000000000000009
688,2.0000000000000018
2,1, 1,21, 0, 4, 0.00,10.00,WinterDesignDay
250,21.910048162941514
251,15465138.009377103
336,0.0
385,22.29734801216663
386,27.654812171284725
387,-17.566587768242563
388,0.0
425,0.0
450,0.0
451,0.0
452,-18.239517983245335
453,0.0
490,0.0
515,0.0
516,0.0
542,0.0
592,0.0
632,15941213.753334401
686,1.0
687,1.0
688,2.0
2,1, 1,21, 0, 4,10.00,20.00,WinterDesignDay
250,22.26270453113161
251,16565587.06239583
336,0.0
385,22.29734801216663
386,27.654812171284725
387,-17.566591041813986
388,0.0
425,0.0
450,0.0
451,0.0
452,-18.2393743740691
453,0.0
490,0.0
515,0.0
516,0.0
542,0.0
592,0.0
632,16408030.345490452
686,1.0
687,1.0
688,2.0
2,1, 1,21, 0, 4,20.00,30.00,WinterDesignDay
250,21.28380671215599
251,15356676.348751124
336,0.0
385,21.63068134549998
386,27.65481217128475
387,-17.566700136160257
388,0.0
425,0.0
450,0.0
451,0.0
452,-18.239465423299038
453,0.0
490,0.0
515,0.0
516,0.0
542,0.0
592,0.0
632,14998318.660114923
686,1.0000000000000007
687,1.0000000000000007
688,2.0000000000000013
2,1, 1,21, 0, 4,30.00,40.00,WinterDesignDay
250,21.665182520831642
251,14478720.551205156
336,0.0
385,21.63068134549998
386,27.654812171284746
387,-17.566699039127876
388,0.0
425,0.0
450,0.0
451,0.0
452,-18.23958483217535
453,0.0
490,0.0
515,0.0
516,0.0
542,0.0
592,0.0
632,14086761.025879223
686,1.0000000000000009
687,1.0000000000000009
688,2.0000000000000018
2,1, 1,21, 0, 4,40.00,50.00,WinterDesignDay
250,21.91004816313837
251,15465138.041576656
336,0.0
385,22.29734801216663
386,27.654812171284725
387,-17.566591578250133
388,0.0
425,0.0
450,0.0
451,0.0
452,-18.239518360339325
453,0.0
490,0.0
515,0.0
516,0.0
542,0.0
592,0.0
632,15941213.785672605
686,1.0
687,1.0
688,2.0
2,1, 1,21, 0, 4,50.00,60.00,WinterDesignDay
250,22.262704531161752
251,16565587.0949452
336,0.0
385,22.29734801216663
386,27.654812171284725
387,-17.566594800551968
388,0.0
425,0.0
450,0.0
451,0.0
452,-18.239374746209528
453,0.0
490,0.0
515,0.0
516,0.0
542,0.0
592,0.0
632,16408030.377989907
686,1.0
687,1.0
688,2.0
2,1, 1,21, 0, 5, 0.00,10.00,WinterDesignDay
250,21.283806710706624
251,15356676.37378288
336,0.0
385,21.630681345499966
386,27.654812171284725
387,-17.56670385135574
388,0.0
425,0.0
450,0.0
451,0.0
452,-18.23946579113581
453,0.0
490,0.0
515,0.0
516,0.0
542,0.0
592,0.0
632,14998318.684770182
686,1.0
687,1.0
688,2.0
2,1, 1,21, 0, 5,10.00,20.00,WinterDesignDay
250,21.665182520758115
251,14478720.581891706
336,0.0
385,21.630681345499962
386,27.654812171284725
387,-17.56670270793843
388,0.0
425,0.0
450,0.0
451,0.0
452,-18.239585195290655
453,0.0
490,0.0
515,0.0
516,0.0
542,0.0
592,0.0
632,14086761.056814332
686,1.0
687,1.0
688,2.0
2,1, 1,21, 0, 5,20.00,30.00,WinterDesignDay
250,21.910048163325058
251,15465138.072112026
336,0.0
385,22.29734801216663
386,27.654812171284725
387,-17.566595191346543
388,0.0
425,0.0
450,0.0
451,0.0
452,-18.2395187179469
453,0.0
490,0.0
515,0.0
516,0.0
542,0.0
592,0.0
632,15941213.816339456
686,1.0
687,1.0
688,2.0
2,1, 1,21, 0, 5,30.00,40.00,WinterDesignDay
250,22.262704531190334
251,16565587.125812322
336,0.0
385,22.29734801216663
386,27.654812171284725
387,-17.566598365028415
388,0.0
425,0.0
450,0.0
451,0.0
452,-18.239375099119442
453,0.0
490,0.0
515,0.0
516,0.0
542,0.0
592,0.0
632,16408030.408809692
686,1.0
687,1.0
688,2.0
2,1, 1,21, 0, 5,40.00,50.00,WinterDesignDay
250,21.283806709332158
251,15356676.397520952
336,0.0
385,21.630681345499934
386,27.654812171284686
387,-17.56670737453983
388,0.0
425,0.0
450,0.0
451,0.0
452,-18.2394661399644
453,0.0
490,0.0
515,0.0
516,0.0
542,0.0
592,0.0
632,14998318.708151218
686,0.9999999999999986
687,0.9999999999999986
688,1.9999999999999971
2,1, 1,21, 0, 5,50.00,60.00,WinterDesignDay
250,21.665182520688425
251,14478720.610992208
336,0.0
385,21.63068134549998
386,27.654812171284746
387,-17.566706187134777
388,0.0
425,0.0
450,0.0
451,0.0
452,-18.23958553964177
453,0.0
490,0.0
515,0.0
516,0.0
542,0.0
592,0.0
632,14086761.086150551
686,1.0000000000000009
687,1.0000000000000009
688,2.0000000000000018
2,1, 1,21, 0, 6, 0.00,10.00,WinterDesignDay
250,21.91004816350209
251,15465138.101069126
336,0.0
385,22.29734801216663
386,27.654812171284725
387,-17.56659861770768
388,0.0
425,0.0
450,0.0
451,0.0
452,-18.239519057074805
453,0.0
490,0.0
515,0.0
516,0.0
542,0.0
592,0.0
632,15941213.845421247
686,1.0
687,1.0
688,2.0
2,1, 1,21, 0, 6,10.00,20.00,WinterDesignDay
250,22.262704531217437
251,16565587.15508407
336,0.0
385,22.29734801216663
386,27.654812171284725
387,-17.566601745282203
388,0.0
425,0.0
450,0.0
451,0.0
452,-18.239375433792397
453,0.0
490,0.0
515,0.0
516,0.0
542,0.0
592,0.0
632,16408030.438036546
686,1.0
687,1.0
688,2.0
2,1, 1,21, 0, 6,20.00,30.00,WinterDesignDay
250,21.2838067080288
251,15356676.420032097
336,0.0
385,21.63068134549998
386,27.65481217128475
387,-17.566710715635537
388,0.0
425,0.0
450,0.0
451,0.0
452,-18.239466470766963
453,0.0
490,0.0
515,0.0
516,0.0
542,0.0
592,0.0
632,14998318.730323773
686,1.0000000000000007
687,1.0000000000000007
688,2.0000000000000013
2,1, 1,21, 0, 6,30.00,40.00,WinterDesignDay
250,21.66518252062232
251,14478720.638588687
336,0.0
385,21.63068134549998
386,27.654812171284746
387,-17.566709486516082
388,0.0
425,0.0
450,0.0
451,0.0
452,-18.239585866198105
453,0.0
490,0.0
515,0.0
516,0.0
542,0.0
592,0.0
632,14086761.113970563
686,1.0000000000000009
687,1.0000000000000009
688,2.0000000000000018
2,1, 1,21, 0, 6,40.00,50.00,WinterDesignDay
250,21.910048163669973
251,15465138.128529591
336,0.0
385,22.29734801216663
386,27.654812171284725
387,-17.566601866984723
388,0.0
425,0.0
450,0.0
451,0.0
452,-18.239519378677834
453,0.0
490,0.0
515,0.0
516,0.0
542,0.0
592,0.0
632,15941213.872999957
686,1.0
687,1.0
688,2.0
2,1, 1,21, 0, 6,50.00,60.00,WinterDesignDay
250,22.262704531243138
251,16565587.182842828
336,0.0
385,22.29734801216663
386,27.654812171284725
387,-17.566604950834765
388,0.0
425,0.0
450,0.0
451,0.0
452,-18.23937575117064
453,0.0
490,0.0
515,0.0
516,0.0
542,0.0
592,0.0
632,16408030.465752736
686,1.0
687,1.0
688,2.0
2,1, 1,21, 0, 7, 0.00,10.00,WinterDesignDay
250,21.28380670679275
251,15356676.441379745
336,0.0
385,21.630681345499966
386,27.654812171284725
387,-17.566713884053502
388,0.0
425,0.0
450,0.0
451,0.0
452,-18.239466784474722
453,0.0
490,0.0
515,0.0
516,0.0
542,0.0
592,0.0
632,14998318.751350334
686,1.0
687,1.0
688,2.0
2,1, 1,21, 0, 7,10.00,20.00,WinterDesignDay
250,21.665182520559615
251,14478720.66475882
336,0.0
385,21.630681345499962
386,27.654812171284725
387,-17.56671261537561
388,0.0
425,0.0
450,0.0
451,0.0
452,-18.239586175879083
453,0.0
490,0.0
515,0.0
516,0.0
542,0.0
592,0.0
632,14086761.140352676
686,1.0
687,1.0
688,2.0
2,1, 1,21, 0, 7,20.00,30.00,WinterDesignDay
250,21.910048163829185
251,15465138.154570708
336,0.0
385,22.29734801216663
386,27.654812171284725
387,-17.56660494832918
388,0.0
425,0.0
450,0.0
451,0.0
452,-18.239519683661452
453,0.0
490,0.0
515,0.0
516,0.0
542,0.0
592,0.0
632,15941213.8991532
686,1.0
687,1.0
688,2.0
2,1, 1,21, 0, 7,30.00,40.00,WinterDesignDay
250,22.26270453126751
251,16565587.20916694
336,0.0
385,22.29734801216663
386,27.654812171284725
387,-17.566607990714378
388,0.0
425,0.0
450,0.0
451,0.0
452,-18.23937605214777
453,0.0
490,0.0
515,0.0
516,0.0
542,0.0
592,0.0
632,16408030.49203648
686,1.0
687,1.0
688,2.0
2,1, 1,21, 0, 7,40.00,50.00,WinterDesignDay
250,21.283806705620567
251,15356676.461624093
336,0.0
385,21.630681345499934
386,27.654812171284686
387,-17.566716888717547
388,0.0
425,0.0
450,0.0
451,0.0
452,-18.239467081971007
453,0.0
490,0.0
515,0.0
516,0.0
542,0.0
592,0.0
632,14998318.77129019
686,0.9999999999999986
687,0.9999999999999986
688,1.9999999999999971
2,1, 1,21, 0, 7,50.00,60.00,WinterDesignDay
250,21.66518252050018
251,14478720.689576391
336,0.0
385,21.63068134549998
386,27.654812171284746
387,-17.56671558252539
388,0.0
425,0.0
450,0.0
451,0.0
452,-18.239586469556684
453,0.0
490,0.0
515,0.0
516,0.0
542,0.0
592,0.0
632,14086761.165371269
686,1.0000000000000009
687,1.0000000000000009
688,2.0000000000000018
2,1, 1,21, 0, 8, 0.00,10.00,WinterDesignDay
250,21.91004816398016
251,15465138.179266071
336,0.0
385,22.29734801216663
386,27.654812171284725
387,-17.566607870419634
388,0.0
425,0.0
450,0.0
451,0.0
452,-18.239519972884356
453,0.0
490,0.0
515,0.0
516,0.0
542,0.0
592,0.0
632,15941213.923954898
686,1.0
687,1.0
688,2.0
2,1, 1,21, 0, 8,10.00,20.00,WinterDesignDay
250,22.262704531290627
251,16565587.234130548
336,0.0
385,22.29734801216663
386,27.654812171284725
387,-17.566610873483107
388,0.0
425,0.0
450,0.0
451,0.0
452,-18.239376337571173
453,0.0
490,0.0
515,0.0
516,0.0
542,0.0
592,0.0
632,16408030.516961807
686,1.0
687,1.0
688,2.0
2,1, 1,21, 0, 8,20.00,30.00,WinterDesignDay
250,21.283806704509047
251,15356676.480822071
336,0.0
385,21.63068134549998
386,27.65481217128475
387,-17.566719738091212
388,0.0
425,0.0
450,0.0
451,0.0
452,-18.239467364093475
453,0.0
490,0.0
515,0.0
516,0.0
542,0.0
592,0.0
632,14998318.79019942
686,1.0000000000000007
687,1.0000000000000007
688,2.0000000000000013
2,1, 1,21, 0, 8,30.00,40.00,WinterDesignDay
250,21.665182520443807
251,14478720.713111179
336,0.0
385,21.63068134549998
386,27.654812171284746
387,-17.56671839632397
388,0.0
425,0.0
450,0.0
451,0.0
452,-18.239586748057704
453,0.0
490,0.0
515,0.0
516,0.0
542,0.0
592,0.0
632,14086761.189096687
686,1.0000000000000009
687,1.0000000000000009
688,2.0000000000000018
2,1, 1,21, 0, 8,40.00,50.00,WinterDesignDay
250,21.91004816412333
251,15465138.202684905
336,0.0
385,22.29734801216663
386,27.654812171284725
387,-17.56661064148746
388,0.0
425,0.0
450,0.0
451,0.0
452,-18.239520247160886
453,0.0
490,0.0
515,0.0
516,0.0
542,0.0
592,0.0
632,15941213.947474571
686,1.0
687,1.0
688,2.0
2,1, 1,21, 0, 8,50.00,60.00,WinterDesignDay
250,22.262704531312544
251,16565587.257803787
336,0.0
385,22.29734801216663
386,27.654812171284725
387,-17.56661360726128
388,0.0
425,0.0
450,0.0
451,0.0
452,-18.239376608244527
453,0.0
490,0.0
515,0.0
516,0.0
542,0.0
592,0.0
632,16408030.540598737
686,1.0
687,1.0
688,2.0
2,1, 1,21, 0, 9, 0.00,10.00,WinterDesignDay
250,21.283806703454914
251,15356676.49902774
336,0.0
385,21.630681345499966
386,27.654812171284725
387,-17.56672244019954
388,0.0
425,0.0
450,0.0
451,0.0
452,-18.2394676316364
453,0.0
490,0.0
515,0.0
516,0.0
542,0.0
592,0.0
632,14998318.80813126
686,1.0
687,1.0
688,2.0
2,1, 1,21, 0, 9,10.00,20.00,WinterDesignDay
250,21.665182520390324
251,14478720.735429619
336,0.0
385,21.630681345499962
386,27.654812171284725
387,-17.56672106469528
388,0.0
425,0.0
450,0.0
451,0.0
452,-18.239587012166343
453,0.0
490,0.0
515,0.0
516,0.0
542,0.0
592,0.0
632,14086761.21159591
686,1.0
687,1.0
688,2.0
2,1, 1,21, 0, 9,20.00,30.00,WinterDesignDay
250,21.910048164259113
251,15465138.224893318
336,0.0
385,22.29734801216663
386,27.654812171284725
387,-17.566613269336543
388,0.0
425,0.0
450,0.0
451,0.0
452,-18.239520507263332
453,0.0
490,0.0
515,0.0
516,0.0
542,0.0
592,0.0
632,15941213.969778618
686,1.0
687,1.0
688,2.0
2,1, 1,21, 0, 9,30.00,40.00,WinterDesignDay
250,22.262704531333334
251,16565587.28025354
336,0.0
385,22.29734801216663
386,27.654812171284725
387,-17.566616199747962
388,0.0
425,0.0
450,0.0
451,0.0
452,-18.23937686492998
453,0.0
490,0.0
515,0.0
516,0.0
542,0.0
592,0.0
632,16408030.563014068
686,1.0
687,1.0
688,2.0
2,1, 1,21, 0, 9,40.00,50.00,WinterDesignDay
250,21.283806702455248
251,15356676.516292516
336,0.0
385,21.630681345499934
386,27.654812171284686
387,-17.566725002653513
388,0.0
425,0.0
450,0.0
451,0.0
452,-18.239467885353164
453,0.0
490,0.0
515,0.0
516,0.0
542,0.0
592,0.0
632,14998318.825136364
686,0.9999999999999986
687,0.9999999999999986
688,1.9999999999999971
2,1, 1,21, 0, 9,50.00,60.00,WinterDesignDay
250,21.665182520339645
251,14478720.756594557
336,0.0
385,21.63068134549998
386,27.654812171284746
387,-17.56672359515587
388,0.0
425,0.0
450,0.0
451,0.0
452,-18.23958726262631
453,0.0
490,0.0
515,0.0
516,0.0
542,0.0
592,0.0
632,14086761.23293228
686,1.0000000000000009
687,1.0000000000000009
688,2.0000000000000018
2,1, 1,21, 0,10, 0.00,10.00,WinterDesignDay
250,21.91004816438787
251,15465138.24595387
336,0.0
385,22.29734801216663
386,27.654812171284725
387,-17.566615761368915
388,0.0
425,0.0
450,0.0
451,0.0
452,-18.239520753924086
453,0.0
490,0.0
515,0.0
516,0.0
542,0.0
592,0.0
632,15941213.99092985
686,1.0
687,1.0
688,2.0
2,1, 1,21, 0,10,10.00,20.00,WinterDesignDay
250,22.262704531353048
251,16565587.301542912
336,0.0
385,22.29734801216663
386,27.654812171284725
387,-17.566618658245105
388,0.0
425,0.0
450,0.0
451,0.0
452,-18.23937710835029
453,0.0
490,0.0
515,0.0
516,0.0
542,0.0
592,0.0
632,16408030.584270786
686,1.0
687,1.0
688,2.0
2,1, 1,21, 0,10,20.00,30.00,WinterDesignDay
250,21.28380670150733
251,15356676.53266494
336,0.0
385,21.63068134549998
386,27.65481217128475
387,-17.56672743266992
388,0.0
425,0.0
450,0.0
451,0.0
452,-18.239468125958226
453,0.0
490,0.0
515,0.0
516,0.0
542,0.0
592,0.0
632,14998318.841262529
686,1.0000000000000007
687,1.0000000000000007
688,2.0000000000000013
2,1, 1,21, 0,10,30.00,40.00,WinterDesignDay
250,21.665182520291566
251,14478720.776665496
336,0.0
385,21.63068134549998
386,27.654812171284746
387,-17.566725994832698
388,0.0
425,0.0
450,0.0
451,0.0
452,-18.23958750014279
453,0.0
490,0.0
515,0.0
516,0.0
542,0.0
592,0.0
632,14086761.253165796
686,1.0000000000000009
687,1.0000000000000009
688,2.0000000000000018
2,1, 1,21, 0,10,40.00,50.00,WinterDesignDay
250,21.910048164509966
251,15465138.265925976
336,0.0
385,22.29734801216663
386,27.654812171284725
387,-17.566618124604176
388,0.0
425,0.0
450,0.0
451,0.0
452,-18.239520987837672
453,0.0
490,0.0
515,0.0
516,0.0
542,0.0
592,0.0
632,15941214.010987954
686,1.0
687,1.0
688,2.0
2,1, 1,21, 0,10,50.00,60.00,WinterDesignDay
250,22.26270453137174
251,16565587.32173203
336,0.0
385,22.29734801216663
386,27.654812171284725
387,-17.566620989678988
388,0.0
425,0.0
450,0.0
451,0.0
452,-18.239377339190874
453,0.0
490,0.0
515,0.0
516,0.0
542,0.0
592,0.0
632,16408030.604428943
686,1.0
687,1.0
688,2.0
2,1, 1,21, 0,11, 0.00,10.00,WinterDesignDay
250,21.283806700608338
251,15356676.548191156
336,0.0
385,21.630681345499966
386,27.654812171284725
387,-17.566729737095216
388,0.0
425,0.0
450,0.0
451,0.0
452,-18.239468354128988
453,0.0
490,0.0
515,0.0
516,0.0
542,0.0
592,0.0
632,14998318.856555218
686,1.0
687,1.0
688,2.0
2,1, 1,21, 0,11,10.00,20.00,WinterDesignDay
250,21.665182520245956
251,14478720.795699095
336,0.0
385,21.630681345499962
386,27.654812171284725
387,-17.566728270486212
388,0.0
425,0.0
450,0.0
451,0.0
452,-18.23958772538461
453,0.0
490,0.0
515,0.0
516,0.0
542,0.0
592,0.0
632,14086761.272353567
686,1.0
687,1.0
688,2.0
2,1, 1,21, 0,11,20.00,30.00,WinterDesignDay
250,21.910048164625767
251,15465138.284865793
336,0.0
385,22.29734801216663
386,27.654812171284725
387,-17.566620365698768
388,0.0
425,0.0
450,0.0
451,0.0
452,-18.23952120966281
453,0.0
490,0.0
515,0.0
516,0.0
542,0.0
592,0.0
632,15941214.030009327
686,1.0
687,1.0
688,2.0
2,1, 1,21, 0,11,30.00,40.00,WinterDesignDay
250,22.262704531389467
251,16565587.340877617
336,0.0
385,22.29734801216663
386,27.654812171284725
387,-17.566623200615147
388,0.0
425,0.0
450,0.0
451,0.0
452,-18.2393775581018
453,0.0
490,0.0
515,0.0
516,0.0
542,0.0
592,0.0
632,16408030.623545164
686,1.0
687,1.0
688,2.0
2,1, 1,21, 0,11,40.00,50.00,WinterDesignDay
250,21.283806699755804
251,15356676.562914882
336,0.0
385,21.630681345499934
386,27.654812171284686
387,-17.566731922418356
388,0.0
425,0.0
450,0.0
451,0.0
452,-18.239468570508038
453,0.0
490,0.0
515,0.0
516,0.0
542,0.0
592,0.0
632,14998318.87105749
686,0.9999999999999986
687,0.9999999999999986
688,1.9999999999999971
2,1, 1,21, 0,11,50.00,60.00,WinterDesignDay
250,21.665182520202734
251,14478720.81374898
336,0.0
385,21.63068134549998
386,27.654812171284746
387,-17.56673042852459
388,0.0
425,0.0
450,0.0
451,0.0
452,-18.239587938986098
453,0.0
490,0.0
515,0.0
516,0.0
542,0.0
592,0.0
632,14086761.290549658
686,1.0000000000000009
687,1.0000000000000009
688,2.0000000000000018
2,1, 1,21, 0,12, 0.00,10.00,WinterDesignDay
250,21.91004816473557
251,15465138.30282676
336,0.0
385,22.29734801216663
386,27.654812171284725
387,-17.566622490964445
388,0.0
425,0.0
450,0.0
451,0.0
452,-18.239521420024122
453,0.0
490,0.0
515,0.0
516,0.0
542,0.0
592,0.0
632,15941214.048047636
686,1.0
687,1.0
688,2.0
2,1, 1,21, 0,12,10.00,20.00,WinterDesignDay
250,22.26270453140628
251,16565587.359033655
336,0.0
385,22.29734801216663
386,27.654812171284725
387,-17.566625297281227
388,0.0
425,0.0
450,0.0
451,0.0
452,-18.23937776569948
453,0.0
490,0.0
515,0.0
516,0.0
542,0.0
592,0.0
632,16408030.641673364
686,1.0
687,1.0
688,2.0
2,1, 1,21, 0,12,20.00,30.00,WinterDesignDay
250,21.2838066989474
251,15356676.576877639
336,0.0
385,21.63068134549998
386,27.65481217128475
387,-17.566733994795175
388,0.0
425,0.0
450,0.0
451,0.0
452,-18.23946877570473
453,0.0
490,0.0
515,0.0
516,0.0
542,0.0
592,0.0
632,14998318.884810235
686,1.0000000000000007
687,1.0000000000000007
688,2.0000000000000013
2,1, 1,21, 0,12,30.00,40.00,WinterDesignDay
250,21.665182520161732
251,14478720.83086592
336,0.0
385,21.63068134549998
386,27.654812171284746
387,-17.56673247502665
388,0.0
425,0.0
450,0.0
451,0.0
452,-18.239588141548676
453,0.0
490,0.0
515,0.0
516,0.0
542,0.0
592,0.0
632,14086761.307805246
686,1.0000000000000009
687,1.0000000000000009
688,2.0000000000000018
2,1, 1,21, 0,12,40.00,50.00,WinterDesignDay
250,21.910048164839704
251,15465138.319859361
336,0.0
385,22.29734801216663
386,27.654812171284725
387,-17.56662450638803
388,0.0
425,0.0
450,0.0
451,0.0
452,-18.239521619513976
453,0.0
490,0.0
515,0.0
516,0.0
542,0.0
592,0.0
632,15941214.06515358
686,1.0
687,1.0
688,2.0
2,1, 1,21, 0,12,50.00,60.00,WinterDesignDay
250,22.262704531422223
251,16565587.37625132
336,0.0
385,22.29734801216663
386,27.654812171284725
387,-17.566627285583667
388,0.0
425,0.0
450,0.0
451,0.0
452,-18.239377962568515
453,0.0
490,0.0
515,0.0
516,0.0
542,0.0
592,0.0
632,16408030.658864625
686,1.0
687,1.0
688,2.0
2,1, 1,21, 0,13, 0.00,10.00,WinterDesignDay
250,21.283806698180715
251,15356676.59011878
336,0.0
385,21.630681345499966
386,27.654812171284725
387,-17.5667359600639
388,0.0
425,0.0
450,0.0
451,0.0
452,-18.239468970296798
453,0.0
490,0.0
515,0.0
516,0.0
542,0.0
592,0.0
632,14998318.897852218
686,1.0
687,1.0
688,2.0
2,1, 1,21, 0,13,10.00,20.00,WinterDesignDay
250,21.665182520122833
251,14478720.847098231
336,0.0
385,21.630681345499962
386,27.654812171284725
387,-17.56673441575807
388,0.0
425,0.0
450,0.0
451,0.0
452,-18.23958833364279
453,0.0
490,0.0
515,0.0
516,0.0
542,0.0
592,0.0
632,14086761.324169034
686,1.0
687,1.0
688,2.0
2,1, 1,21, 0,13,20.00,30.00,WinterDesignDay
250,21.910048164938456
251,15465138.336011626
336,0.0
385,22.29734801216663
386,27.654812171284725
387,-17.566626417646745
388,0.0
425,0.0
450,0.0
451,0.0
452,-18.23952180869417
453,0.0
490,0.0
515,0.0
516,0.0
542,0.0
592,0.0
632,15941214.08137539
686,1.0
687,1.0
688,2.0
2,1, 1,21, 0,13,30.00,40.00,WinterDesignDay
250,22.26270453143734
251,16565587.392579067
336,0.0
385,22.29734801216663
386,27.654812171284725
387,-17.566629171122496
388,0.0
425,0.0
450,0.0
451,0.0
452,-18.239378149263313
453,0.0
490,0.0
515,0.0
516,0.0
542,0.0
592,0.0
632,16408030.675167326
686,1.0
687,1.0
688,2.0
2,1, 1,21, 0,13,40.00,50.00,WinterDesignDay
250,21.283806697453652
251,15356676.602675464
336,0.0
385,21.630681345499934
386,27.654812171284686
387,-17.566737823759254
388,0.0
425,0.0
450,0.0
451,0.0
452,-18.239469154832285
453,0.0
490,0.0
515,0.0
516,0.0
542,0.0
592,0.0
632,14998318.910220036
686,0.9999999999999986
687,0.9999999999999986
688,1.9999999999999971
2,1, 1,21, 0,13,50.00,60.00,WinterDesignDay
250,21.665182520085978
251,14478720.862491548
336,0.0
385,21.63068134549998
386,27.654812171284746
387,-17.566736256184186
388,0.0
425,0.0
450,0.0
451,0.0
452,-18.23958851580945
453,0.0
490,0.0
515,0.0
516,0.0
542,0.0
592,0.0
632,14086761.339687046
686,1.0000000000000009
687,1.0000000000000009
688,2.0000000000000018
2,1, 1,21, 0,14, 0.00,10.00,WinterDesignDay
250,21.9100481650321
251,15465138.351329103
336,0.0
385,22.29734801216663
386,27.654812171284725
387,-17.566628230123595
388,0.0
425,0.0
450,0.0
451,0.0
452,-18.239521988097454
453,0.0
490,0.0
515,0.0
516,0.0
542,0.0
592,0.0
632,15941214.096758828
686,1.0
687,1.0
688,2.0
2,1, 1,21, 0,14,10.00,20.00,WinterDesignDay
250,22.26270453145168
251,16565587.408062963
336,0.0
385,22.29734801216663
386,27.654812171284725
387,-17.566630959208975
388,0.0
425,0.0
450,0.0
451,0.0
452,-18.239378326309637
453,0.0
490,0.0
515,0.0
516,0.0
542,0.0
592,0.0
632,16408030.690627478
686,1.0
687,1.0
688,2.0
2,1, 1,21, 0,14,20.00,30.00,WinterDesignDay
250,21.283806696764234
251,15356676.614583224
336,0.0
385,21.63068134549998
386,27.65481217128475
387,-17.56673959113109
388,0.0
425,0.0
450,0.0
451,0.0
452,-18.23946932983094
453,0.0
490,0.0
515,0.0
516,0.0
542,0.0
592,0.0
632,14998318.921948694
686,1.0000000000000007
687,1.0000000000000007
688,2.0000000000000013
2,1, 1,21, 0,14,30.00,40.00,WinterDesignDay
250,21.665182520051005
251,14478720.87708926
336,0.0
385,21.63068134549998
386,27.654812171284746
387,-17.56673800148926
388,0.0
425,0.0
450,0.0
451,0.0
452,-18.239588688561604
453,0.0
490,0.0
515,0.0
516,0.0
542,0.0
592,0.0
632,14086761.354402997
686,1.0000000000000009
687,1.0000000000000009
688,2.0000000000000018
2,1, 1,21, 0,14,40.00,50.00,WinterDesignDay
250,21.910048165120905
251,15465138.36585487
336,0.0
385,22.29734801216663
386,27.654812171284725
387,-17.566629948923676
388,0.0
425,0.0
450,0.0
451,0.0
452,-18.239522158229047
453,0.0
490,0.0
515,0.0
516,0.0
542,0.0
592,0.0
632,15941214.111347139
686,1.0
687,1.0
688,2.0