Program Version,EnergyPlus, Version 24.2.0-94a887817b, YMD=2025.02.04 15:40
1,5,Environment Title[],Latitude[deg],Longitude[deg],Time Zone[],Elevation[m]
2,8,Day of Simulation[],Month[],Day of Month[],DST Indicator[1=yes 0=no],Hour[],StartMinute[],EndMinute[],DayType
3,5,Cumulative Day of Simulation[],Month[],Day of Month[],DST Indicator[1=yes 0=no],DayType  ! When Daily Report Variables Requested
4,2,Cumulative Days of Simulation[],Month[]  ! When Monthly Report Variables Requested
5,1,Cumulative Days of Simulation[] ! When Run Period Report Variables Requested
6,1,Calendar Year of Simulation[] ! When Annual Report Variables Requested
250,1,LIVING ZONE,Zone Air Temperature [C] !TimeStep,REPORTSCH
251,1,LIVING ZONE,Zone Air System Sensible Heating Energy [J] !TimeStep,REPORTSCH
336,1,LIVING ZONE,Zone Air System Sensible Cooling Energy [J] !TimeStep,REPORTSCH
385,1,LIVING ZONE,Zone Thermostat Heating Setpoint Temperature [C] !TimeStep,REPORTSCH
386,1,LIVING ZONE,Zone Thermostat Cooling Setpoint Temperature [C] !TimeStep,REPORTSCH
387,1,GARAGE ZONE,Zone Air Temperature [C] !TimeStep,REPORTSCH
388,1,GARAGE ZONE,Zone Air System Sensible Heating Energy [J] !TimeStep,REPORTSCH
425,1,GARAGE ZONE,Zone Air System Sensible Cooling Energy [J] !TimeStep,REPORTSCH
450,1,GARAGE ZONE,Zone Thermostat Heating Setpoint Temperature [C] !TimeStep,REPORTSCH
451,1,GARAGE ZONE,Zone Thermostat Cooling Setpoint Temperature [C] !TimeStep,REPORTSCH
452,1,ATTIC ZONE,Zone Air Temperature [C] !TimeStep,REPORTSCH
453,1,ATTIC ZONE,Zone Air System Sensible Heating Energy [J] !TimeStep,REPORTSCH
490,1,ATTIC ZONE,Zone Air System Sensible Cooling Energy [J] !TimeStep,REPORTSCH
515,1,ATTIC ZONE,Zone Thermostat Heating Setpoint Temperature [C] !TimeStep,REPORTSCH
516,1,ATTIC ZONE,Zone Thermostat Cooling Setpoint Temperature [C] !TimeStep,REPORTSCH
542,1,ACDXCOIL 1,Cooling Coil Total Cooling Energy [J] !TimeStep,REPORTSCH
592,1,HEAT PUMP DX HEATING COIL 1,Heating Coil Heating Energy [J] !TimeStep,REPORTSCH
632,1,SUPP HEATING COIL 1,Heating Coil Heating Energy [J] !TimeStep,REPORTSCH
686,1,TWOSPEED HEAT PUMP 1,Unitary System DX Coil Cycling Ratio [] !TimeStep,REPORTSCH
687,1,TWOSPEED HEAT PUMP 1,Unitary System DX Coil Speed Ratio [] !TimeStep,REPORTSCH
688,1,TWOSPEED HEAT PUMP 1,Unitary System DX Coil Speed Level [] !TimeStep,REPORTSCH
End of Data Dictionary
1,RUN PERIOD 1,  41.98, -87.92,  -6.00, 201.00
2,21, 1,21, 0, 1, 0.00,10.00,Monday
250,-0.6009035180426489
251,38003775.49962613
336,0.0
385,23.218818775777745
386,28.286173239857625
387,-0.9426396480035137
388,0.0
425,0.0
450,0.0
451,0.0
452,-1.9696113455797655
453,0.0
490,0.0
515,0.0
516,0.0
542,0.0
592,4839743.9850796405
632,32906221.221541528
686,1.0
687,1.0
688,2.0
2,21, 1,21, 0, 1,10.00,20.00,Monday
250,-0.600951662766565
251,38005418.257242434
336,0.0
385,23.218818775777745
386,28.286173239857625
387,-0.9510129033165725
388,0.0
425,0.0
450,0.0
451,0.0
452,-1.9514882442215176
453,0.0
490,0.0
515,0.0
516,0.0
542,0.0
592,4823801.676011795
632,32922699.23572288
686,1.0
687,1.0
688,2.0
2,21, 1,21, 0, 1,20.00,30.00,Monday
250,-0.6010971259441301
251,38007159.75514576
336,0.0
385,23.218818775777745
386,28.286173239857625
387,-0.9606173594440216
388,0.0
425,0.0
450,0.0
451,0.0
452,-1.9484036664920514
453,0.0
490,0.0
515,0.0
516,0.0
542,0.0
592,4807858.162905221
632,32940331.855506018
686,1.0
687,1.0
688,2.0
2,21, 1,21, 0, 1,30.00,40.00,Monday
250,-0.6012217054901198
251,38008873.821567655
336,0.0
385,23.218818775777745
386,28.286173239857625
387,-0.9716577771266206
388,0.0
425,0.0
450,0.0
451,0.0
452,-1.9612638345971365
453,0.0
490,0.0
515,0.0
516,0.0
542,0.0
592,4791913.445623511
632,32958001.878728155
686,1.0
687,1.0
688,2.0
2,21, 1,21, 0, 1,40.00,50.00,Monday
250,-0.6013514989471839
251,38010593.77465487
336,0.0
385,23.218818775777745
386,28.286173239857625
387,-0.984291603243898
388,0.0
425,0.0
450,0.0
451,0.0
452,-1.988450694656488
453,0.0
490,0.0
515,0.0
516,0.0
542,0.0
592,4775967.524030241
632,32975664.943413973
686,1.0
687,1.0
688,2.0
2,21, 1,21, 0, 1,50.00,60.00,Monday
250,-0.6014818149416312
251,38012314.51437996
336,0.0
385,23.218818775777745
386,28.286173239857625
387,-0.9987077370928009
388,0.0
425,0.0
450,0.0
451,0.0
452,-2.028432358038444
453,0.0
490,0.0
515,0.0
516,0.0
542,0.0
592,4760020.397988958
632,32993332.524808265
686,1.0
687,1.0
688,2.0
2,21, 1,21, 0, 2, 0.00,10.00,Monday
250,-0.6016041714174446
251,38014031.03818344
336,0.0
385,23.218818775777745
386,28.286173239857625
387,-1.014226086705043
388,0.0
425,0.0
450,0.0
451,0.0
452,-2.0751675714777633
453,0.0
490,0.0
515,0.0
516,0.0
542,0.0
592,4760020.397988959
632,32995053.33120966
686,1.0
687,1.0
688,2.0
2,21, 1,21, 0, 2,10.00,20.00,Monday
250,-0.60174492704015
251,38014140.05054497
336,0.0
385,23.218818775777745
386,28.286173239857625
387,-1.0299063961753616
388,0.0
425,0.0
450,0.0
451,0.0
452,-2.117875928129069
453,0.0
490,0.0
515,0.0
516,0.0
542,0.0
592,4760020.397988958
632,32995152.43684986
686,1.0
687,1.0
688,2.0
2,21, 1,21, 0, 2,20.00,30.00,Monday
250,-0.6018852609483127
251,38014202.55183454
336,0.0
385,23.218818775777745
386,28.286173239857625
387,-1.0451963221949376
388,0.0
425,0.0
450,0.0
451,0.0
452,-2.1493299204703793
453,0.0
490,0.0
515,0.0
516,0.0
542,0.0
592,4760020.397988958
632,32995215.165229402
686,1.0
687,1.0
688,2.0
2,21, 1,21, 0, 2,30.00,40.00,Monday
250,-0.6020227056218562
251,38014279.82267247
336,0.0
385,23.218818775777745
386,28.286173239857625
387,-1.0597747335225765
388,0.0
425,0.0
450,0.0
451,0.0
452,-2.168709075581351
453,0.0
490,0.0
515,0.0
516,0.0
542,0.0
592,4760020.397988958
632,32995293.991712775
686,1.0
687,1.0
688,2.0
2,21, 1,21, 0, 2,40.00,50.00,Monday
250,-0.6021581587251355
251,38014353.071291335
336,0.0
385,23.218818775777745
386,28.286173239857625
387,-1.0735009743803836
388,0.0
425,0.0
450,0.0
451,0.0
452,-2.178850707940072
453,0.0
490,0.0
515,0.0
516,0.0
542,0.0
592,4760020.397988958
632,32995368.312653128
686,1.0
687,1.0
688,2.0
2,21, 1,21, 0, 2,50.00,60.00,Monday
250,-0.6022912093398294
251,38014424.65154444
336,0.0
385,23.218818775777745
386,28.286173239857625
387,-1.086337365628526
388,0.0
425,0.0
450,0.0
451,0.0
452,-2.182902464737765
453,0.0
490,0.0
515,0.0
516,0.0
542,0.0
592,4760020.397988956
632,32995441.1864794
686,1.0
687,1.0
688,2.0
2,21, 1,21, 0, 3, 0.00,10.00,Monday
250,-0.5208775087010558
251,37970589.03745843
336,0.0
385,23.218818775777745
386,28.286173239857625
387,-1.087899378210308
388,0.0
425,0.0
450,0.0
451,0.0
452,-2.175438206857787
453,0.0
490,0.0
515,0.0
516,0.0
542,0.0
592,4762558.894114006
632,32992974.331659533
686,1.0
687,1.0
688,2.0
2,21, 1,21, 0, 3,10.00,20.00,Monday
250,-0.4377009820459224
251,37927335.98764142
336,0.0
385,23.218818775777745
386,28.286173239857625
387,-1.076883581478895
388,0.0
425,0.0
450,0.0
451,0.0
452,-2.1504807995285247
453,0.0
490,0.0
515,0.0
516,0.0
542,0.0
592,4764988.4357309695
632,32948242.70820411
686,1.0
687,1.0
688,2.0
2,21, 1,21, 0, 3,20.00,30.00,Monday
250,-0.3553235352359264
251,37884563.44595612
336,0.0
385,23.218818775777745
386,28.286173239857625
387,-1.057705231558148
388,0.0
425,0.0
450,0.0
451,0.0
452,-2.106578009561431
453,0.0
490,0.0
515,0.0
516,0.0
542,0.0
592,4767308.250738333
632,32902721.93960858
686,1.0
687,1.0
688,2.0
2,21, 1,21, 0, 3,30.00,40.00,Monday
250,-0.27275258952292636
251,37841677.97072193
336,0.0
385,23.218818775777745
386,28.286173239857625
387,-1.034163168681889
388,0.0
425,0.0
450,0.0
451,0.0
452,-2.0468579504605287
453,0.0
490,0.0
515,0.0
516,0.0
542,0.0
592,4769517.689516207
632,32857733.072723422
686,1.0
687,1.0
688,2.0
2,21, 1,21, 0, 3,40.00,50.00,Monday
250,-0.1901344000743526
251,37798776.47991352
336,0.0
385,23.218818775777745
386,28.286173239857625
387,-1.0075707910876655
388,0.0
425,0.0
450,0.0
451,0.0
452,-1.9758034787577385
453,0.0
490,0.0
515,0.0
516,0.0
542,0.0
592,4771616.115684973
632,32812760.465739425
686,1.0
687,1.0
688,2.0
2,21, 1,21, 0, 3,50.00,60.00,Monday
250,-0.1074890460699455
251,37755867.39025219
336,0.0
385,23.218818775777745
386,28.286173239857625
387,-0.9777328276288658
388,0.0
425,0.0
450,0.0
451,0.0
452,-1.8970342028022324
453,0.0
490,0.0
515,0.0
516,0.0
542,0.0
592,4773602.736238396
632,32767881.266860887
686,1.0
687,1.0
688,2.0
2,21, 1,21, 0, 4, 0.00,10.00,Monday
250,-0.1063595389457903
251,37756866.568452686
336,0.0
385,23.218818775777745
386,28.286173239857625
387,-0.9550348657170269
388,0.0
425,0.0
450,0.0
451,0.0
452,-1.820836579959696
453,0.0
490,0.0
515,0.0
516,0.0
542,0.0
592,4773428.982371633
632,32725154.471078537
686,1.0
687,1.0
688,2.0
2,21, 1,21, 0, 4,10.00,20.00,Monday
250,-0.10697244253855999
251,37757266.83737487
336,0.0
385,23.218818775777745
386,28.286173239857625
387,-0.9423824814788385
388,0.0
425,0.0
450,0.0
451,0.0
452,-1.756247062608638
453,0.0
490,0.0
515,0.0
516,0.0
542,0.0
592,4773255.169447958
632,32724790.15001214
686,1.0
687,1.0
688,2.0
2,21, 1,21, 0, 4,20.00,30.00,Monday
250,-0.10674974316350916
251,37757172.97640869
336,0.0
385,23.218818775777745
386,28.286173239857625
387,-0.9363587935571993
388,0.0
425,0.0
450,0.0
451,0.0
452,-1.7068728134867142
453,0.0
490,0.0
515,0.0
516,0.0
542,0.0
592,4773081.29743726
632,32725320.18890601
686,1.0
687,1.0
688,2.0
2,21, 1,21, 0, 4,30.00,40.00,Monday
250,-0.10668988925452036
251,37757182.3685433
336,0.0
385,23.218818775777745
386,28.286173239857625
387,-0.9331203412943454
388,0.0
425,0.0
450,0.0
451,0.0
452,-1.6710604561264633
453,0.0
490,0.0
515,0.0
516,0.0
542,0.0
592,4772907.3663094025
632,32725415.809030604
686,1.0
687,1.0
688,2.0
2,21, 1,21, 0, 4,40.00,50.00,Monday
250,-0.10664892491348386
251,37757199.14556739
336,0.0
385,23.218818775777745
386,28.286173239857625
387,-0.9308647734308204
388,0.0
425,0.0
450,0.0
451,0.0
452,-1.6451418433305742
453,0.0
490,0.0
515,0.0
516,0.0
542,0.0
592,4772733.376034232
632,32725596.4030458
686,1.0
687,1.0
688,2.0
2,21, 1,21, 0, 4,50.00,60.00,Monday
250,-0.10660588491025044
251,37757214.460969955
336,0.0
385,23.218818775777745
386,28.286173239857625
387,-0.9293917497420451
388,0.0
425,0.0
450,0.0
451,0.0
452,-1.6260566137305084
453,0.0
490,0.0
515,0.0
516,0.0
542,0.0
592,4772559.326581574
632,32725786.885809932
686,1.0
687,1.0
688,2.0
2,21, 1,21, 0, 5, 0.00,10.00,Monday
250,-0.10656553349172039
251,37757231.295414336
336,0.0
385,23.218818775777745
386,28.286173239857625
387,-0.9287471583251106
388,0.0
425,0.0
450,0.0
451,0.0
452,-1.6111880423177578
453,0.0
490,0.0
515,0.0
516,0.0
542,0.0
592,4759720.858689582
632,32738640.740181282
686,1.0
687,1.0
688,2.0
2,21, 1,21, 0, 5,10.00,20.00,Monday
250,-0.10650989288525772
251,37758498.794422306
336,0.0
385,23.218818775777745
386,28.286173239857625
387,-0.9287949108661628
388,0.0
425,0.0
450,0.0
451,0.0
452,-1.5982255771459963
453,0.0
490,0.0
515,0.0
516,0.0
542,0.0
592,4746877.262331866
632,32752760.070861205
686,1.0
687,1.0
688,2.0
2,21, 1,21, 0, 5,20.00,30.00,Monday
250,-0.10645379673537513
251,37759802.62094593
336,0.0
385,23.218818775777745
386,28.286173239857625
387,-0.9293074675318126
388,0.0
425,0.0
450,0.0
451,0.0
452,-1.5857673450196623
453,0.0
490,0.0
515,0.0
516,0.0
542,0.0
592,4734028.534436011
632,32766912.871698182
686,1.0
687,1.0
688,2.0
2,21, 1,21, 0, 5,30.00,40.00,Monday
250,-0.10639816598083296
251,37761094.52344765
336,0.0
385,23.218818775777745
386,28.286173239857625
387,-0.9300819348496847
388,0.0
425,0.0
450,0.0
451,0.0
452,-1.5733790741524696
453,0.0
490,0.0
515,0.0
516,0.0
542,0.0
592,4721174.671927155
632,32781058.387092654
686,1.0
687,1.0
688,2.0
2,21, 1,21, 0, 5,40.00,50.00,Monday
250,-0.10634243720294778
251,37762389.19333631
336,0.0
385,23.218818775777745
386,28.286173239857625
387,-0.9309819853791101
388,0.0
425,0.0
450,0.0
451,0.0
452,-1.5611287835916339
453,0.0
490,0.0
515,0.0
516,0.0
542,0.0
592,4708315.671727969
632,32795212.111031383
686,1.0
687,1.0
688,2.0
2,21, 1,21, 0, 5,50.00,60.00,Monday
250,-0.10628649023748143
251,37763684.563612476
336,0.0
385,23.218818775777745
386,28.286173239857625
387,-0.9319280446571047
388,0.0
425,0.0
450,0.0
451,0.0
452,-1.5491671580489872
453,0.0
490,0.0
515,0.0
516,0.0
542,0.0
592,4695451.530758674
632,32809371.74086016
686,1.0
687,1.0
688,2.0
2,21, 1,21, 0, 6, 0.00,10.00,Monday
250,-0.1062279902796011
251,37764979.03765576
336,0.0
385,23.218818775777745
386,28.286173239857625
387,-0.9330064485434012
388,0.0
425,0.0
450,0.0
451,0.0
452,-1.538189054400078
453,0.0
490,0.0
515,0.0
516,0.0
542,0.0
592,4695264.082255858
632,32810855.03971608
686,1.0
687,1.0
688,2.0
2,21, 1,21, 0, 6,10.00,20.00,Monday
250,-0.10618535870801028
251,37765021.97929849
336,0.0
385,23.218818775777745
386,28.286173239857625
387,-0.9343009122592956
388,0.0
425,0.0
450,0.0
451,0.0
452,-1.5290070312881354
453,0.0
490,0.0
515,0.0
516,0.0
542,0.0
592,4695076.569900009
632,32811076.94573706
686,1.0
687,1.0
688,2.0
2,21, 1,21, 0, 6,20.00,30.00,Monday
250,-0.10614328891885955
251,37765029.130451776
336,0.0
385,23.218818775777745
386,28.286173239857625
387,-0.935806350056772
388,0.0
425,0.0
450,0.0
451,0.0
452,-1.5219503446595979
453,0.0
490,0.0
515,0.0
516,0.0
542,0.0
592,4694888.993658494
632,32811271.37052701
686,1.0
687,1.0
688,2.0
2,21, 1,21, 0, 6,30.00,40.00,Monday
250,-0.10610042045786723
251,37765048.581490815
336,0.0
385,23.218818775777745
386,28.286173239857625
387,-0.9374811343887313
388,0.0
425,0.0
450,0.0
451,0.0
452,-1.5168125992544905
453,0.0
490,0.0
515,0.0
516,0.0
542,0.0
592,4694701.353498662
632,32811478.89198331
686,1.0
687,1.0
688,2.0
2,21, 1,21, 0, 6,40.00,50.00,Monday
250,-0.10605706179640759
251,37765065.48482681
336,0.0
385,23.218818775777745
386,28.286173239857625
387,-0.9392934695459525
388,0.0
425,0.0
450,0.0
451,0.0
452,-1.5131433378928218
453,0.0
490,0.0
515,0.0
516,0.0
542,0.0
592,4694513.649387832
632,32811683.76351829
686,1.0
687,1.0
688,2.0
2,21, 1,21, 0, 6,50.00,60.00,Monday
250,-0.10601313350873351
251,37765081.802723005
336,0.0
385,23.218818775777745
386,28.286173239857625
387,-0.941226232791771
388,0.0
425,0.0
450,0.0
451,0.0
452,-1.51052183868103
453,0.0
490,0.0
515,0.0
516,0.0
542,0.0
592,4694325.881293308
632,32811888.15638303
686,1.0
687,1.0
688,2.0
2,21, 1,21, 0, 7, 0.00,10.00,Monday
250,-0.10714093821580031
251,37765729.37776598
336,0.0
385,23.218818775777745
386,28.286173239857625
387,-0.9457042349982162
388,0.0
425,0.0
450,0.0
451,0.0
452,-1.5138145005982917
453,0.0
490,0.0
515,0.0
516,0.0
542,0.0
592,4723573.583255435
632,32782656.83342833
686,1.0
687,1.0
688,2.0
2,21, 1,21, 0, 7,10.00,20.00,Monday
250,-0.10711201091371729
251,37762848.39436251
336,0.0
385,23.218818775777745
386,28.286173239857625
387,-0.9549027613668297
388,0.0
425,0.0
450,0.0
451,0.0
452,-1.5324913482225344
453,0.0
490,0.0
515,0.0
516,0.0
542,0.0
592,4752837.186047653
632,32751135.36129132
686,1.0
687,1.0
688,2.0
2,21, 1,21, 0, 7,20.00,30.00,Monday
250,-0.10703815243085796
251,37759858.44735656
336,0.0
385,23.218818775777745
386,28.286173239857625
387,-0.9690620339132459
388,0.0
425,0.0
450,0.0
451,0.0
452,-1.5719260586562551
453,0.0
490,0.0
515,0.0
516,0.0
542,0.0
592,4782116.702651945
632,32718890.096530866
686,1.0
687,1.0
688,2.0
2,21, 1,21, 0, 7,30.00,40.00,Monday
250,-0.1069762110452224
251,37756902.64316877
336,0.0
385,23.218818775777745
386,28.286173239857625
387,-0.9872257335684368
388,0.0
425,0.0
450,0.0
451,0.0
452,-1.6297444858490464
453,0.0
490,0.0
515,0.0
516,0.0
542,0.0
592,4811412.146064444
632,32686632.42776465
686,1.0
687,1.0
688,2.0
2,21, 1,21, 0, 7,40.00,50.00,Monday
250,-0.10691089980912048
251,37753938.14877198
336,0.0
385,23.218818775777745
386,28.286173239857625
387,-1.0083140252715967
388,0.0
425,0.0
450,0.0
451,0.0
452,-1.6996919625117912
453,0.0
490,0.0
515,0.0
516,0.0
542,0.0
592,4840723.529295459
632,32654358.362278882
686,1.0
687,1.0
688,2.0
2,21, 1,21, 0, 7,50.00,60.00,Monday
250,-0.10684423381871935
251,37750970.66871327
336,0.0
385,23.218818775777745
386,28.286173239857625
387,-1.0315791372349277
388,0.0
425,0.0
450,0.0
451,0.0
452,-1.7760712578049067
453,0.0
490,0.0
515,0.0
516,0.0
542,0.0
592,4870050.865369482
632,32622064.27292005
686,1.0
687,1.0
688,2.0
2,21, 1,21, 0, 8, 0.00,10.00,Monday
250,0.09365242162130484
251,37640083.02412865
336,0.0
385,23.218818775777745
386,28.286173239857625
387,-1.027667781888454
388,0.0
425,0.0
450,0.0
451,0.0
452,-1.8350341719652066
453,0.0
490,0.0
515,0.0
516,0.0
542,0.0
592,4889730.300311493
632,32599415.880462207
686,1.0
687,1.0
688,2.0
2,21, 1,21, 0, 8,10.00,20.00,Monday
250,0.2943462619499352
251,37534281.97500835
336,0.0
385,23.218818775777745
386,28.286173239857625
387,-0.986046550186282
388,0.0
425,0.0
450,0.0
451,0.0
452,-1.8262453620028345
453,0.0
490,0.0
515,0.0
516,0.0
542,0.0
592,4909380.719869504
632,32474077.089258205
686,1.0
687,1.0
688,2.0
2,21, 1,21, 0, 8,20.00,30.00,Monday
250,0.49253506821512055
251,37429977.269202955
336,0.0
385,23.218818775777745
386,28.286173239857625
387,-0.9149930845494761
388,0.0
425,0.0
450,0.0
451,0.0
452,-1.718913463834912
453,0.0
490,0.0
515,0.0
516,0.0
542,0.0
592,4929009.6156952735
632,32348801.488485955
686,1.0
687,1.0
688,2.0
2,21, 1,21, 0, 8,30.00,40.00,Monday
250,0.6914552193825951
251,37325225.537975244
336,0.0
385,23.218818775777745
386,28.286173239857625
387,-0.8246036797361267
388,0.0
425,0.0
450,0.0
451,0.0
452,-1.5234845554384815
453,0.0
490,0.0
515,0.0
516,0.0
542,0.0
592,4952863.646772657
632,32220596.352084987
686,1.0
687,1.0
688,2.0
2,21, 1,21, 0, 8,40.00,50.00,Monday
250,0.8904670382601808
251,37220025.321701095
336,0.0
385,23.218818775777745
386,28.286173239857625
387,-0.7228817220551537
388,0.0
425,0.0
450,0.0
451,0.0
452,-1.2477354305318618
453,0.0
490,0.0
515,0.0
516,0.0
542,0.0
592,4977062.298687914
632,32091252.537800785
686,1.0
687,1.0
688,2.0
2,21, 1,21, 0, 8,50.00,60.00,Monday
250,1.0903585521582144
251,37115273.04794035
336,0.0
385,23.218818775777745
386,28.286173239857625
387,-0.6269333264486312
388,0.0
425,0.0
450,0.0
451,0.0
452,-0.9345846480995361
453,0.0
490,0.0
515,0.0
516,0.0
542,0.0
592,5001395.306277511
632,31909732.747672763
686,1.0
687,1.0
688,2.0
2,21, 1,21, 0, 9, 0.00,10.00,Monday
250,1.3554914975243486
251,36976413.91293789
336,0.0
385,23.218818775777745
386,28.286173239857625
387,-0.48847555591794956
388,0.0
425,0.0
450,0.0
451,0.0
452,-0.4550325281681512
453,0.0
490,0.0
515,0.0
516,0.0
542,0.0
592,5029363.153609448
632,31759661.21105704
686,1.0
687,1.0
688,2.0
2,21, 1,21, 0, 9,10.00,20.00,Monday
250,1.6205634300017828
251,36836651.3770876
336,0.0
385,23.218818775777745
386,28.286173239857625
387,-0.3376175736283286
388,0.0
425,0.0
450,0.0
451,0.0
452,0.06920319236997342
453,0.0
490,0.0
515,0.0
516,0.0
542,0.0
592,5057356.862312016
632,31591885.258035675
686,1.0
687,1.0
688,2.0
2,21, 1,21, 0, 9,20.00,30.00,Monday
250,1.8857979159643643
251,36696795.14087848
336,0.0
385,23.218818775777745
386,28.286173239857625
387,-0.17771481945460893
388,0.0
425,0.0
450,0.0
451,0.0
452,0.6338848584288939
453,0.0
490,0.0
515,0.0
516,0.0
542,0.0
592,5085392.284952975
632,31424037.713692464
686,1.0
687,1.0
688,2.0
2,21, 1,21, 0, 9,30.00,40.00,Monday
250,2.150956239770781
251,36556978.29280384
336,0.0
385,23.218818775777745
386,28.286173239857625
387,-0.007999276508558001
388,0.0
425,0.0
450,0.0
451,0.0
452,1.2285061186280046
453,0.0
490,0.0
515,0.0
516,0.0
542,0.0
592,5113485.892141593
632,31256108.06760186
686,1.0
687,1.0
688,2.0
2,21, 1,21, 0, 9,40.00,50.00,Monday
250,2.416464646048188
251,36415999.06739686
336,0.0
385,23.218818775777763
386,28.286173239857646
387,0.13712954056795265
388,0.0
425,0.0
450,0.0
451,0.0
452,1.730308455986112
453,0.0
490,0.0
515,0.0
516,0.0
542,0.0
592,5141654.529350725
632,31063194.025050662
686,1.0000000000000009
687,1.0000000000000009
688,2.0000000000000018
2,21, 1,21, 0, 9,50.00,60.00,Monday
250,2.682095059329611
251,36275386.28674466
336,0.0
385,23.218818775777745
386,28.286173239857625
387,0.2892642507081642
388,0.0
425,0.0
450,0.0
451,0.0
452,2.2708935355902202
453,0.0
490,0.0
515,0.0
516,0.0
542,0.0
592,5169915.672059793
632,30919363.54492239
686,1.0
687,1.0
688,2.0
2,21, 1,21, 0,10, 0.00,10.00,Monday
250,3.143470274637168
251,36030598.08245062
336,0.0
385,23.218818775777745
386,28.286173239857625
387,0.47971321934798705
388,0.0
425,0.0
450,0.0
451,0.0
452,2.8302981992396816
453,0.0
490,0.0
515,0.0
516,0.0
542,0.0
592,5241404.10703412
632,30613328.26868947
686,1.0
687,1.0
688,2.0
2,21, 1,21, 0,10,10.00,20.00,Monday
250,3.606129152004808
251,35785725.39366074
336,0.0
385,23.21881877577774
386,28.286173239857625
387,0.7707537528930517
388,0.0
425,0.0
450,0.0
451,0.0
452,3.5851883108074736
453,0.0
490,0.0
515,0.0
516,0.0
542,0.0
592,5315291.857316207
632,30293794.14896324
686,1.0
687,1.0
688,2.0
2,21, 1,21, 0,10,20.00,30.00,Monday
250,4.06922502247524
251,35539357.57169095
336,0.0
385,23.218818775777734
386,28.286173239857618
387,1.0511488377815508
388,0.0
425,0.0
450,0.0
451,0.0
452,4.274247201190458
453,0.0
490,0.0
515,0.0
516,0.0
542,0.0
592,5391793.298050373
632,29971046.08827755
686,0.9999999999999996
687,0.9999999999999996
688,1.9999999999999991
2,21, 1,21, 0,10,30.00,40.00,Monday
250,4.532575338434463
251,35292719.498295724
336,0.0
385,23.218818775777756
386,28.28617323985764
387,1.3329203314491633
388,0.0
425,0.0
450,0.0
451,0.0
452,4.975936155402666
453,0.0
490,0.0
515,0.0
516,0.0
542,0.0
592,5471132.199313744
632,29645159.1625354
686,1.0000000000000004
687,1.0000000000000004
688,2.000000000000001
2,21, 1,21, 0,10,40.00,50.00,Monday
250,4.9962404896608685
251,35045771.43747178
336,0.0
385,23.218818775777763
386,28.286173239857646
387,1.6230621077494085
388,0.0
425,0.0
450,0.0
451,0.0
452,5.739971735137505
453,0.0
490,0.0
515,0.0
516,0.0
542,0.0
592,5553542.3757593315
632,29315904.151907735
686,1.0000000000000009
687,1.0000000000000009
688,2.0000000000000018
2,21, 1,21, 0,10,50.00,60.00,Monday
250,5.459931075872746
251,34798662.64136047
336,0.0
385,23.218818775777763
386,28.286173239857646
387,1.9232894341095428
388,0.0
425,0.0
450,0.0
451,0.0
452,6.569060161458667
453,0.0
490,0.0
515,0.0
516,0.0
542,0.0
592,5639267.778995938
632,28983123.333157353
686,1.0000000000000009
687,1.0000000000000009
688,2.0000000000000018
2,21, 1,21, 0,11, 0.00,10.00,Monday
250,5.743488710069492
251,34647772.451607466
336,0.0
385,23.218818775777745
386,28.286173239857625
387,2.2098015758183394
388,0.0
425,0.0
450,0.0
451,0.0
452,7.424287624226022
453,0.0
490,0.0
515,0.0
516,0.0
542,0.0
592,5689519.861596226
632,28749822.380388435
686,1.0
687,1.0
688,2.0
2,21, 1,21, 0,11,10.00,20.00,Monday
250,6.026027051554092
251,34497367.68617204
336,0.0
385,23.21881877577774
386,28.286173239857625
387,2.4795719875899187
388,0.0
425,0.0
450,0.0
451,0.0
452,8.274825500687584
453,0.0
490,0.0
515,0.0
516,0.0
542,0.0
592,5740969.350869595
632,28547794.725146815
686,1.0
687,1.0
688,2.0
2,21, 1,21, 0,11,20.00,30.00,Monday
250,6.308633809450717
251,34346877.73419514
336,0.0
385,23.218818775777734
386,28.286173239857618
387,2.7517309496722104
388,0.0
425,0.0
450,0.0
451,0.0
452,9.121451363807251
453,0.0
490,0.0
515,0.0
516,0.0
542,0.0
592,5793671.095282218
632,28344631.622979127
686,0.9999999999999996
687,0.9999999999999996
688,1.9999999999999991
2,21, 1,21, 0,11,30.00,40.00,Monday
250,6.590858335748859
251,34196540.89016129
336,0.0
385,23.218818775777756
386,28.28617323985764
387,3.0290637510454204
388,0.0
425,0.0
450,0.0
451,0.0
452,9.94337274815382
453,0.0
490,0.0
515,0.0
516,0.0
542,0.0
592,5847681.427966583
632,28140233.01525976
686,1.0000000000000004
687,1.0000000000000004
688,2.000000000000001
2,21, 1,21, 0,11,40.00,50.00,Monday
250,6.872915588141364
251,34046240.438870616
336,0.0
385,23.218818775777763
386,28.286173239857646
387,3.308168738626871
388,0.0
425,0.0
450,0.0
451,0.0
452,10.688916324375713
453,0.0
490,0.0
515,0.0
516,0.0
542,0.0
592,5903058.082199926
632,27934543.645071387
686,1.0000000000000009
687,1.0000000000000009
688,2.0000000000000018
2,21, 1,21, 0,11,50.00,60.00,Monday
250,7.154746830158304
251,33896006.59489022
336,0.0
385,23.218818775777763
386,28.286173239857646
387,3.585193037866203
388,0.0
425,0.0
450,0.0
451,0.0
452,11.324652172247164
453,0.0
490,0.0
515,0.0
516,0.0
542,0.0
592,5959860.237244541
632,27727485.29009533
686,1.0000000000000009
687,1.0000000000000009
688,2.0000000000000018
2,21, 1,21, 0,12, 0.00,10.00,Monday
250,7.421375205709731
251,33753890.08548348
336,0.0
385,23.218818775777745
386,28.286173239857625
387,3.825185297586037
388,0.0
425,0.0
450,0.0
451,0.0
452,11.823800532864137
453,0.0
490,0.0
515,0.0
516,0.0
542,0.0
592,5991096.197635708
632,27577012.191888258
686,1.0
687,1.0
688,2.0
2,21, 1,21, 0,12,10.00,20.00,Monday
250,7.685800577672661
251,33616433.8076805
336,0.0
385,23.218818775777745
386,28.286173239857625
387,4.117570921662944
388,0.0
425,0.0
450,0.0
451,0.0
452,12.387789015704545
453,0.0
490,0.0
515,0.0
516,0.0
542,0.0
592,7572016.881221028
632,25856725.90356922
686,1.0
687,1.0
688,2.0
2,21, 1,21, 0,12,20.00,30.00,Monday
250,7.951350193086325
251,33476666.015540987
336,0.0
385,23.218818775777745
386,28.286173239857625
387,4.386687252872755
388,0.0
425,0.0
450,0.0
451,0.0
452,12.903130085932693
453,0.0
490,0.0
515,0.0
516,0.0
542,0.0
592,7609409.155487607
632,25679850.055464726
686,1.0
687,1.0
688,2.0
2,21, 1,21, 0,12,30.00,40.00,Monday
250,8.216742641673957
251,33336984.89776205
336,0.0
385,23.218818775777745
386,28.286173239857625
387,4.645497826961297
388,0.0
425,0.0
450,0.0
451,0.0
452,13.394685339392876
453,0.0
490,0.0
515,0.0
516,0.0
542,0.0
592,7646583.592010484
632,25502952.045091
686,1.0
687,1.0
688,2.0
2,21, 1,21, 0,12,40.00,50.00,Monday
250,8.482084088492833
251,33197330.928388722
336,0.0
385,23.218818775777745
386,28.286173239857625
387,4.899922004697071
388,0.0
425,0.0
450,0.0
451,0.0
452,13.836543411362532
453,0.0
490,0.0
515,0.0
516,0.0
542,0.0
592,7683540.190789654
632,25326327.798638783
686,1.0
687,1.0
688,2.0
2,21, 1,21, 0,12,50.00,60.00,Monday
250,8.747408976162415
251,33057685.098673392
336,0.0
385,23.218818775777745
386,28.286173239857625
387,5.1488670126775276
388,0.0
425,0.0
450,0.0
451,0.0
452,14.204352150781872
453,0.0
490,0.0
515,0.0
516,0.0
542,0.0
592,7720278.951825122
632,25149939.24457284
686,1.0
687,1.0
688,2.0
2,21, 1,21, 0,13, 0.00,10.00,Monday
250,8.930129123013824
251,32959213.02607283
336,0.0
385,23.218818775777745
386,28.286173239857625
387,5.381251726156164
388,0.0
425,0.0
450,0.0
451,0.0
452,14.495613489233053
453,0.0
490,0.0
515,0.0
516,0.0
542,0.0
592,7745410.487127082
632,25050332.894099552
686,1.0
687,1.0
688,2.0
2,21, 1,21, 0,13,10.00,20.00,Monday
250,9.112208376115966
251,32864949.82242022
336,0.0
385,23.218818775777745
386,28.286173239857625
387,5.60003457195283
388,0.0
425,0.0
450,0.0
451,0.0
452,14.72485682197332
453,0.0
490,0.0
515,0.0
516,0.0
542,0.0
592,7770439.060057996
632,24933898.896200784
686,1.0
687,1.0
688,2.0
2,21, 1,21, 0,13,20.00,30.00,Monday
250,9.295144549347931
251,32770375.471993558
336,0.0
385,23.218818775777745
386,28.286173239857625
387,5.804931306788778
388,0.0
425,0.0
450,0.0
451,0.0
452,14.908019068609326
453,0.0
490,0.0
515,0.0
516,0.0
542,0.0
592,7795364.670617863
632,24814874.02825509
686,1.0
687,1.0
688,2.0
2,21, 1,21, 0,13,30.00,40.00,Monday
250,9.477850545763618
251,32675953.635430403
336,0.0
385,23.218818775777745
386,28.286173239857625
387,5.999961543029637
388,0.0
425,0.0
450,0.0
451,0.0
452,15.056888272178142
453,0.0
490,0.0
515,0.0
516,0.0
542,0.0
592,7820187.318806681
632,24695517.991802406
686,1.0
687,1.0
688,2.0
2,21, 1,21, 0,13,40.00,50.00,Monday
250,9.660484335041255
251,32581604.39496508
336,0.0
385,23.218818775777745
386,28.286173239857625
387,6.188874830613144
388,0.0
425,0.0
450,0.0
451,0.0
452,15.176192101853974
453,0.0
490,0.0
515,0.0
516,0.0
542,0.0
592,7844907.0046244515
632,24576422.95936722
686,1.0
687,1.0
688,2.0
2,21, 1,21, 0,13,50.00,60.00,Monday
250,9.843140325522466
251,32487276.271029327
336,0.0
385,23.218818775777745
386,28.286173239857625
387,6.372971359639612
388,0.0
425,0.0
450,0.0
451,0.0
452,15.269569989123474
453,0.0
490,0.0
515,0.0
516,0.0
542,0.0
592,7869523.728071173
632,24457503.158825748
686,1.0
687,1.0
688,2.0
2,21, 1,21, 0,14, 0.00,10.00,Monday
250,10.042995402296974
251,32383691.813741963
336,0.0
385,23.218818775777745
386,28.286173239857625
387,6.555089224333078
388,0.0
425,0.0
450,0.0
451,0.0
452,15.325629713070276
453,0.0
490,0.0
515,0.0
516,0.0
542,0.0
592,7896260.907308879
632,24336484.25023818
686,1.0
687,1.0
688,2.0
2,21, 1,21, 0,14,10.00,20.00,Monday
250,10.242225349753951
251,32280054.392742112
336,0.0
385,23.218818775777745
386,28.286173239857625
387,6.735360219861733
388,0.0
425,0.0
450,0.0
451,0.0
452,15.32606010950847
453,0.0
490,0.0
515,0.0
516,0.0
542,0.0
592,7922875.552815757
632,24205907.77670848
686,1.0
687,1.0
688,2.0
2,21, 1,21, 0,14,20.00,30.00,Monday
250,10.441250430100633
251,32176534.903438065
336,0.0
385,23.218818775777745
386,28.286173239857625
387,6.911627820544159
388,0.0
425,0.0
450,0.0
451,0.0
452,15.270400118215933
453,0.0
490,0.0
515,0.0
516,0.0
542,0.0
592,7949367.664591796
632,24075798.844097413
686,1.0
687,1.0
688,2.0
2,21, 1,21, 0,14,30.00,40.00,Monday
250,10.640146667590068
251,32073111.41715127
336,0.0
385,23.218818775777745
386,28.286173239857625
387,7.077941544190191
388,0.0
425,0.0
450,0.0
451,0.0
452,15.148126914616096
453,0.0
490,0.0
515,0.0
516,0.0
542,0.0
592,7975737.242637003
632,23945949.67564914
686,1.0
687,1.0
688,2.0
2,21, 1,21, 0,14,40.00,50.00,Monday
250,10.838927058118667
251,31969772.183748618
336,0.0
385,23.218818775777745
386,28.286173239857625
387,7.2306079815723985
388,0.0
425,0.0
450,0.0
451,0.0
452,14.939519693676488
453,0.0
490,0.0
515,0.0
516,0.0
542,0.0
592,8001984.286951372
632,23816314.46258909
686,1.0
687,1.0
688,2.0
2,21, 1,21, 0,14,50.00,60.00,Monday
250,11.037629894714266
251,31866497.185692795
336,0.0
385,23.218818775777745
386,28.286173239857625
387,7.3699169810931044
388,0.0
425,0.0
450,0.0
451,0.0
452,14.6476195346475
453,0.0
490,0.0
515,0.0
516,0.0
542,0.0
592,8028108.797534915
632,23686886.865586776
686,1.0
687,1.0
688,2.0
2,21, 1,21, 0,15, 0.00,10.00,Monday
250,11.302633558878345