Program Version,EnergyPlus, Version 24.1.0-9d7789a3ac, YMD=2024.06.19 21:16
1,5,Environment Title[],Latitude[deg],Longitude[deg],Time Zone[],Elevation[m]
2,8,Day of Simulation[],Month[],Day of Month[],DST Indicator[1=yes 0=no],Hour[],StartMinute[],EndMinute[],DayType
3,5,Cumulative Day of Simulation[],Month[],Day of Month[],DST Indicator[1=yes 0=no],DayType  ! When Daily Report Variables Requested
4,2,Cumulative Days of Simulation[],Month[]  ! When Monthly Report Variables Requested
5,1,Cumulative Days of Simulation[] ! When Run Period Report Variables Requested
6,1,Calendar Year of Simulation[] ! When Annual Report Variables Requested
250,1,LIVING ZONE,Zone Air Temperature [C] !TimeStep,REPORTSCH
251,1,LIVING ZONE,Zone Air System Sensible Heating Energy [J] !TimeStep,REPORTSCH
336,1,LIVING ZONE,Zone Air System Sensible Cooling Energy [J] !TimeStep,REPORTSCH
385,1,LIVING ZONE,Zone Thermostat Heating Setpoint Temperature [C] !TimeStep,REPORTSCH
386,1,LIVING ZONE,Zone Thermostat Cooling Setpoint Temperature [C] !TimeStep,REPORTSCH
387,1,GARAGE ZONE,Zone Air Temperature [C] !TimeStep,REPORTSCH
388,1,GARAGE ZONE,Zone Air System Sensible Heating Energy [J] !TimeStep,REPORTSCH
425,1,GARAGE ZONE,Zone Air System Sensible Cooling Energy [J] !TimeStep,REPORTSCH
450,1,GARAGE ZONE,Zone Thermostat Heating Setpoint Temperature [C] !TimeStep,REPORTSCH
451,1,GARAGE ZONE,Zone Thermostat Cooling Setpoint Temperature [C] !TimeStep,REPORTSCH
452,1,ATTIC ZONE,Zone Air Temperature [C] !TimeStep,REPORTSCH
453,1,ATTIC ZONE,Zone Air System Sensible Heating Energy [J] !TimeStep,REPORTSCH
490,1,ATTIC ZONE,Zone Air System Sensible Cooling Energy [J] !TimeStep,REPORTSCH
515,1,ATTIC ZONE,Zone Thermostat Heating Setpoint Temperature [C] !TimeStep,REPORTSCH
516,1,ATTIC ZONE,Zone Thermostat Cooling Setpoint Temperature [C] !TimeStep,REPORTSCH
542,1,ACDXCOIL 1,Cooling Coil Total Cooling Energy [J] !TimeStep,REPORTSCH
592,1,HEAT PUMP DX HEATING COIL 1,Heating Coil Heating Energy [J] !TimeStep,REPORTSCH
632,1,SUPP HEATING COIL 1,Heating Coil Heating Energy [J] !TimeStep,REPORTSCH
686,1,TWOSPEED HEAT PUMP 1,Unitary System DX Coil Cycling Ratio [] !TimeStep,REPORTSCH
687,1,TWOSPEED HEAT PUMP 1,Unitary System DX Coil Speed Ratio [] !TimeStep,REPORTSCH
688,1,TWOSPEED HEAT PUMP 1,Unitary System DX Coil Speed Level [] !TimeStep
End of Data Dictionary
1,CHICAGO_IL_USA ANNUAL HEATING 99% DESIGN CONDITIONS DB,  41.98, -87.92,  -6.00, 201.00
2,1, 1,21, 0, 1, 0.00,10.00,WinterDesignDay
250,16.483967783516672
251,4160238.9980711737
336,0.0
385,16.260634522247276
386,24.971462339463027
387,-17.694679404901258
388,0.0
425,0.0
450,0.0
451,0.0
452,-18.396475175009215
453,0.0
490,0.0
515,0.0
516,0.0
542,0.0
592,0.0
632,4164831.8744805767
686,0.6000000000000001
687,0.6000000000000001
688,1.2000000000000002
2,1, 1,21, 0, 1,10.00,20.00,WinterDesignDay
250,16.747944247304154
251,5781361.588399773
336,0.0
385,16.793967855580608
386,24.971462339463024
387,-17.69465648881316
388,0.0
425,0.0
450,0.0
451,0.0
452,-18.39644647791059
453,0.0
490,0.0
515,0.0
516,0.0
542,0.0
592,0.0
632,5691566.402389502
686,1.0
687,1.0
688,2.0
2,1, 1,21, 0, 1,20.00,30.00,WinterDesignDay
250,16.897612453966676
251,4234491.626875525
336,0.0
385,16.793967855580604
386,24.971462339463017
387,-17.694682261068287
388,0.0
425,0.0
450,0.0
451,0.0
452,-18.396424347308376
453,0.0
490,0.0
515,0.0
516,0.0
542,0.0
592,0.0
632,4187217.441708915
686,0.6666666666666664
687,0.6666666666666664
688,1.3333333333333328
2,1, 1,21, 0, 1,30.00,40.00,WinterDesignDay
250,16.48396778058537
251,4160239.0236283448
336,0.0
385,16.26063452224727
386,24.97146233946302
387,-17.694682905008822
388,0.0
425,0.0
450,0.0
451,0.0
452,-18.39647555712457
453,0.0
490,0.0
515,0.0
516,0.0
542,0.0
592,0.0
632,4164831.9009253695
686,0.5999999999999996
687,0.5999999999999996
688,1.1999999999999993
2,1, 1,21, 0, 1,40.00,50.00,WinterDesignDay
250,16.747944247175397
251,5781361.622416668
336,0.0
385,16.79396785558062
386,24.971462339463045
387,-17.694659946914417
388,0.0
425,0.0
450,0.0
451,0.0
452,-18.396446855392067
453,0.0
490,0.0
515,0.0
516,0.0
542,0.0
592,0.0
632,5691566.436932207
686,1.0000000000000009
687,1.0000000000000009
688,2.0000000000000018
2,1, 1,21, 0, 1,50.00,60.00,WinterDesignDay
250,16.89761245114172
251,4234491.649067767
336,0.0
385,16.79396785558062
386,24.971462339463045
387,-17.694685662067116
388,0.0
425,0.0
450,0.0
451,0.0
452,-18.39642471873232
453,0.0
490,0.0
515,0.0
516,0.0
542,0.0
592,0.0
632,4187217.4639249733
686,0.6666666666666672
687,0.6666666666666672
688,1.3333333333333344
2,1, 1,21, 0, 2, 0.00,10.00,WinterDesignDay
250,16.483967777769287
251,4160239.0481810807
336,0.0
385,16.260634522247276
386,24.971462339463027
387,-17.694686267612614
388,0.0
425,0.0
450,0.0
451,0.0
452,-18.396475924221857
453,0.0
490,0.0
515,0.0
516,0.0
542,0.0
592,0.0
632,4164831.9263308397
686,0.6000000000000001
687,0.6000000000000001
688,1.2000000000000002
2,1, 1,21, 0, 2,10.00,20.00,WinterDesignDay
250,16.74794424705167
251,5781361.655096646
336,0.0
385,16.793967855580608
386,24.971462339463024
387,-17.694663269161893
388,0.0
425,0.0
450,0.0
451,0.0
452,-18.39644721803765
453,0.0
490,0.0
515,0.0
516,0.0
542,0.0
592,0.0
632,5691566.470117332
686,1.0
687,1.0
688,2.0
2,1, 1,21, 0, 2,20.00,30.00,WinterDesignDay
250,16.897612448427754
251,4234491.670387799
336,0.0
385,16.793967855580604
386,24.971462339463017
387,-17.69468892945502
388,0.0
425,0.0
450,0.0
451,0.0
452,-18.39642507555851
453,0.0
490,0.0
515,0.0
516,0.0
542,0.0
592,0.0
632,4187217.485267883
686,0.6666666666666664
687,0.6666666666666664
688,1.3333333333333328
2,1, 1,21, 0, 2,30.00,40.00,WinterDesignDay
250,16.483967775063867
251,4160239.0717688464
336,0.0
385,16.26063452224727
386,24.97146233946302
387,-17.694689498113483
388,0.0
425,0.0
450,0.0
451,0.0
452,-18.396476276891505
453,0.0
490,0.0
515,0.0
516,0.0
542,0.0
592,0.0
632,4164831.9507378275
686,0.5999999999999996
687,0.5999999999999996
688,1.1999999999999993
2,1, 1,21, 0, 2,40.00,50.00,WinterDesignDay
250,16.747944246932832
251,5781361.686492283
336,0.0
385,16.79396785558062
386,24.971462339463045
387,-17.69466646089161
388,0.0
425,0.0
450,0.0
451,0.0
452,-18.39644756643065
453,0.0
490,0.0
515,0.0
516,0.0
542,0.0
592,0.0
632,5691566.5019982625
686,1.0000000000000009
687,1.0000000000000009
688,2.0000000000000018
2,1, 1,21, 0, 2,50.00,60.00,WinterDesignDay
250,16.897612445820492
251,4234491.690869918
336,0.0
385,16.79396785558062
386,24.971462339463045
387,-17.694692068480435
388,0.0
425,0.0
450,0.0
451,0.0
452,-18.396425418360906
453,0.0
490,0.0
515,0.0
516,0.0
542,0.0
592,0.0
632,4187217.5057719834
686,0.6666666666666672
687,0.6666666666666672
688,1.3333333333333344
2,1, 1,21, 0, 3, 0.00,10.00,WinterDesignDay
250,16.48396777246479
251,4160239.094429564
336,0.0
385,16.260634522247276
386,24.971462339463027
387,-17.69469260170131
388,0.0
425,0.0
450,0.0
451,0.0
452,-18.396476615700756
453,0.0
490,0.0
515,0.0
516,0.0
542,0.0
592,0.0
632,4164831.9741855673
686,0.6000000000000001
687,0.6000000000000001
688,1.2000000000000002
2,1, 1,21, 0, 3,10.00,20.00,WinterDesignDay
250,16.747944246818637
251,5781361.7166539375
336,0.0
385,16.793967855580608
386,24.971462339463024
387,-17.69466952723171
388,0.0
425,0.0
450,0.0
451,0.0
452,-18.396447901131342
453,0.0
490,0.0
515,0.0
516,0.0
542,0.0
592,0.0
632,5691566.532626138
686,1.0
687,1.0
688,2.0
2,1, 1,21, 0, 3,20.00,30.00,WinterDesignDay
250,16.897612443315655
251,4234491.710547101
336,0.0
385,16.793967855580604
386,24.971462339463017
387,-17.694695084186833
388,0.0
425,0.0
450,0.0
451,0.0
452,-18.396425747690763
453,0.0
490,0.0
515,0.0
516,0.0
542,0.0
592,0.0
632,4187217.525470283
686,0.6666666666666664
687,0.6666666666666664
688,1.3333333333333328
2,1, 1,21, 0, 3,30.00,40.00,WinterDesignDay
250,16.48396776996784
251,4160239.116199781
336,0.0
385,16.26063452224727
386,24.97146233946302
387,-17.694695583361955
388,0.0
425,0.0
450,0.0
451,0.0
452,-18.39647694119447
453,0.0
490,0.0
515,0.0
516,0.0
542,0.0
592,0.0
632,4164831.996711882
686,0.5999999999999996
687,0.5999999999999996
688,1.1999999999999993
2,1, 1,21, 0, 3,40.00,50.00,WinterDesignDay
250,16.74794424670896
251,5781361.745630313
336,0.0
385,16.79396785558062
386,24.971462339463045
387,-17.694672473107673
388,0.0
425,0.0
450,0.0
451,0.0
452,-18.396448222678064
453,0.0
490,0.0
515,0.0
516,0.0
542,0.0
592,0.0
632,5691566.5620504115
686,1.0000000000000009
687,1.0000000000000009
688,2.0000000000000018
2,1, 1,21, 0, 3,50.00,60.00,WinterDesignDay
250,16.897612440909295
251,4234491.729450986
336,0.0
385,16.79396785558062
386,24.971462339463045
387,-17.694697981417946
388,0.0
425,0.0
450,0.0
451,0.0
452,-18.39642606407782
453,0.0
490,0.0
515,0.0
516,0.0
542,0.0
592,0.0
632,4187217.544394455
686,0.6666666666666672
687,0.6666666666666672
688,1.3333333333333344
2,1, 1,21, 0, 4, 0.00,10.00,WinterDesignDay
250,16.48396776756903
251,4160239.1371143865
336,0.0
385,16.260634522247276
386,24.971462339463027
387,-17.69469844788465
388,0.0
425,0.0
450,0.0
451,0.0
452,-18.39647725389619
453,0.0
490,0.0
515,0.0
516,0.0
542,0.0
592,0.0
632,4164832.018352867
686,0.6000000000000001
687,0.6000000000000001
688,1.2000000000000002
2,1, 1,21, 0, 4,10.00,20.00,WinterDesignDay
250,16.747944246603566
251,5781361.773467916
336,0.0
385,16.793967855580608
386,24.971462339463024
387,-17.69467530325158
388,0.0
425,0.0
450,0.0
451,0.0
452,-18.39644853158791
453,0.0
490,0.0
515,0.0
516,0.0
542,0.0
592,0.0
632,5691566.590318311
686,1.0
687,1.0
688,2.0
2,1, 1,21, 0, 4,20.00,30.00,WinterDesignDay
250,16.897612438597463
251,4234491.747611976
336,0.0
385,16.793967855580604
386,24.971462339463017
387,-17.694700764828124
388,0.0
425,0.0
450,0.0
451,0.0
452,-18.3964263680308
453,0.0
490,0.0
515,0.0
516,0.0
542,0.0
592,0.0
632,4187217.5625749337
686,0.6666666666666664
687,0.6666666666666664
688,1.3333333333333328
2,1, 1,21, 0, 4,30.00,40.00,WinterDesignDay
250,16.48396776526448
251,4160239.1572070555
336,0.0
385,16.26063452224727
386,24.97146233946302
387,-17.69470119987146
388,0.0
425,0.0
450,0.0
451,0.0
452,-18.396477554308717
453,0.0
490,0.0
515,0.0
516,0.0
542,0.0
592,0.0
632,4164832.0391433695
686,0.5999999999999996
687,0.5999999999999996
688,1.1999999999999993
2,1, 1,21, 0, 4,40.00,50.00,WinterDesignDay
250,16.74794424650234
251,5781361.800211458
336,0.0
385,16.79396785558062
386,24.971462339463045
387,-17.694678022209718
388,0.0
425,0.0
450,0.0
451,0.0
452,-18.39644882835769
453,0.0
490,0.0
515,0.0
516,0.0
542,0.0
592,0.0
632,5691566.617475237
686,1.0000000000000009
687,1.0000000000000009
688,2.0000000000000018
2,1, 1,21, 0, 4,50.00,60.00,WinterDesignDay
250,16.897612436376527
251,4234491.765059238
336,0.0
385,16.79396785558062
386,24.971462339463045
387,-17.694703438888023
388,0.0
425,0.0
450,0.0
451,0.0
452,-18.396426660038586
453,0.0
490,0.0
515,0.0
516,0.0
542,0.0
592,0.0
632,4187217.580040919
686,0.6666666666666672
687,0.6666666666666672
688,1.3333333333333344
2,1, 1,21, 0, 5, 0.00,10.00,WinterDesignDay
250,16.48396776305052
251,4160239.1765100886
336,0.0
385,16.260634522247276
386,24.971462339463027
387,-17.694703843742705
388,0.0
425,0.0
450,0.0
451,0.0
452,-18.396477842915218
453,0.0
490,0.0
515,0.0
516,0.0
542,0.0
592,0.0
632,4164832.0591168124
686,0.6000000000000001
687,0.6000000000000001
688,1.2000000000000002
2,1, 1,21, 0, 5,10.00,20.00,WinterDesignDay
250,16.747944246405066
251,5781361.825904068
336,0.0
385,16.793967855580608
386,24.971462339463024
387,-17.694680634350078
388,0.0
425,0.0
450,0.0
451,0.0
452,-18.396449113464588
453,0.0
490,0.0
515,0.0
516,0.0
542,0.0
592,0.0
632,5691566.643564985
686,1.0
687,1.0
688,2.0
2,1, 1,21, 0, 5,20.00,30.00,WinterDesignDay
250,16.897612434242834
251,4234491.781820811
336,0.0
385,16.793967855580604
386,24.971462339463017
387,-17.69470600789416
388,0.0
425,0.0
450,0.0
451,0.0
452,-18.396426940570656
453,0.0
490,0.0
515,0.0
516,0.0
542,0.0
592,0.0
632,4187217.5968204793
686,0.6666666666666664
687,0.6666666666666664
688,1.3333333333333328
2,1, 1,21, 0, 5,30.00,40.00,WinterDesignDay
250,16.483967760923548
251,4160239.1950545534
336,0.0
385,16.26063452224727
386,24.97146233946302
387,-17.69470638374578
388,0.0
425,0.0
450,0.0
451,0.0
452,-18.396478120179722
453,0.0
490,0.0
515,0.0
516,0.0
542,0.0
592,0.0
632,4164832.07830534
686,0.5999999999999996
687,0.5999999999999996
688,1.1999999999999993
2,1, 1,21, 0, 5,40.00,50.00,WinterDesignDay
250,16.74794424631164
251,5781361.850587062
336,0.0
385,16.79396785558062
386,24.971462339463045
387,-17.694683143868808
388,0.0
425,0.0
450,0.0
451,0.0
452,-18.396449387367113
453,0.0
490,0.0
515,0.0
516,0.0
542,0.0
592,0.0
632,5691566.668629512
686,1.0000000000000009
687,1.0000000000000009
688,2.0000000000000018
2,1, 1,21, 0, 5,50.00,60.00,WinterDesignDay
250,16.89761243219303
251,4234491.797923704
336,0.0
385,16.79396785558062
386,24.971462339463045
387,-17.694708475973307
388,0.0
425,0.0
450,0.0
451,0.0
452,-18.39642721007821
453,0.0
490,0.0
515,0.0
516,0.0
542,0.0
592,0.0
632,4187217.6129406514
686,0.6666666666666672
687,0.6666666666666672
688,1.3333333333333344
2,1, 1,21, 0, 6, 0.00,10.00,WinterDesignDay
250,16.48396775888017
251,4160239.2128702397
336,0.0
385,16.260634522247276
386,24.971462339463027
387,-17.694708823961477
388,0.0
425,0.0
450,0.0
451,0.0
452,-18.396478386548125
453,0.0
490,0.0
515,0.0
516,0.0
542,0.0
592,0.0
632,4164832.0967397797
686,0.6000000000000001
687,0.6000000000000001
688,1.2000000000000002
2,1, 1,21, 0, 6,10.00,20.00,WinterDesignDay
250,16.747944246221863
251,5781361.874299908
336,0.0
385,16.793967855580608
386,24.971462339463024
387,-17.694685554797818
388,0.0
425,0.0
450,0.0
451,0.0
452,-18.39644965050564
453,0.0
490,0.0
515,0.0
516,0.0
542,0.0
592,0.0
632,5691566.692708895
686,1.0
687,1.0
688,2.0
2,1, 1,21, 0, 6,20.00,30.00,WinterDesignDay
250,16.89761243022375
251,4234491.813393736
336,0.0
385,16.793967855580604
386,24.971462339463017
387,-17.694710847090846
388,0.0
425,0.0
450,0.0
451,0.0
452,-18.3964274689945
453,0.0
490,0.0
515,0.0
516,0.0
542,0.0
592,0.0
632,4187217.6284272857
686,0.6666666666666664
687,0.6666666666666664
688,1.3333333333333328
2,1, 1,21, 0, 6,30.00,40.00,WinterDesignDay
250,16.48396775691708
251,4160239.2299858113
336,0.0
385,16.26063452224727
386,24.97146233946302
387,-17.694711168310022
388,0.0
425,0.0
450,0.0
451,0.0
452,-18.3964786424487
453,0.0
490,0.0
515,0.0
516,0.0
542,0.0
592,0.0
632,4164832.114449786
686,0.5999999999999996
687,0.5999999999999996
688,1.1999999999999993
2,1, 1,21, 0, 6,40.00,50.00,WinterDesignDay
250,16.74794424613563
251,5781361.897080961
336,0.0
385,16.79396785558062
386,24.971462339463045
387,-17.694687871009954
388,0.0
425,0.0
450,0.0
451,0.0
452,-18.396449903303363
453,0.0
490,0.0
515,0.0
516,0.0
542,0.0
592,0.0
632,5691566.715842086
686,1.0000000000000009
687,1.0000000000000009
688,2.0000000000000018
2,1, 1,21, 0, 6,50.00,60.00,WinterDesignDay
250,16.89761242833189
251,4234491.828255853
336,0.0
385,16.79396785558062
386,24.971462339463045
387,-17.694713125055134
388,0.0
425,0.0
450,0.0
451,0.0
452,-18.396427717735975
453,0.0
490,0.0
515,0.0
516,0.0
542,0.0
592,0.0
632,4187217.643305351
686,0.6666666666666672
687,0.6666666666666672
688,1.3333333333333344
2,1, 1,21, 0, 7, 0.00,10.00,WinterDesignDay
250,16.483967755031163
251,4160239.246428701
336,0.0
385,16.260634522247276
386,24.971462339463027
387,-17.694713420556738
388,0.0
425,0.0
450,0.0
451,0.0
452,-18.39647888829296
453,0.0
490,0.0
515,0.0
516,0.0
542,0.0
592,0.0
632,4164832.1314637517
686,0.6000000000000001
687,0.6000000000000001
688,1.2000000000000002
2,1, 1,21, 0, 7,10.00,20.00,WinterDesignDay
250,16.74794424605277
251,5781361.918966771
336,0.0
385,16.793967855580608
386,24.971462339463024
387,-17.694690096225766
388,0.0
425,0.0
450,0.0
451,0.0
452,-18.396450146166675
453,0.0
490,0.0
515,0.0
516,0.0
542,0.0
592,0.0
632,5691566.73806619
686,1.0
687,1.0
688,2.0
2,1, 1,21, 0, 7,20.00,30.00,WinterDesignDay
250,16.89761242651433
251,4234491.842533961
336,0.0
385,16.793967855580604
386,24.971462339463017
387,-17.694715313525602
388,0.0
425,0.0
450,0.0
451,0.0
452,-18.396427956702436
453,0.0
490,0.0
515,0.0
516,0.0
542,0.0
592,0.0
632,4187217.6575987814
686,0.6666666666666664
687,0.6666666666666664
688,1.3333333333333328
2,1, 1,21, 0, 7,30.00,40.00,WinterDesignDay
250,16.483967753219325
251,4160239.262225583
336,0.0
385,16.26063452224727
386,24.97146233946302
387,-17.694715584319972
388,0.0
425,0.0
450,0.0
451,0.0
452,-18.396479124476123
453,0.0
490,0.0
515,0.0
516,0.0
542,0.0
592,0.0
632,4164832.147809271
686,0.5999999999999996
687,0.5999999999999996
688,1.1999999999999993
2,1, 1,21, 0, 7,40.00,50.00,WinterDesignDay
250,16.74794424597319
251,5781361.939992592
336,0.0
385,16.79396785558062
386,24.971462339463045
387,-17.694692234020067
388,0.0
425,0.0
450,0.0
451,0.0
452,-18.396450379486115
453,0.0
490,0.0
515,0.0
516,0.0
542,0.0
592,0.0
632,5691566.759417015
686,1.0000000000000009
687,1.0000000000000009
688,2.0000000000000018
2,1, 1,21, 0, 7,50.00,60.00,WinterDesignDay
250,16.897612424768234
251,4234491.856250997
336,0.0
385,16.79396785558062
386,24.971462339463045
387,-17.694717416018577
388,0.0
425,0.0
450,0.0
451,0.0
452,-18.39642818627823
453,0.0
490,0.0
515,0.0
516,0.0
542,0.0
592,0.0
632,4187217.6713305362
686,0.6666666666666672
687,0.6666666666666672
688,1.3333333333333344
2,1, 1,21, 0, 8, 0.00,10.00,WinterDesignDay
250,16.48396775147871
251,4160239.2774016615
336,0.0
385,16.260634522247276
386,24.971462339463027
387,-17.694717663076602
388,0.0
425,0.0
450,0.0
451,0.0
452,-18.396479351377987
453,0.0
490,0.0
515,0.0
516,0.0
542,0.0
592,0.0
632,4164832.163512425
686,0.6000000000000001
687,0.6000000000000001
688,1.2000000000000002
2,1, 1,21, 0, 8,10.00,20.00,WinterDesignDay
250,16.74794424589671
251,5781361.960192127
336,0.0
385,16.793967855580608
386,24.971462339463024
387,-17.69469428782765
388,0.0
425,0.0
450,0.0
451,0.0
452,-18.396450603636772
453,0.0
490,0.0
515,0.0
516,0.0
542,0.0
592,0.0
632,5691566.779928781
686,1.0
687,1.0
688,2.0
2,1, 1,21, 0, 8,20.00,30.00,WinterDesignDay
250,16.89761242309072
251,4234491.869428951
336,0.0
385,16.793967855580604
386,24.971462339463017
387,-17.694719435911175
388,0.0
425,0.0
450,0.0
451,0.0
452,-18.396428406832356
453,0.0
490,0.0
515,0.0
516,0.0
542,0.0
592,0.0
632,4187217.6845226334
686,0.6666666666666664
687,0.6666666666666664
688,1.3333333333333328
2,1, 1,21, 0, 8,30.00,40.00,WinterDesignDay
250,16.483967749806478
251,4160239.291981319
336,0.0
385,16.26063452224727
386,24.97146233946302
387,-17.69471966016526
388,0.0
425,0.0
450,0.0
451,0.0
452,-18.396479569363322
453,0.0
490,0.0
515,0.0
516,0.0
542,0.0
592,0.0
632,4164832.1785984444
686,0.5999999999999996
687,0.5999999999999996
688,1.1999999999999993
2,1, 1,21, 0, 8,40.00,50.00,WinterDesignDay
250,16.747944245823266
251,5781361.979597831
336,0.0
385,16.79396785558062
386,24.971462339463045
387,-17.69469626094789
388,0.0
425,0.0
450,0.0
451,0.0
452,-18.39645081897908
453,0.0
490,0.0
515,0.0
516,0.0
542,0.0
592,0.0
632,5691566.799634445
686,1.0000000000000009
687,1.0000000000000009
688,2.0000000000000018
2,1, 1,21, 0, 8,50.00,60.00,WinterDesignDay
250,16.89761242147916
251,4234491.882089123
336,0.0
385,16.79396785558062
386,24.971462339463045
387,-17.694721376449294
388,0.0
425,0.0
450,0.0
451,0.0
452,-18.396428618719515
453,0.0
490,0.0
515,0.0
516,0.0
542,0.0
592,0.0
632,4187217.6971963914
686,0.6666666666666672
687,0.6666666666666672
688,1.3333333333333344
2,1, 1,21, 0, 9, 0.00,10.00,WinterDesignDay
250,16.483967748199973
251,4160239.305988047
336,0.0
385,16.260634522247276
386,24.971462339463027
387,-17.694721578795274
388,0.0
425,0.0
450,0.0
451,0.0
452,-18.396479778782613
453,0.0
490,0.0
515,0.0
516,0.0
542,0.0
592,0.0
632,4164832.193091637
686,0.6000000000000001
687,0.6000000000000001
688,1.2000000000000002
2,1, 1,21, 0, 9,10.00,20.00,WinterDesignDay
250,16.747944245752677
251,5781361.998241016
336,0.0
385,16.793967855580608
386,24.971462339463024
387,-17.694698156550395
388,0.0
425,0.0
450,0.0
451,0.0
452,-18.396451025859193
453,0.0
490,0.0
515,0.0
516,0.0
542,0.0
592,0.0
632,5691566.8185658045
686,1.0
687,1.0
688,2.0
2,1, 1,21, 0, 9,20.00,30.00,WinterDesignDay
250,16.89761241993089
251,4234491.894251776
336,0.0
385,16.793967855580604
386,24.971462339463017
387,-17.69472324074895
388,0.0
425,0.0
450,0.0
451,0.0
452,-18.396428822280274
453,0.0
490,0.0
515,0.0
516,0.0
542,0.0
592,0.0
632,4187217.709372095
686,0.6666666666666664
687,0.6666666666666664
688,1.3333333333333328
2,1, 1,21, 0, 9,30.00,40.00,WinterDesignDay
250,16.48396774665659
251,4160239.3194443695
336,0.0
385,16.26063452224727
386,24.97146233946302
387,-17.694723422047225
388,0.0
425,0.0
450,0.0
451,0.0
452,-18.396479979972533
453,0.0
490,0.0
515,0.0
516,0.0
542,0.0
592,0.0
632,4164832.2070153067
686,0.5999999999999996
687,0.5999999999999996
688,1.1999999999999993
2,1, 1,21, 0, 9,40.00,50.00,WinterDesignDay
250,16.747944245684888
251,5781362.016151517
336,0.0
385,16.79396785558062
386,24.971462339463045
387,-17.694699977679825
388,0.0
425,0.0
450,0.0
451,0.0
452,-18.396451224609763
453,0.0
490,0.0
515,0.0
516,0.0
542,0.0
592,0.0
632,5691566.836753152
686,1.0000000000000009
687,1.0000000000000009
688,2.0000000000000018
2,1, 1,21, 0, 9,50.00,60.00,WinterDesignDay
250,16.897612418443508
251,4234491.905936427
336,0.0
385,16.79396785558062
386,24.971462339463045
387,-17.694725031805874
388,0.0
425,0.0
450,0.0
451,0.0
452,-18.396429017841935
453,0.0
490,0.0
515,0.0
516,0.0
542,0.0
592,0.0
632,4187217.7210692884
686,0.6666666666666672
687,0.6666666666666672
688,1.3333333333333344
2,1, 1,21, 0,10, 0.00,10.00,WinterDesignDay
250,16.48396774517386
251,4160239.3323719543
336,0.0
385,16.260634522247276
386,24.971462339463027
387,-17.694725192883755
388,0.0
425,0.0
450,0.0
451,0.0
452,-18.396480173256506
453,0.0
490,0.0
515,0.0
516,0.0
542,0.0
592,0.0
632,4164832.220391877
686,0.6000000000000001
687,0.6000000000000001
688,1.2000000000000002
2,1, 1,21, 0,10,10.00,20.00,WinterDesignDay
250,16.747944245619735
251,5781362.0333584165
336,0.0
385,16.793967855580608
386,24.971462339463024
387,-17.694701727263055
388,0.0
425,0.0
450,0.0
451,0.0
452,-18.39645141555023
453,0.0
490,0.0
515,0.0
516,0.0
542,0.0
592,0.0
632,5691566.854226025
686,1.0
687,1.0
688,2.0
2,1, 1,21, 0,10,20.00,30.00,WinterDesignDay
250,16.89761241701452
251,4234491.917162002
336,0.0
385,16.793967855580604
386,24.971462339463017
387,-17.694726752497857
388,0.0
425,0.0
450,0.0
451,0.0
452,-18.396429205718842
453,0.0
490,0.0
515,0.0
516,0.0
542,0.0
592,0.0
632,4187217.7323069084
686,0.6666666666666664
687,0.6666666666666664
688,1.3333333333333328
2,1, 1,21, 0,10,30.00,40.00,WinterDesignDay
250,16.483967743749385
251,4160239.3447915455
336,0.0
385,16.26063452224727
386,24.97146233946302
387,-17.69472689414953
388,0.0
425,0.0
450,0.0
451,0.0
452,-18.396480358945283
453,0.0
490,0.0
515,0.0
516,0.0
542,0.0
592,0.0
632,4164832.2332428084
686,0.5999999999999996
687,0.5999999999999996
688,1.1999999999999993
2,1, 1,21, 0,10,40.00,50.00,WinterDesignDay
250,16.74794424555717
251,5781362.049889033
336,0.0
385,16.79396785558062
386,24.971462339463045
387,-17.69470340811044
388,0.0
425,0.0
450,0.0
451,0.0
452,-18.39645159898765
453,0.0
490,0.0
515,0.0
516,0.0
542,0.0
592,0.0
632,5691566.871012161
686,1.0000000000000009
687,1.0000000000000009
688,2.0000000000000018
2,1, 1,21, 0,10,50.00,60.00,WinterDesignDay
250,16.897612415641735
251,4234491.927946409
336,0.0
385,16.79396785558062
386,24.971462339463045
387,-17.694728405588833
388,0.0
425,0.0
450,0.0
451,0.0
452,-18.396429386213097
453,0.0
490,0.0
515,0.0
516,0.0
542,0.0
592,0.0
632,4187217.743102888
686,0.6666666666666672
687,0.6666666666666672
688,1.3333333333333344
2,1, 1,21, 0,11, 0.00,10.00,WinterDesignDay
250,16.483967742380898
251,4160239.3567230585
336,0.0
385,16.260634522247276
386,24.971462339463027
387,-17.694728528577492
388,0.0
425,0.0
450,0.0
451,0.0
452,-18.396480537337368
453,0.0
490,0.0
515,0.0
516,0.0
542,0.0
592,0.0
632,4164832.2455887115
686,0.6000000000000001
687,0.6000000000000001
688,1.2000000000000002
2,1, 1,21, 0,11,10.00,20.00,WinterDesignDay
250,16.74794424549704
251,5781362.065770044
336,0.0
385,16.793967855580608
386,24.971462339463024
387,-17.694705022922097
388,0.0
425,0.0
450,0.0
451,0.0
452,-18.396451775216825
453,0.0
490,0.0
515,0.0
516,0.0
542,0.0
592,0.0
632,5691566.887138651
686,1.0
687,1.0
688,2.0
2,1, 1,21, 0,11,20.00,30.00,WinterDesignDay
250,16.897612414322857
251,4234491.938307064
336,0.0
385,16.793967855580604
386,24.971462339463017
387,-17.69472999373496
388,0.0
425,0.0
450,0.0
451,0.0
452,-18.396429559614777
453,0.0
490,0.0
515,0.0
516,0.0
542,0.0
592,0.0
632,4187217.75347466
686,0.6666666666666664
687,0.6666666666666664
688,1.3333333333333328
2,1, 1,21, 0,11,30.00,40.00,WinterDesignDay
250,16.483967741066166
251,4160239.368185779
336,0.0
385,16.26063452224727
386,24.97146233946302
387,-17.694730098793727
388,0.0
425,0.0
450,0.0
451,0.0
452,-18.396480708719533
453,0.0
490,0.0
515,0.0
516,0.0
542,0.0
592,0.0
632,4164832.257449539
686,0.5999999999999996
687,0.5999999999999996
688,1.1999999999999993
2,1, 1,21, 0,11,40.00,50.00,WinterDesignDay
250,16.7479442454393
251,5781362.081027052
336,0.0
385,16.79396785558062
386,24.971462339463045
387,-17.694706574292482
388,0.0
425,0.0
450,0.0
451,0.0
452,-18.39645194452112
453,0.0
490,0.0
515,0.0
516,0.0
542,0.0
592,0.0
632,5691566.902631492
686,1.0000000000000009
687,1.0000000000000009
688,2.0000000000000018
2,1, 1,21, 0,11,50.00,60.00,WinterDesignDay
250,16.897612413055832
251,4234491.948260633
336,0.0
385,16.79396785558062
386,24.971462339463045
387,-17.694731519486808
388,0.0
425,0.0
450,0.0
451,0.0
452,-18.396429726202705
453,0.0
490,0.0
515,0.0
516,0.0
542,0.0
592,0.0
632,4187217.763438914
686,0.6666666666666672
687,0.6666666666666672
688,1.3333333333333344
2,1, 1,21, 0,12, 0.00,10.00,WinterDesignDay
250,16.483967739803116
251,4160239.3791980282
336,0.0
385,16.260634522247276
386,24.971462339463027
387,-17.694731607320172
388,0.0
425,0.0
450,0.0
451,0.0
452,-18.396480873367288
453,0.0
490,0.0
515,0.0
516,0.0
542,0.0
592,0.0
632,4164832.268844254
686,0.6000000000000001
687,0.6000000000000001
688,1.2000000000000002
2,1, 1,21, 0,12,10.00,20.00,WinterDesignDay
250,16.7479442453838
251,5781362.095684539
336,0.0
385,16.793967855580608
386,24.971462339463024
387,-17.69470806471386
388,0.0
425,0.0
450,0.0
451,0.0
452,-18.39645210717263
453,0.0
490,0.0
515,0.0
516,0.0
542,0.0
592,0.0
632,5691566.917515541
686,1.0
687,1.0
688,2.0
2,1, 1,21, 0,12,20.00,30.00,WinterDesignDay
250,16.897612411838566
251,4234491.957823018
336,0.0
385,16.793967855580604
386,24.971462339463017
387,-17.694732985296557
388,0.0
425,0.0
450,0.0
451,0.0
452,-18.39642988624459
453,0.0
490,0.0
515,0.0
516,0.0
542,0.0
592,0.0
632,4187217.7730115587
686,0.6666666666666664
687,0.6666666666666664
688,1.3333333333333328
2,1, 1,21, 0,12,30.00,40.00,WinterDesignDay
250,16.483967738589683
251,4160239.3897776133
336,0.0
385,16.26063452224727
386,24.97146233946302
387,-17.69473305658111
388,0.0
425,0.0
450,0.0
451,0.0
452,-18.39648103154528
453,0.0
490,0.0
515,0.0
516,0.0
542,0.0
592,0.0
632,4164832.279791275
686,0.5999999999999996
687,0.5999999999999996
688,1.1999999999999993
2,1, 1,21, 0,12,40.00,50.00,WinterDesignDay
250,16.74794424533051
251,5781362.10976609
336,0.0
385,16.79396785558062
386,24.971462339463045
387,-17.694709496580657
388,0.0
425,0.0
450,0.0
451,0.0
452,-18.396452263432874
453,0.0
490,0.0
515,0.0
516,0.0
542,0.0
592,0.0
632,5691566.931814758
686,1.0000000000000009
687,1.0000000000000009
688,2.0000000000000018
2,1, 1,21, 0,12,50.00,60.00,WinterDesignDay
250,16.897612410669158
251,4234491.967009731
336,0.0
385,16.79396785558062
386,24.971462339463045
387,-17.694734393518377
388,0.0
425,0.0
450,0.0
451,0.0
452,-18.396430039997774
453,0.0
490,0.0
515,0.0
516,0.0
542,0.0
592,0.0
632,4187217.7822081265
686,0.6666666666666672
687,0.6666666666666672
688,1.3333333333333344
2,1, 1,21, 0,13, 0.00,10.00,WinterDesignDay
250,16.48396773742395
251,4160239.3999414174
336,0.0
385,16.260634522247276
386,24.971462339463027
387,-17.694734448904388
388,0.0
425,0.0
450,0.0
451,0.0
452,-18.396481183507788
453,0.0
490,0.0
515,0.0
516,0.0
542,0.0
592,0.0
632,4164832.290308076
686,0.6000000000000001
687,0.6000000000000001
688,1.2000000000000002
2,1, 1,21, 0,13,10.00,20.00,WinterDesignDay
250,16.74794424527928
251,5781362.123294294
336,0.0
385,16.793967855580608
386,24.971462339463024
387,-17.694710872193454
388,0.0
425,0.0
450,0.0
451,0.0
452,-18.396452413552957
453,0.0
490,0.0
515,0.0
516,0.0
542,0.0
592,0.0
632,5691566.945552071
686,1.0
687,1.0
688,2.0
2,1, 1,21, 0,13,20.00,30.00,WinterDesignDay
250,16.897612409545673
251,4234491.975835433
336,0.0
385,16.793967855580604
386,24.971462339463017
387,-17.694735746415304
388,0.0
425,0.0
450,0.0
451,0.0
452,-18.39643018770933
453,0.0
490,0.0
515,0.0
516,0.0
542,0.0
592,0.0
632,4187217.791043302
686,0.6666666666666664
687,0.6666666666666664
688,1.3333333333333328
2,1, 1,21, 0,13,30.00,40.00,WinterDesignDay
250,16.483967736304006
251,4160239.409705849
336,0.0
385,16.26063452224727
386,24.97146233946302
387,-17.69473578652737
388,0.0
425,0.0
450,0.0
451,0.0
452,-18.39648132949908
453,0.0
490,0.0
515,0.0
516,0.0
542,0.0
592,0.0
632,4164832.300411633
686,0.5999999999999996
687,0.5999999999999996
688,1.1999999999999993
2,1, 1,21, 0,13,40.00,50.00,WinterDesignDay
250,16.747944245230098
251,5781362.136290959
336,0.0
385,16.79396785558062
386,24.971462339463045
387,-17.694712193762236
388,0.0
425,0.0
450,0.0
451,0.0
452,-18.396452557774275
453,0.0
490,0.0
515,0.0
516,0.0
542,0.0
592,0.0
632,5691566.958749627
686,1.0000000000000009
687,1.0000000000000009
688,2.0000000000000018
2,1, 1,21, 0,13,50.00,60.00,WinterDesignDay
250,16.89761240846636
251,4234491.984314342
336,0.0
385,16.79396785558062
386,24.971462339463045
387,-17.694737046160327
388,0.0
425,0.0
450,0.0
451,0.0
452,-18.396430329616766
453,0.0
490,0.0
515,0.0
516,0.0
542,0.0
592,0.0
632,4187217.7995313085
686,0.6666666666666672
687,0.6666666666666672
688,1.3333333333333344