Program Version,EnergyPlus, Version 24.2.0-94a887817b, YMD=2025.01.21 23:16
1,5,Environment Title[],Latitude[deg],Longitude[deg],Time Zone[],Elevation[m]
2,8,Day of Simulation[],Month[],Day of Month[],DST Indicator[1=yes 0=no],Hour[],StartMinute[],EndMinute[],DayType
3,5,Cumulative Day of Simulation[],Month[],Day of Month[],DST Indicator[1=yes 0=no],DayType  ! When Daily Report Variables Requested
4,2,Cumulative Days of Simulation[],Month[]  ! When Monthly Report Variables Requested
5,1,Cumulative Days of Simulation[] ! When Run Period Report Variables Requested
6,1,Calendar Year of Simulation[] ! When Annual Report Variables Requested
250,1,LIVING ZONE,Zone Air Temperature [C] !TimeStep,REPORTSCH
251,1,LIVING ZONE,Zone Air System Sensible Heating Energy [J] !TimeStep,REPORTSCH
336,1,LIVING ZONE,Zone Air System Sensible Cooling Energy [J] !TimeStep,REPORTSCH
385,1,LIVING ZONE,Zone Thermostat Heating Setpoint Temperature [C] !TimeStep,REPORTSCH
386,1,LIVING ZONE,Zone Thermostat Cooling Setpoint Temperature [C] !TimeStep,REPORTSCH
387,1,GARAGE ZONE,Zone Air Temperature [C] !TimeStep,REPORTSCH
388,1,GARAGE ZONE,Zone Air System Sensible Heating Energy [J] !TimeStep,REPORTSCH
425,1,GARAGE ZONE,Zone Air System Sensible Cooling Energy [J] !TimeStep,REPORTSCH
450,1,GARAGE ZONE,Zone Thermostat Heating Setpoint Temperature [C] !TimeStep,REPORTSCH
451,1,GARAGE ZONE,Zone Thermostat Cooling Setpoint Temperature [C] !TimeStep,REPORTSCH
452,1,ATTIC ZONE,Zone Air Temperature [C] !TimeStep,REPORTSCH
453,1,ATTIC ZONE,Zone Air System Sensible Heating Energy [J] !TimeStep,REPORTSCH
490,1,ATTIC ZONE,Zone Air System Sensible Cooling Energy [J] !TimeStep,REPORTSCH
515,1,ATTIC ZONE,Zone Thermostat Heating Setpoint Temperature [C] !TimeStep,REPORTSCH
516,1,ATTIC ZONE,Zone Thermostat Cooling Setpoint Temperature [C] !TimeStep,REPORTSCH
542,1,ACDXCOIL 1,Cooling Coil Total Cooling Energy [J] !TimeStep,REPORTSCH
592,1,HEAT PUMP DX HEATING COIL 1,Heating Coil Heating Energy [J] !TimeStep,REPORTSCH
632,1,SUPP HEATING COIL 1,Heating Coil Heating Energy [J] !TimeStep,REPORTSCH
686,1,TWOSPEED HEAT PUMP 1,Unitary System DX Coil Cycling Ratio [] !TimeStep,REPORTSCH
687,1,TWOSPEED HEAT PUMP 1,Unitary System DX Coil Speed Ratio [] !TimeStep,REPORTSCH
688,1,TWOSPEED HEAT PUMP 1,Unitary System DX Coil Speed Level [] !TimeStep,REPORTSCH
End of Data Dictionary
1,CHICAGO_IL_USA ANNUAL HEATING 99% DESIGN CONDITIONS DB,  41.98, -87.92,  -6.00, 201.00
2,1, 1,21, 0, 1, 0.00,10.00,WinterDesignDay
250,-16.98866633434644
251,33258891.428648625
336,0.0
385,22.782807723555727
386,25.9459755117076
387,-18.497256554172747
388,0.0
425,0.0
450,0.0
451,0.0
452,-19.35985844202882
453,0.0
490,0.0
515,0.0
516,0.0
542,0.0
592,0.0
632,33000000.0
686,1.0
687,1.0
688,2.0
2,1, 1,21, 0, 1,10.00,20.00,WinterDesignDay
250,-16.988666334488517
251,33258891.4286476
336,0.0
385,22.782807723555727
386,25.9459755117076
387,-18.497258041703503
388,0.0
425,0.0
450,0.0
451,0.0
452,-19.359858649490313
453,0.0
490,0.0
515,0.0
516,0.0
542,0.0
592,0.0
632,33000000.0
686,1.0
687,1.0
688,2.0
2,1, 1,21, 0, 1,20.00,30.00,WinterDesignDay
250,-16.9886663346287
251,33258891.42864659
336,0.0
385,22.782807723555727
386,25.9459755117076
387,-18.49725950984101
388,0.0
425,0.0
450,0.0
451,0.0
452,-19.35985885424646
453,0.0
490,0.0
515,0.0
516,0.0
542,0.0
592,0.0
632,33000000.0
686,1.0
687,1.0
688,2.0
2,1, 1,21, 0, 1,30.00,40.00,WinterDesignDay
250,-16.98866633476703
251,33258891.428645592
336,0.0
385,22.782807723555727
386,25.9459755117076
387,-18.497260958838137
388,0.0
425,0.0
450,0.0
451,0.0
452,-19.359859056332553
453,0.0
490,0.0
515,0.0
516,0.0
542,0.0
592,0.0
632,33000000.0
686,1.0
687,1.0
688,2.0
2,1, 1,21, 0, 1,40.00,50.00,WinterDesignDay
250,-16.988666334903517
251,33258891.428644605
336,0.0
385,22.782807723555727
386,25.9459755117076
387,-18.49726238894415
388,0.0
425,0.0
450,0.0
451,0.0
452,-19.35985925578341
453,0.0
490,0.0
515,0.0
516,0.0
542,0.0
592,0.0
632,33000000.0
686,1.0
687,1.0
688,2.0
2,1, 1,21, 0, 1,50.00,60.00,WinterDesignDay
250,-16.988666335038197
251,33258891.42864364
336,0.0
385,22.782807723555727
386,25.9459755117076
387,-18.49726380040545
388,0.0
425,0.0
450,0.0
451,0.0
452,-19.359859452633398
453,0.0
490,0.0
515,0.0
516,0.0
542,0.0
592,0.0
632,33000000.0
686,1.0
687,1.0
688,2.0
2,1, 1,21, 0, 2, 0.00,10.00,WinterDesignDay
250,-16.98866633517109
251,33258891.42864268
336,0.0
385,22.782807723555727
386,25.9459755117076
387,-18.49726519346521
388,0.0
425,0.0
450,0.0
451,0.0
452,-19.35985964691644
453,0.0
490,0.0
515,0.0
516,0.0
542,0.0
592,0.0
632,33000000.0
686,1.0
687,1.0
688,2.0
2,1, 1,21, 0, 2,10.00,20.00,WinterDesignDay
250,-16.98866633530222
251,33258891.428641737
336,0.0
385,22.782807723555727
386,25.9459755117076
387,-18.49726656836314
388,0.0
425,0.0
450,0.0
451,0.0
452,-19.35985983866602
453,0.0
490,0.0
515,0.0
516,0.0
542,0.0
592,0.0
632,33000000.0
686,1.0
687,1.0
688,2.0
2,1, 1,21, 0, 2,20.00,30.00,WinterDesignDay
250,-16.98866633543161
251,33258891.4286408
336,0.0
385,22.782807723555727
386,25.9459755117076
387,-18.497267925336114
388,0.0
425,0.0
450,0.0
451,0.0
452,-19.359860027915172
453,0.0
490,0.0
515,0.0
516,0.0
542,0.0
592,0.0
632,33000000.0
686,1.0
687,1.0
688,2.0
2,1, 1,21, 0, 2,30.00,40.00,WinterDesignDay
250,-16.988666335559287
251,33258891.42863988
336,0.0
385,22.782807723555727
386,25.9459755117076
387,-18.497269264617707
388,0.0
425,0.0
450,0.0
451,0.0
452,-19.359860214696507
453,0.0
490,0.0
515,0.0
516,0.0
542,0.0
592,0.0
632,33000000.0
686,1.0
687,1.0
688,2.0
2,1, 1,21, 0, 2,40.00,50.00,WinterDesignDay
250,-16.98866633568527
251,33258891.428638976
336,0.0
385,22.782807723555727
386,25.9459755117076
387,-18.49727058643849
388,0.0
425,0.0
450,0.0
451,0.0
452,-19.359860399042216
453,0.0
490,0.0
515,0.0
516,0.0
542,0.0
592,0.0
632,33000000.0
686,1.0
687,1.0
688,2.0
2,1, 1,21, 0, 2,50.00,60.00,WinterDesignDay
250,-16.988666335809587
251,33258891.428638082
336,0.0
385,22.782807723555727
386,25.9459755117076
387,-18.497271891026294
388,0.0
425,0.0
450,0.0
451,0.0
452,-19.35986058098406
453,0.0
490,0.0
515,0.0
516,0.0
542,0.0
592,0.0
632,33000000.0
686,1.0
687,1.0
688,2.0
2,1, 1,21, 0, 3, 0.00,10.00,WinterDesignDay
250,-16.988666335932248
251,33258891.42863719
336,0.0
385,22.782807723555727
386,25.9459755117076
387,-18.49727317860577
388,0.0
425,0.0
450,0.0
451,0.0
452,-19.359860760553385
453,0.0
490,0.0
515,0.0
516,0.0
542,0.0
592,0.0
632,33000000.0
686,1.0
687,1.0
688,2.0
2,1, 1,21, 0, 3,10.00,20.00,WinterDesignDay
250,-16.98866633605329
251,33258891.428636327
336,0.0
385,22.782807723555727
386,25.9459755117076
387,-18.497274449398677
388,0.0
425,0.0
450,0.0
451,0.0
452,-19.359860937781132
453,0.0
490,0.0
515,0.0
516,0.0
542,0.0
592,0.0
632,33000000.0
686,1.0
687,1.0
688,2.0
2,1, 1,21, 0, 3,20.00,30.00,WinterDesignDay
250,-16.988666336172724
251,33258891.428635463
336,0.0
385,22.782807723555727
386,25.9459755117076
387,-18.49727570362366
388,0.0
425,0.0
450,0.0
451,0.0
452,-19.35986111269784
453,0.0
490,0.0
515,0.0
516,0.0
542,0.0
592,0.0
632,33000000.0
686,1.0
687,1.0
688,2.0
2,1, 1,21, 0, 3,30.00,40.00,WinterDesignDay
250,-16.988666336290578
251,33258891.428634617
336,0.0
385,22.782807723555727
386,25.9459755117076
387,-18.497276941496736
388,0.0
425,0.0
450,0.0
451,0.0
452,-19.35986128533365
453,0.0
490,0.0
515,0.0
516,0.0
542,0.0
592,0.0
632,33000000.0
686,1.0
687,1.0
688,2.0
2,1, 1,21, 0, 3,40.00,50.00,WinterDesignDay
250,-16.988666336406872
251,33258891.428633783
336,0.0
385,22.782807723555727
386,25.9459755117076
387,-18.49727816323124
388,0.0
425,0.0
450,0.0
451,0.0
452,-19.359861455718313
453,0.0
490,0.0
515,0.0
516,0.0
542,0.0
592,0.0
632,33000000.0
686,1.0
687,1.0
688,2.0
2,1, 1,21, 0, 3,50.00,60.00,WinterDesignDay
250,-16.988666336521625
251,33258891.428632952
336,0.0
385,22.782807723555727
386,25.9459755117076
387,-18.497279369037607
388,0.0
425,0.0
450,0.0
451,0.0
452,-19.359861623881184
453,0.0
490,0.0
515,0.0
516,0.0
542,0.0
592,0.0
632,33000000.0
686,1.0
687,1.0
688,2.0
2,1, 1,21, 0, 4, 0.00,10.00,WinterDesignDay
250,-16.98866633663486
251,33258891.428632136
336,0.0
385,22.782807723555727
386,25.9459755117076
387,-18.49728055912337
388,0.0
425,0.0
450,0.0
451,0.0
452,-19.359861789851237
453,0.0
490,0.0
515,0.0
516,0.0
542,0.0
592,0.0
632,33000000.0
686,1.0
687,1.0
688,2.0
2,1, 1,21, 0, 4,10.00,20.00,WinterDesignDay
250,-16.988666336746594
251,33258891.42863134
336,0.0
385,22.782807723555727
386,25.9459755117076
387,-18.497281733693395
388,0.0
425,0.0
450,0.0
451,0.0
452,-19.35986195365707
453,0.0
490,0.0
515,0.0
516,0.0
542,0.0
592,0.0
632,33000000.0
686,1.0
687,1.0
688,2.0
2,1, 1,21, 0, 4,20.00,30.00,WinterDesignDay
250,-16.98866633685685
251,33258891.428630542
336,0.0
385,22.782807723555727
386,25.9459755117076
387,-18.497282892950082
388,0.0
425,0.0
450,0.0
451,0.0
452,-19.359862115326912
453,0.0
490,0.0
515,0.0
516,0.0
542,0.0
592,0.0
632,33000000.0
686,1.0
687,1.0
688,2.0
2,1, 1,21, 0, 4,30.00,40.00,WinterDesignDay
250,-16.988666336965643
251,33258891.428629756
336,0.0
385,22.782807723555727
386,25.9459755117076
387,-18.49728403709313
388,0.0
425,0.0
450,0.0
451,0.0
452,-19.359862274888613
453,0.0
490,0.0
515,0.0
516,0.0
542,0.0
592,0.0
632,33000000.0
686,1.0
687,1.0
688,2.0
2,1, 1,21, 0, 4,40.00,50.00,WinterDesignDay
250,-16.988666337073003
251,33258891.428628985
336,0.0
385,22.782807723555727
386,25.9459755117076
387,-18.49728516631957
388,0.0
425,0.0
450,0.0
451,0.0
452,-19.359862432369667
453,0.0
490,0.0
515,0.0
516,0.0
542,0.0
592,0.0
632,33000000.0
686,1.0
687,1.0
688,2.0
2,1, 1,21, 0, 4,50.00,60.00,WinterDesignDay
250,-16.988666337178937
251,33258891.428628225
336,0.0
385,22.782807723555727
386,25.9459755117076
387,-18.497286280823733
388,0.0
425,0.0
450,0.0
451,0.0
452,-19.35986258779721
453,0.0
490,0.0
515,0.0
516,0.0
542,0.0
592,0.0
632,33000000.0
686,1.0
687,1.0
688,2.0
2,1, 1,21, 0, 5, 0.00,10.00,WinterDesignDay
250,-16.98866633728347
251,33258891.428627472
336,0.0
385,22.782807723555727
386,25.9459755117076
387,-18.49728738079752
388,0.0
425,0.0
450,0.0
451,0.0
452,-19.35986274119802
453,0.0
490,0.0
515,0.0
516,0.0
542,0.0
592,0.0
632,33000000.0
686,1.0
687,1.0
688,2.0
2,1, 1,21, 0, 5,10.00,20.00,WinterDesignDay
250,-16.98866633738662
251,33258891.42862673
336,0.0
385,22.782807723555727
386,25.9459755117076
387,-18.497288466430533
388,0.0
425,0.0
450,0.0
451,0.0
452,-19.35986289259853
453,0.0
490,0.0
515,0.0
516,0.0
542,0.0
592,0.0
632,33000000.0
686,1.0
687,1.0
688,2.0
2,1, 1,21, 0, 5,20.00,30.00,WinterDesignDay
250,-16.988666337488407
251,33258891.428626
336,0.0
385,22.782807723555727
386,25.9459755117076
387,-18.497289537909708
388,0.0
425,0.0
450,0.0
451,0.0
452,-19.35986304202483
453,0.0
490,0.0
515,0.0
516,0.0
542,0.0
592,0.0
632,33000000.0
686,1.0
687,1.0
688,2.0
2,1, 1,21, 0, 5,30.00,40.00,WinterDesignDay
250,-16.988666337588842
251,33258891.42862528
336,0.0
385,22.782807723555727
386,25.9459755117076
387,-18.49729059541945
388,0.0
425,0.0
450,0.0
451,0.0
452,-19.359863189502658
453,0.0
490,0.0
515,0.0
516,0.0
542,0.0
592,0.0
632,33000000.0
686,1.0
687,1.0
688,2.0
2,1, 1,21, 0, 5,40.00,50.00,WinterDesignDay
250,-16.988666337687956
251,33258891.42862457
336,0.0
385,22.782807723555727
386,25.9459755117076
387,-18.497291639141963
388,0.0
425,0.0
450,0.0
451,0.0
452,-19.359863335057433
453,0.0
490,0.0
515,0.0
516,0.0
542,0.0
592,0.0
632,33000000.0
686,1.0
687,1.0
688,2.0
2,1, 1,21, 0, 5,50.00,60.00,WinterDesignDay
250,-16.988666337785755
251,33258891.428623863
336,0.0
385,22.782807723555727
386,25.9459755117076
387,-18.49729266925695
388,0.0
425,0.0
450,0.0
451,0.0
452,-19.35986347871423
453,0.0
490,0.0
515,0.0
516,0.0
542,0.0
592,0.0
632,33000000.0
686,1.0
687,1.0
688,2.0
2,1, 1,21, 0, 6, 0.00,10.00,WinterDesignDay
250,-16.988666337882265
251,33258891.42862317
336,0.0
385,22.782807723555727
386,25.9459755117076
387,-18.49729368594191
388,0.0
425,0.0
450,0.0
451,0.0
452,-19.359863620497805
453,0.0
490,0.0
515,0.0
516,0.0
542,0.0
592,0.0
632,33000000.0
686,1.0
687,1.0
688,2.0
2,1, 1,21, 0, 6,10.00,20.00,WinterDesignDay
250,-16.988666337977495
251,33258891.428622488
336,0.0
385,22.782807723555727
386,25.9459755117076
387,-18.497294689371724
388,0.0
425,0.0
450,0.0
451,0.0
452,-19.35986376043258
453,0.0
490,0.0
515,0.0
516,0.0
542,0.0
592,0.0
632,33000000.0
686,1.0
687,1.0
688,2.0
2,1, 1,21, 0, 6,20.00,30.00,WinterDesignDay
250,-16.98866633807147
251,33258891.428621814
336,0.0
385,22.782807723555727
386,25.9459755117076
387,-18.497295679719386
388,0.0
425,0.0
450,0.0
451,0.0
452,-19.35986389854267
453,0.0
490,0.0
515,0.0
516,0.0
542,0.0
592,0.0
632,33000000.0
686,1.0
687,1.0
688,2.0
2,1, 1,21, 0, 6,30.00,40.00,WinterDesignDay
250,-16.9886663381642
251,33258891.428621143
336,0.0
385,22.782807723555727
386,25.9459755117076
387,-18.497296657155413
388,0.0
425,0.0
450,0.0
451,0.0
452,-19.35986403485186
453,0.0
490,0.0
515,0.0
516,0.0
542,0.0
592,0.0
632,33000000.0
686,1.0
687,1.0
688,2.0
2,1, 1,21, 0, 6,40.00,50.00,WinterDesignDay
250,-16.988666338255708
251,33258891.428620487
336,0.0
385,22.782807723555727
386,25.9459755117076
387,-18.497297621848205
388,0.0
425,0.0
450,0.0
451,0.0
452,-19.35986416938364
453,0.0
490,0.0
515,0.0
516,0.0
542,0.0
592,0.0
632,33000000.0
686,1.0
687,1.0
688,2.0
2,1, 1,21, 0, 6,50.00,60.00,WinterDesignDay
250,-16.988666338346004
251,33258891.42861984
336,0.0
385,22.782807723555727
386,25.9459755117076
387,-18.497298573963747
388,0.0
425,0.0
450,0.0
451,0.0
452,-19.359864302161196
453,0.0
490,0.0
515,0.0
516,0.0
542,0.0
592,0.0
632,33000000.0
686,1.0
687,1.0
688,2.0
2,1, 1,21, 0, 7, 0.00,10.00,WinterDesignDay
250,-16.98866633843511
251,33258891.428619206
336,0.0
385,22.782807723555727
386,25.9459755117076
387,-18.497299513666004
388,0.0
425,0.0
450,0.0
451,0.0
452,-19.3598644332074
453,0.0
490,0.0
515,0.0
516,0.0
542,0.0
592,0.0
632,33000000.0
686,1.0
687,1.0
688,2.0
2,1, 1,21, 0, 7,10.00,20.00,WinterDesignDay
250,-16.98866633852304
251,33258891.428618576
336,0.0
385,22.782807723555727
386,25.9459755117076
387,-18.49730044111687
388,0.0
425,0.0
450,0.0
451,0.0
452,-19.359864562544832
453,0.0
490,0.0
515,0.0
516,0.0
542,0.0
592,0.0
632,33000000.0
686,1.0
687,1.0
688,2.0
2,1, 1,21, 0, 7,20.00,30.00,WinterDesignDay
250,-16.9886663386098
251,33258891.428617943
336,0.0
385,22.782807723555727
386,25.9459755117076
387,-18.497301356476072
388,0.0
425,0.0
450,0.0
451,0.0
452,-19.359864690195774
453,0.0
490,0.0
515,0.0
516,0.0
542,0.0
592,0.0
632,33000000.0
686,1.0
687,1.0
688,2.0
2,1, 1,21, 0, 7,30.00,40.00,WinterDesignDay
250,-16.988666338695424
251,33258891.428617336
336,0.0
385,22.782807723555727
386,25.9459755117076
387,-18.497302259901186
388,0.0
425,0.0
450,0.0
451,0.0
452,-19.359864816182217
453,0.0
490,0.0
515,0.0
516,0.0
542,0.0
592,0.0
632,33000000.0
686,1.0
687,1.0
688,2.0
2,1, 1,21, 0, 7,40.00,50.00,WinterDesignDay
250,-16.988666338779908
251,33258891.428616725
336,0.0
385,22.782807723555727
386,25.9459755117076
387,-18.497303151547822
388,0.0
425,0.0
450,0.0
451,0.0
452,-19.359864940525874
453,0.0
490,0.0
515,0.0
516,0.0
542,0.0
592,0.0
632,33000000.0
686,1.0
687,1.0
688,2.0
2,1, 1,21, 0, 7,50.00,60.00,WinterDesignDay
250,-16.988666338863286
251,33258891.428616133
336,0.0
385,22.782807723555727
386,25.9459755117076
387,-18.497304031569605
388,0.0
425,0.0
450,0.0
451,0.0
452,-19.35986506324816
453,0.0
490,0.0
515,0.0
516,0.0
542,0.0
592,0.0
632,33000000.0
686,1.0
687,1.0
688,2.0
2,1, 1,21, 0, 8, 0.00,10.00,WinterDesignDay
250,-16.988666338945556
251,33258891.428615533
336,0.0
385,22.782807723555727
386,25.9459755117076
387,-18.497304900118145
388,0.0
425,0.0
450,0.0
451,0.0
452,-19.359865184370225
453,0.0
490,0.0
515,0.0
516,0.0
542,0.0
592,0.0
632,33000000.0
686,1.0
687,1.0
688,2.0
2,1, 1,21, 0, 8,10.00,20.00,WinterDesignDay
250,-16.988666339026743
251,33258891.42861495
336,0.0
385,22.782807723555727
386,25.9459755117076
387,-18.49730575734301
388,0.0
425,0.0
450,0.0
451,0.0
452,-19.35986530391293
453,0.0
490,0.0
515,0.0
516,0.0
542,0.0
592,0.0
632,33000000.0
686,1.0
687,1.0
688,2.0
2,1, 1,21, 0, 8,20.00,30.00,WinterDesignDay
250,-16.98866633910686
251,33258891.42861438
336,0.0
385,22.782807723555727
386,25.9459755117076
387,-18.49730660339184
388,0.0
425,0.0
450,0.0
451,0.0
452,-19.35986542189687
453,0.0
490,0.0
515,0.0
516,0.0
542,0.0
592,0.0
632,33000000.0
686,1.0
687,1.0
688,2.0
2,1, 1,21, 0, 8,30.00,40.00,WinterDesignDay
250,-16.988666339185915
251,33258891.428613815
336,0.0
385,22.782807723555727
386,25.9459755117076
387,-18.4973074384102
388,0.0
425,0.0
450,0.0
451,0.0
452,-19.35986553834238
453,0.0
490,0.0
515,0.0
516,0.0
542,0.0
592,0.0
632,33000000.0
686,1.0
687,1.0
688,2.0
2,1, 1,21, 0, 8,40.00,50.00,WinterDesignDay
250,-16.98866633926393
251,33258891.428613257
336,0.0
385,22.782807723555727
386,25.9459755117076
387,-18.497308262541914
388,0.0
425,0.0
450,0.0
451,0.0
452,-19.35986565326952
453,0.0
490,0.0
515,0.0
516,0.0
542,0.0
592,0.0
632,33000000.0
686,1.0
687,1.0
688,2.0
2,1, 1,21, 0, 8,50.00,60.00,WinterDesignDay
250,-16.988666339340917
251,33258891.42861271
336,0.0
385,22.782807723555727
386,25.9459755117076
387,-18.497309075928868
388,0.0
425,0.0
450,0.0
451,0.0
452,-19.359865766698093
453,0.0
490,0.0
515,0.0
516,0.0
542,0.0
592,0.0
632,33000000.0
686,1.0
687,1.0
688,2.0
2,1, 1,21, 0, 9, 0.00,10.00,WinterDesignDay
250,-16.988666339416884
251,33258891.428612158
336,0.0
385,22.782807723555727
386,25.9459755117076
387,-18.497309878711093
388,0.0
425,0.0
450,0.0
451,0.0
452,-19.359865878647636
453,0.0
490,0.0
515,0.0
516,0.0
542,0.0
592,0.0
632,33000000.0
686,1.0
687,1.0
688,2.0
2,1, 1,21, 0, 9,10.00,20.00,WinterDesignDay
250,-16.988666339491854
251,33258891.42861162
336,0.0
385,22.782807723555727
386,25.9459755117076
387,-18.497310671027037
388,0.0
425,0.0
450,0.0
451,0.0
452,-19.359865989137433
453,0.0
490,0.0
515,0.0
516,0.0
542,0.0
592,0.0
632,33000000.0
686,1.0
687,1.0
688,2.0
2,1, 1,21, 0, 9,20.00,30.00,WinterDesignDay
250,-16.98866633956583
251,33258891.428611096
336,0.0
385,22.782807723555727
386,25.9459755117076
387,-18.49731145301326
388,0.0
425,0.0
450,0.0
451,0.0
452,-19.359866098186522
453,0.0
490,0.0
515,0.0
516,0.0
542,0.0
592,0.0
632,33000000.0
686,1.0
687,1.0
688,2.0
2,1, 1,21, 0, 9,30.00,40.00,WinterDesignDay
250,-16.988666339638833
251,33258891.428610567
336,0.0
385,22.782807723555727
386,25.9459755117076
387,-18.497312224804414
388,0.0
425,0.0
450,0.0
451,0.0
452,-19.359866205813695
453,0.0
490,0.0
515,0.0
516,0.0
542,0.0
592,0.0
632,33000000.0
686,1.0
687,1.0
688,2.0
2,1, 1,21, 0, 9,40.00,50.00,WinterDesignDay
250,-16.988666339710875
251,33258891.42861005
336,0.0
385,22.782807723555727
386,25.9459755117076
387,-18.497312986533224
388,0.0
425,0.0
450,0.0
451,0.0
452,-19.359866312037493
453,0.0
490,0.0
515,0.0
516,0.0
542,0.0
592,0.0
632,33000000.0
686,1.0
687,1.0
688,2.0
2,1, 1,21, 0, 9,50.00,60.00,WinterDesignDay
250,-16.98866633978196
251,33258891.42860954
336,0.0
385,22.782807723555727
386,25.9459755117076
387,-18.497313738330746
388,0.0
425,0.0
450,0.0
451,0.0
452,-19.359866416876216
453,0.0
490,0.0
515,0.0
516,0.0
542,0.0
592,0.0
632,33000000.0
686,1.0
687,1.0
688,2.0
2,1, 1,21, 0,10, 0.00,10.00,WinterDesignDay
250,-16.988666339852116
251,33258891.42860904
336,0.0
385,22.782807723555727
386,25.9459755117076
387,-18.497314480326487
388,0.0
425,0.0
450,0.0
451,0.0
452,-19.359866520347925
453,0.0
490,0.0
515,0.0
516,0.0
542,0.0
592,0.0
632,33000000.0
686,1.0
687,1.0
688,2.0
2,1, 1,21, 0,10,10.00,20.00,WinterDesignDay
250,-16.988666339921345
251,33258891.428608548
336,0.0
385,22.782807723555727
386,25.9459755117076
387,-18.49731521264853
388,0.0
425,0.0
450,0.0
451,0.0
452,-19.359866622470445
453,0.0
490,0.0
515,0.0
516,0.0
542,0.0
592,0.0
632,33000000.0
686,1.0
687,1.0
688,2.0
2,1, 1,21, 0,10,20.00,30.00,WinterDesignDay
250,-16.98866633998966
251,33258891.428608056
336,0.0
385,22.782807723555727
386,25.9459755117076
387,-18.497315935422886
388,0.0
425,0.0
450,0.0
451,0.0
452,-19.35986672326137
453,0.0
490,0.0
515,0.0
516,0.0
542,0.0
592,0.0
632,33000000.0
686,1.0
687,1.0
688,2.0
2,1, 1,21, 0,10,30.00,40.00,WinterDesignDay
250,-16.988666340057073
251,33258891.428607572
336,0.0
385,22.782807723555727
386,25.9459755117076
387,-18.497316648774078
388,0.0
425,0.0
450,0.0
451,0.0
452,-19.359866822738066
453,0.0
490,0.0
515,0.0
516,0.0
542,0.0
592,0.0
632,33000000.0
686,1.0
687,1.0
688,2.0
2,1, 1,21, 0,10,40.00,50.00,WinterDesignDay
250,-16.988666340123597
251,33258891.42860709
336,0.0
385,22.782807723555727
386,25.9459755117076
387,-18.497317352824947
388,0.0
425,0.0
450,0.0
451,0.0
452,-19.35986692091767
453,0.0
490,0.0
515,0.0
516,0.0
542,0.0
592,0.0
632,33000000.0
686,1.0
687,1.0
688,2.0
2,1, 1,21, 0,10,50.00,60.00,WinterDesignDay
250,-16.988666340189248
251,33258891.428606626
336,0.0
385,22.782807723555727
386,25.9459755117076
387,-18.497318047696563
388,0.0
425,0.0
450,0.0
451,0.0
452,-19.359867017817095
453,0.0
490,0.0
515,0.0
516,0.0
542,0.0
592,0.0
632,33000000.0
686,1.0
687,1.0
688,2.0
2,1, 1,21, 0,11, 0.00,10.00,WinterDesignDay
250,-16.98866634025403
251,33258891.42860616
336,0.0
385,22.782807723555727
386,25.9459755117076
387,-18.497318733508582
388,0.0
425,0.0
450,0.0
451,0.0
452,-19.359867113453035
453,0.0
490,0.0
515,0.0
516,0.0
542,0.0
592,0.0
632,33000000.0
686,1.0
687,1.0
688,2.0
2,1, 1,21, 0,11,10.00,20.00,WinterDesignDay
250,-16.988666340317963
251,33258891.4286057
336,0.0
385,22.782807723555727
386,25.9459755117076
387,-18.49731941037925
388,0.0
425,0.0
450,0.0
451,0.0
452,-19.359867207841972
453,0.0
490,0.0
515,0.0
516,0.0
542,0.0
592,0.0
632,33000000.0
686,1.0
687,1.0
688,2.0
2,1, 1,21, 0,11,20.00,30.00,WinterDesignDay
250,-16.988666340381048
251,33258891.428605247
336,0.0
385,22.782807723555727
386,25.9459755117076
387,-18.497320078425236
388,0.0
425,0.0
450,0.0
451,0.0
452,-19.35986730100017
453,0.0
490,0.0
515,0.0
516,0.0
542,0.0
592,0.0
632,33000000.0
686,1.0
687,1.0
688,2.0
2,1, 1,21, 0,11,30.00,40.00,WinterDesignDay
250,-16.988666340443306
251,33258891.428604808
336,0.0
385,22.782807723555727
386,25.9459755117076
387,-18.49732073776144
388,0.0
425,0.0
450,0.0
451,0.0
452,-19.359867392943663
453,0.0
490,0.0
515,0.0
516,0.0
542,0.0
592,0.0
632,33000000.0
686,1.0
687,1.0
688,2.0
2,1, 1,21, 0,11,40.00,50.00,WinterDesignDay
250,-16.988666340504743
251,33258891.42860437
336,0.0
385,22.782807723555727
386,25.9459755117076
387,-18.497321388501362
388,0.0
425,0.0
450,0.0
451,0.0
452,-19.359867483688294
453,0.0
490,0.0
515,0.0
516,0.0
542,0.0
592,0.0
632,33000000.0
686,1.0
687,1.0
688,2.0
2,1, 1,21, 0,11,50.00,60.00,WinterDesignDay
250,-16.988666340565374
251,33258891.428603936
336,0.0
385,22.782807723555727
386,25.9459755117076
387,-18.497322030757214
388,0.0
425,0.0
450,0.0
451,0.0
452,-19.359867573249698
453,0.0
490,0.0
515,0.0
516,0.0
542,0.0
592,0.0
632,33000000.0
686,1.0
687,1.0
688,2.0
2,1, 1,21, 0,12, 0.00,10.00,WinterDesignDay
250,-16.988666340625205
251,33258891.428603508
336,0.0
385,22.782807723555727
386,25.9459755117076
387,-18.49732266463959
388,0.0
425,0.0
450,0.0
451,0.0
452,-19.359867661643307
453,0.0
490,0.0
515,0.0
516,0.0
542,0.0
592,0.0
632,33000000.0
686,1.0
687,1.0
688,2.0
2,1, 1,21, 0,12,10.00,20.00,WinterDesignDay
250,-16.98866634068424
251,33258891.428603083
336,0.0
385,22.782807723555727
386,25.9459755117076
387,-18.497323290257526
388,0.0
425,0.0
450,0.0
451,0.0
452,-19.35986774888435
453,0.0
490,0.0
515,0.0
516,0.0
542,0.0
592,0.0
632,33000000.0
686,1.0
687,1.0
688,2.0
2,1, 1,21, 0,12,20.00,30.00,WinterDesignDay
250,-16.98866634074251
251,33258891.42860267
336,0.0
385,22.782807723555727
386,25.9459755117076
387,-18.497323907718783
388,0.0
425,0.0
450,0.0
451,0.0
452,-19.359867834987863
453,0.0
490,0.0
515,0.0
516,0.0
542,0.0
592,0.0
632,33000000.0
686,1.0
687,1.0
688,2.0
2,1, 1,21, 0,12,30.00,40.00,WinterDesignDay
250,-16.988666340800002
251,33258891.428602256
336,0.0
385,22.782807723555727
386,25.9459755117076
387,-18.497324517130007
388,0.0
425,0.0
450,0.0
451,0.0
452,-19.359867919968664
453,0.0
490,0.0
515,0.0
516,0.0
542,0.0
592,0.0
632,33000000.0
686,1.0
687,1.0
688,2.0
2,1, 1,21, 0,12,40.00,50.00,WinterDesignDay
250,-16.988666340856742
251,33258891.42860185
336,0.0
385,22.782807723555727
386,25.9459755117076
387,-18.49732511859602
388,0.0
425,0.0
450,0.0
451,0.0
452,-19.359868003841395
453,0.0
490,0.0
515,0.0
516,0.0
542,0.0
592,0.0
632,33000000.0
686,1.0
687,1.0
688,2.0
2,1, 1,21, 0,12,50.00,60.00,WinterDesignDay
250,-16.988666340912737
251,33258891.42860145
336,0.0
385,22.782807723555727
386,25.9459755117076
387,-18.497325712220213
388,0.0
425,0.0
450,0.0
451,0.0
452,-19.359868086620512
453,0.0
490,0.0
515,0.0
516,0.0
542,0.0
592,0.0
632,33000000.0
686,1.0
687,1.0
688,2.0
2,1, 1,21, 0,13, 0.00,10.00,WinterDesignDay
250,-16.988666340967992
251,33258891.428601053
336,0.0
385,22.782807723555727
386,25.9459755117076
387,-18.497326298104767
388,0.0
425,0.0
450,0.0
451,0.0
452,-19.35986816832028
453,0.0
490,0.0
515,0.0
516,0.0
542,0.0
592,0.0
632,33000000.0
686,1.0
687,1.0
688,2.0
2,1, 1,21, 0,13,10.00,20.00,WinterDesignDay
250,-16.98866634102252
251,33258891.428600665
336,0.0
385,22.782807723555727
386,25.9459755117076
387,-18.497326876350815
388,0.0
425,0.0
450,0.0
451,0.0
452,-19.359868248954765
453,0.0
490,0.0
515,0.0
516,0.0
542,0.0
592,0.0
632,33000000.0
686,1.0
687,1.0
688,2.0
2,1, 1,21, 0,13,20.00,30.00,WinterDesignDay
250,-16.988666341076332
251,33258891.42860028
336,0.0
385,22.782807723555727
386,25.9459755117076
387,-18.497327447057952
388,0.0
425,0.0
450,0.0
451,0.0
452,-19.359868328537853
453,0.0
490,0.0
515,0.0
516,0.0
542,0.0
592,0.0
632,33000000.0
686,1.0
687,1.0
688,2.0
2,1, 1,21, 0,13,30.00,40.00,WinterDesignDay
250,-16.98866634112943
251,33258891.428599894
336,0.0
385,22.782807723555727
386,25.9459755117076
387,-18.497328010324505
388,0.0
425,0.0
450,0.0
451,0.0
452,-19.359868407083262
453,0.0
490,0.0
515,0.0
516,0.0
542,0.0
592,0.0
632,33000000.0
686,1.0
687,1.0
688,2.0
2,1, 1,21, 0,13,40.00,50.00,WinterDesignDay
250,-16.988666341181837
251,33258891.428599525
336,0.0
385,22.782807723555727
386,25.9459755117076
387,-18.497328566247358
388,0.0
425,0.0
450,0.0
451,0.0
452,-19.359868484604526
453,0.0
490,0.0
515,0.0
516,0.0
542,0.0
592,0.0
632,33000000.0
686,1.0
687,1.0
688,2.0
2,1, 1,21, 0,13,50.00,60.00,WinterDesignDay
250,-16.98866634123355
251,33258891.428599153
336,0.0
385,22.782807723555727
386,25.9459755117076
387,-18.497329114922117
388,0.0
425,0.0
450,0.0
451,0.0
452,-19.359868561115
453,0.0
490,0.0
515,0.0
516,0.0
542,0.0
592,0.0
632,33000000.0
686,1.0
687,1.0
688,2.0
2,1, 1,21, 0,14, 0.00,10.00,WinterDesignDay
250,-16.988666341284585
251,33258891.42859879
336,0.0
385,22.782807723555727
386,25.9459755117076
387,-18.49732965644333
388,0.0
425,0.0
450,0.0
451,0.0
452,-19.35986863662786
453,0.0
490,0.0
515,0.0
516,0.0
542,0.0
592,0.0
632,33000000.0
686,1.0
687,1.0
688,2.0
2,1, 1,21, 0,14,10.00,20.00,WinterDesignDay
250,-16.988666341334945
251,33258891.42859843
336,0.0
385,22.782807723555727
386,25.9459755117076
387,-18.497330190904506
388,0.0
425,0.0
450,0.0
451,0.0
452,-19.35986871115611
453,0.0
490,0.0
515,0.0
516,0.0
542,0.0
592,0.0
632,33000000.0
686,1.0
687,1.0
688,2.0
2,1, 1,21, 0,14,20.00,30.00,WinterDesignDay
250,-16.988666341384643
251,33258891.428598076
336,0.0
385,22.782807723555727
386,25.9459755117076
387,-18.497330718397574
388,0.0
425,0.0
450,0.0
451,0.0
452,-19.359868784712596
453,0.0
490,0.0
515,0.0
516,0.0
542,0.0
592,0.0
632,33000000.0
686,1.0
687,1.0
688,2.0
2,1, 1,21, 0,14,30.00,40.00,WinterDesignDay
250,-16.988666341433692
251,33258891.428597726
336,0.0
385,22.782807723555727
386,25.9459755117076
387,-18.497331239013256
388,0.0
425,0.0
450,0.0
451,0.0
452,-19.359868857309987
453,0.0
490,0.0
515,0.0
516,0.0
542,0.0
592,0.0
632,33000000.0
686,1.0
687,1.0
688,2.0
2,1, 1,21, 0,14,40.00,50.00,WinterDesignDay
250,-16.98866634148209
251,33258891.428597372
336,0.0
385,22.782807723555727
386,25.9459755117076
387,-18.497331752841404
388,0.0
425,0.0
450,0.0
451,0.0
452,-19.359868928960793
453,0.0
490,0.0
515,0.0
516,0.0
542,0.0
592,0.0
632,33000000.0
686,1.0
687,1.0
688,2.0
2,1, 1,21, 0,14,50.00,60.00,WinterDesignDay
250,-16.98866634152986
251,33258891.428597037
336,0.0
385,22.782807723555727
386,25.9459755117076
387,-18.497332259970477
388,0.0
425,0.0
450,0.0
451,0.0
452,-19.359868999677357
453,0.0
490,0.0
515,0.0
516,0.0
542,0.0
592,0.0
632,33000000.0
686,1.0
687,1.0
688,2.0
2,1, 1,21, 0,15, 0.00,10.00,WinterDesignDay
250,-16.988666341576998
251,33258891.4285967
336,0.0
385,22.782807723555727
386,25.9459755117076
387,-18.497332760487588
388,0.0
425,0.0
450,0.0
451,0.0
452,-19.359869069471856
453,0.0
490,0.0
515,0.0
516,0.0
542,0.0
592,0.0
632,33000000.0
686,1.0
687,1.0
688,2.0
2,1, 1,21, 0,15,10.00,20.00,WinterDesignDay
250,-16.988666341623514
251,33258891.42859637
336,0.0
385,22.782807723555727
386,25.9459755117076
387,-18.49733325447897
388,0.0
425,0.0
450,0.0
451,0.0
452,-19.359869138356313
453,0.0
490,0.0
515,0.0
516,0.0
542,0.0
592,0.0
632,33000000.0
686,1.0
687,1.0
688,2.0
2,1, 1,21, 0,15,20.00,30.00,WinterDesignDay
250,-16.988666341669415
251,33258891.42859604
336,0.0
385,22.782807723555727
386,25.9459755117076
387,-18.497333742029916
388,0.0
425,0.0
450,0.0
451,0.0
452,-19.359869206342598
453,0.0
490,0.0
515,0.0
516,0.0
542,0.0
592,0.0
632,33000000.0
686,1.0
687,1.0
688,2.0
2,1, 1,21, 0,15,30.00,40.00,WinterDesignDay
250,-16.988666341714715
251,33258891.428595718
336,0.0
385,22.782807723555727
386,25.9459755117076
387,-18.497334223224215
388,0.0
425,0.0
450,0.0
451,0.0
452,-19.35986927344242
453,0.0
490,0.0
515,0.0
516,0.0
542,0.0
592,0.0
632,33000000.0
686,1.0
687,1.0
688,2.0
2,1, 1,21, 0,15,40.00,50.00,WinterDesignDay
250,-16.988666341759423
251,33258891.4285954
336,0.0
385,22.782807723555727
386,25.9459755117076
387,-18.497334698144805
388,0.0
425,0.0
450,0.0
451,0.0
452,-19.359869339667338
453,0.0
490,0.0
515,0.0
516,0.0
542,0.0
592,0.0
632,33000000.0
686,1.0
687,1.0
688,2.0
2,1, 1,21, 0,15,50.00,60.00,WinterDesignDay
250,-16.988666341803544
251,33258891.42859508
336,0.0