Program Version,EnergyPlus, Version 24.2.0-94a887817b, YMD=2025.02.04 15:39
1,5,Environment Title[],Latitude[deg],Longitude[deg],Time Zone[],Elevation[m]
2,8,Day of Simulation[],Month[],Day of Month[],DST Indicator[1=yes 0=no],Hour[],StartMinute[],EndMinute[],DayType
3,5,Cumulative Day of Simulation[],Month[],Day of Month[],DST Indicator[1=yes 0=no],DayType  ! When Daily Meters Requested
4,2,Cumulative Days of Simulation[],Month[]  ! When Monthly Meters Requested
5,1,Cumulative Days of Simulation[] ! When Run Period Meters Requested
6,1,Calendar Year of Simulation[] ! When Annual Meters Requested
11,9,Electricity:Facility [J] !Monthly [Value,Min,Day,Hour,Minute,Max,Day,Hour,Minute]
23,9,Electricity:Building [J] !Monthly [Value,Min,Day,Hour,Minute,Max,Day,Hour,Minute]
59,9,InteriorLights:Electricity [J] !Monthly [Value,Min,Day,Hour,Minute,Max,Day,Hour,Minute]
521,9,Electricity:HVAC [J] !Monthly [Value,Min,Day,Hour,Minute,Max,Day,Hour,Minute]
637,9,NaturalGas:Facility [J] !Monthly [Value,Min,Day,Hour,Minute,Max,Day,Hour,Minute]
649,9,NaturalGas:HVAC [J] !Monthly [Value,Min,Day,Hour,Minute,Max,Day,Hour,Minute]
13,11,Electricity:Facility [J] !RunPeriod [Value,Min,Month,Day,Hour,Minute,Max,Month,Day,Hour,Minute]
25,11,Electricity:Building [J] !RunPeriod [Value,Min,Month,Day,Hour,Minute,Max,Month,Day,Hour,Minute]
61,11,InteriorLights:Electricity [J] !RunPeriod [Value,Min,Month,Day,Hour,Minute,Max,Month,Day,Hour,Minute]
523,11,Electricity:HVAC [J] !RunPeriod [Value,Min,Month,Day,Hour,Minute,Max,Month,Day,Hour,Minute]
639,11,NaturalGas:Facility [J] !RunPeriod [Value,Min,Month,Day,Hour,Minute,Max,Month,Day,Hour,Minute]
651,11,NaturalGas:HVAC [J] !RunPeriod [Value,Min,Month,Day,Hour,Minute,Max,Month,Day,Hour,Minute]
End of Data Dictionary
1,RUN PERIOD 1,  41.98, -87.92,  -6.00, 201.00
4,31, 1
11,9832757571.788391,408891.4285714286, 5, 6,50,2986507.638736054,16,13,60
23,993707470.5573891,30000.0, 1, 1,10,617034.3989546289, 1, 9,10
59,970200000.0,30000.0, 1, 1,10,600000.0, 1, 8,10
521,8839050101.230986,378891.4285714286, 5, 6,50,2369473.239781425,16,13,60
637,179230064990.84995,28363918.767883662,21,16,10,41250000.0, 1, 1,10
649,179230064990.84995,28363918.767883662,21,16,10,41250000.0, 1, 1,10
4,59, 2
11,9364977399.809416,99999999999999.0, 5, 6,50,3027969.0789991757,22,15,30
23,868601278.7455559,99999999999999.0, 1, 1,10,-99999999999999.0, 1, 9,10
59,848160000.0,99999999999999.0, 1, 1,10,-99999999999999.0, 1, 8,10
521,8496376121.063895,99999999999999.0, 5, 6,50,2410934.680044547,22,15,30
637,158669888225.4839,26671546.91642805,23,12,10,-99999999999999.0, 1, 1,10
649,158669888225.4839,26671546.91642805,23,12,10,-99999999999999.0, 1, 1,10
4,90, 3
11,10961377563.776457,317034.39895462885,27,18,10,3209963.236099791,27,14,20
23,918943342.6828337,99999999999999.0, 1, 1,10,-99999999999999.0, 1, 9,10
59,897480000.0,99999999999999.0, 1, 1,10,-99999999999999.0, 1, 8,10
521,10042434221.093647,0.0,27,14,30,2592928.8371451623,27,14,20
637,162834907842.0723,0.0,27,14,30,-99999999999999.0, 1, 1,10
649,162834907842.0723,0.0,27,14,30,-99999999999999.0, 1, 1,10
4,120, 4
11,9333977135.30032,30000.0,11,19,10,-99999999999999.0,27,14,20
23,952005406.6201113,99999999999999.0, 1, 1,10,-99999999999999.0, 1, 9,10
59,929520000.0,99999999999999.0, 1, 1,10,-99999999999999.0, 1, 8,10
521,8381971728.680247,99999999999999.0,27,14,30,-99999999999999.0,27,14,20
637,119467035944.34604,99999999999999.0,27,14,30,-99999999999999.0, 1, 1,10
649,119467035944.34604,99999999999999.0,27,14,30,-99999999999999.0, 1, 1,10
4,151, 5
11,8414983526.11664,99999999999999.0,11,19,10,-99999999999999.0,27,14,20
23,993970783.2104665,99999999999999.0, 1, 1,10,632970.1261848862,28,13,10
59,970200000.0,99999999999999.0, 1, 1,10,-99999999999999.0, 1, 8,10
521,7421012742.906306,99999999999999.0,27,14,30,-99999999999999.0,27,14,20
637,89189158879.10466,99999999999999.0,27,14,30,-99999999999999.0, 1, 1,10
649,89189158879.10466,99999999999999.0,27,14,30,-99999999999999.0, 1, 1,10
4,181, 6
11,5805944115.696478,99999999999999.0,11,19,10,-99999999999999.0,27,14,20
23,877327560.4039508,99999999999999.0, 1, 1,10,-99999999999999.0,28,13,10
59,856800000.0,99999999999999.0, 1, 1,10,-99999999999999.0, 1, 8,10
521,4928616555.292628,99999999999999.0,27,14,30,-99999999999999.0,27,14,20
637,37242777752.906845,99999999999999.0,27,14,30,-99999999999999.0, 1, 1,10
649,37242777752.906845,99999999999999.0,27,14,30,-99999999999999.0, 1, 1,10
4,212, 7
11,5215552155.76885,99999999999999.0,11,19,10,-99999999999999.0,27,14,20
23,993979737.6856108,99999999999999.0, 1, 1,10,-99999999999999.0,28,13,10
59,970200000.0,99999999999999.0, 1, 1,10,-99999999999999.0, 1, 8,10
521,4221572418.083269,99999999999999.0,27,14,30,-99999999999999.0,27,14,20
637,10993252169.420149,99999999999999.0,27,14,30,-99999999999999.0, 1, 1,10
649,10993252169.420149,99999999999999.0,27,14,30,-99999999999999.0, 1, 1,10
4,243, 8
11,4413048523.357378,99999999999999.0,11,19,10,-99999999999999.0,27,14,20
23,956603686.0089842,99999999999999.0, 1, 1,10,633067.2613583568,12,14,10
59,933840000.0,99999999999999.0, 1, 1,10,-99999999999999.0, 1, 8,10
521,3456444837.348531,99999999999999.0,27,14,30,-99999999999999.0,27,14,20
637,22563348368.959934,99999999999999.0,27,14,30,-99999999999999.0, 1, 1,10
649,22563348368.959934,99999999999999.0,27,14,30,-99999999999999.0, 1, 1,10
4,273, 9
11,6148479961.203505,99999999999999.0,11,19,10,-99999999999999.0,27,14,20
23,914623342.6828337,99999999999999.0, 1, 1,10,-99999999999999.0,12,14,10
59,893160000.0,99999999999999.0, 1, 1,10,-99999999999999.0, 1, 8,10
521,5233856618.5207615,99999999999999.0,27,14,30,-99999999999999.0,27,14,20
637,56634171215.06527,99999999999999.0,27,14,30,-99999999999999.0, 1, 1,10
649,56634171215.06527,99999999999999.0,27,14,30,-99999999999999.0, 1, 1,10
4,304,10
11,10448542032.85563,99999999999999.0,11,19,10,3210010.795239118,30,14,20
23,993707470.5573891,99999999999999.0, 1, 1,10,-99999999999999.0,12,14,10
59,970200000.0,99999999999999.0, 1, 1,10,-99999999999999.0, 1, 8,10
521,9454834562.298258,99999999999999.0,27,14,30,2592976.396284489,30,14,20
637,127952764550.71712,99999999999999.0,27,14,30,-99999999999999.0, 1, 1,10
649,127952764550.71712,99999999999999.0,27,14,30,-99999999999999.0, 1, 1,10
4,334,11
11,10358091546.101637,99999999999999.0,11,19,10,-99999999999999.0,30,14,20
23,914623342.6828337,99999999999999.0, 1, 1,10,-99999999999999.0,12,14,10
59,893160000.0,99999999999999.0, 1, 1,10,-99999999999999.0, 1, 8,10
521,9443468203.418833,99999999999999.0,27,14,30,-99999999999999.0,30,14,20
637,147075666063.7362,99999999999999.0,27,14,30,-99999999999999.0, 1, 1,10
649,147075666063.7362,99999999999999.0,27,14,30,-99999999999999.0, 1, 1,10
4,365,12
11,10445276027.003908,99999999999999.0,11,19,10,-99999999999999.0,30,14,20
23,956325406.6201115,99999999999999.0, 1, 1,10,-99999999999999.0,12,14,10
59,933840000.0,99999999999999.0, 1, 1,10,-99999999999999.0, 1, 8,10
521,9488950620.383821,99999999999999.0,27,14,30,-99999999999999.0,30,14,20
637,180089083271.03613,99999999999999.0,27,14,30,-99999999999999.0, 1, 1,10
649,180089083271.03613,99999999999999.0,27,14,30,-99999999999999.0, 1, 1,10
5,365
13,100743007558.7906,30000.0, 4,11,19,10,3210010.795239118,10,30,14,20
25,11334418828.455048,30000.0, 1, 1, 1,10,633067.2613583568, 8,12,14,10
61,11066760000.0,30000.0, 1, 1, 1,10,600000.0, 1, 1, 8,10
523,89408588730.32573,0.0, 3,27,14,30,2592976.396284489,10,30,14,20
639,1291942119273.6882,0.0, 3,27,14,30,41250000.0, 1, 1, 1,10
651,1291942119273.6882,0.0, 3,27,14,30,41250000.0, 1, 1, 1,10
1,RUN PERIOD 2,  41.98, -87.92,  -6.00, 201.00
4,1, 7
11,101987250.37987956,99999999999999.0,11,19,10,-99999999999999.0,30,14,20
23,41702063.937277764,99999999999999.0, 1, 1,10,-99999999999999.0,12,14,10
59,40680000.0,99999999999999.0, 1, 1,10,-99999999999999.0, 1, 8,10
521,60285186.44260183,99999999999999.0,27,14,30,-99999999999999.0,30,14,20
637,0.0,99999999999999.0,27,14,30,-99999999999999.0, 1, 1,10
649,0.0,99999999999999.0,27,14,30,-99999999999999.0, 1, 1,10
5,1
13,101987250.37987956,99999999999999.0, 4,11,19,10,-99999999999999.0,10,30,14,20
25,41702063.937277764,99999999999999.0, 1, 1, 1,10,-99999999999999.0, 8,12,14,10
61,40680000.0,99999999999999.0, 1, 1, 1,10,-99999999999999.0, 1, 1, 8,10
523,60285186.44260183,99999999999999.0, 3,27,14,30,-99999999999999.0,10,30,14,20
639,0.0,99999999999999.0, 3,27,14,30,-99999999999999.0, 1, 1, 1,10
651,0.0,99999999999999.0, 3,27,14,30,-99999999999999.0, 1, 1, 1,10
End of Data
 Number of Records Written=          90
