Program Version,EnergyPlus, Version 24.2.0-94a887817b, YMD=2025.01.22 00:05
1,5,Environment Title[],Latitude[deg],Longitude[deg],Time Zone[],Elevation[m]
2,8,Day of Simulation[],Month[],Day of Month[],DST Indicator[1=yes 0=no],Hour[],StartMinute[],EndMinute[],DayType
3,5,Cumulative Day of Simulation[],Month[],Day of Month[],DST Indicator[1=yes 0=no],DayType  ! When Daily Report Variables Requested
4,2,Cumulative Days of Simulation[],Month[]  ! When Monthly Report Variables Requested
5,1,Cumulative Days of Simulation[] ! When Run Period Report Variables Requested
6,1,Calendar Year of Simulation[] ! When Annual Report Variables Requested
250,1,LIVING ZONE,Zone Air Temperature [C] !TimeStep,REPORTSCH
251,1,LIVING ZONE,Zone Air System Sensible Heating Energy [J] !TimeStep,REPORTSCH
336,1,LIVING ZONE,Zone Air System Sensible Cooling Energy [J] !TimeStep,REPORTSCH
385,1,LIVING ZONE,Zone Thermostat Heating Setpoint Temperature [C] !TimeStep,REPORTSCH
386,1,LIVING ZONE,Zone Thermostat Cooling Setpoint Temperature [C] !TimeStep,REPORTSCH
387,1,GARAGE ZONE,Zone Air Temperature [C] !TimeStep,REPORTSCH
388,1,GARAGE ZONE,Zone Air System Sensible Heating Energy [J] !TimeStep,REPORTSCH
425,1,GARAGE ZONE,Zone Air System Sensible Cooling Energy [J] !TimeStep,REPORTSCH
450,1,GARAGE ZONE,Zone Thermostat Heating Setpoint Temperature [C] !TimeStep,REPORTSCH
451,1,GARAGE ZONE,Zone Thermostat Cooling Setpoint Temperature [C] !TimeStep,REPORTSCH
452,1,ATTIC ZONE,Zone Air Temperature [C] !TimeStep,REPORTSCH
453,1,ATTIC ZONE,Zone Air System Sensible Heating Energy [J] !TimeStep,REPORTSCH
490,1,ATTIC ZONE,Zone Air System Sensible Cooling Energy [J] !TimeStep,REPORTSCH
515,1,ATTIC ZONE,Zone Thermostat Heating Setpoint Temperature [C] !TimeStep,REPORTSCH
516,1,ATTIC ZONE,Zone Thermostat Cooling Setpoint Temperature [C] !TimeStep,REPORTSCH
542,1,ACDXCOIL 1,Cooling Coil Total Cooling Energy [J] !TimeStep,REPORTSCH
592,1,HEAT PUMP DX HEATING COIL 1,Heating Coil Heating Energy [J] !TimeStep,REPORTSCH
632,1,SUPP HEATING COIL 1,Heating Coil Heating Energy [J] !TimeStep,REPORTSCH
686,1,TWOSPEED HEAT PUMP 1,Unitary System DX Coil Cycling Ratio [] !TimeStep,REPORTSCH
687,1,TWOSPEED HEAT PUMP 1,Unitary System DX Coil Speed Ratio [] !TimeStep,REPORTSCH
688,1,TWOSPEED HEAT PUMP 1,Unitary System DX Coil Speed Level [] !TimeStep,REPORTSCH
End of Data Dictionary
1,RUN PERIOD 1,  41.98, -87.92,  -6.00, 201.00
2,21, 1,21, 0, 1, 0.00,10.00,Monday
250,-0.6599041985372316
251,38035534.98859448
336,0.0
385,18.701658569330633
386,26.591929003938205
387,-0.9439115683327428
388,0.0
425,0.0
450,0.0
451,0.0
452,-1.9709834748904753
453,0.0
490,0.0
515,0.0
516,0.0
542,0.0
592,4839743.985079641
632,32937854.380415566
686,1.0
687,1.0
688,2.0
2,21, 1,21, 0, 1,10.00,20.00,Monday
250,-0.6599511872657493
251,38037182.36944971
336,0.0
385,18.701658569330633
386,26.591929003938205
387,-0.9522815607822501
388,0.0
425,0.0
450,0.0
451,0.0
452,-1.9528547407372159
453,0.0
490,0.0
515,0.0
516,0.0
542,0.0
592,4823801.676011795
632,32954463.970215056
686,1.0
687,1.0
688,2.0
2,21, 1,21, 0, 1,20.00,30.00,Monday
250,-0.6600774647317889
251,38038913.495937906
336,0.0
385,18.701658569330633
386,26.591929003938205
387,-0.9618838609814575
388,0.0
425,0.0
450,0.0
451,0.0
452,-1.9497718966845838
453,0.0
490,0.0
515,0.0
516,0.0
542,0.0
592,4807858.162905219
632,32972095.92466589
686,1.0
687,1.0
688,2.0
2,21, 1,21, 0, 1,30.00,40.00,Monday
250,-0.6601881606701793
251,38040621.773538955
336,0.0
385,18.701658569330633
386,26.591929003938205
387,-0.9729232141008293
388,0.0
425,0.0
450,0.0
451,0.0
452,-1.9626358343359633
453,0.0
490,0.0
515,0.0
516,0.0
542,0.0
592,4791913.445623511
632,32989757.305074118
686,1.0
687,1.0
688,2.0
2,21, 1,21, 0, 1,40.00,50.00,Monday
250,-0.6603845694384106
251,38034964.695824735
336,0.0
385,18.701658569330633
386,26.591929003938205
387,-0.9855570238612482
388,0.0
425,0.0
450,0.0
451,0.0
452,-1.9898276407498268
453,0.0
490,0.0
515,0.0
516,0.0
542,0.0
592,4775967.524030239
632,33000000.0
686,1.0
687,1.0
688,2.0
2,21, 1,21, 0, 1,50.00,60.00,Monday
250,-0.6606974254467076
251,38019080.270360194
336,0.0
385,18.701658569330633
386,26.591929003938205
387,-0.9999741595745004
388,0.0
425,0.0
450,0.0
451,0.0
452,-2.0298162903398165
453,0.0
490,0.0
515,0.0
516,0.0
542,0.0
592,4760020.397988958
632,33000000.0
686,1.0
687,1.0
688,2.0
2,21, 1,21, 0, 2, 0.00,10.00,Monday
250,-0.6608285610298125
251,38018982.43391493
336,0.0
385,18.701658569330633
386,26.591929003938205
387,-1.015493888721022
388,0.0
425,0.0
450,0.0
451,0.0
452,-2.0765594438481476
453,0.0
490,0.0
515,0.0
516,0.0
542,0.0
592,4760020.397988958
632,33000000.0
686,1.0
687,1.0
688,2.0
2,21, 1,21, 0, 2,10.00,20.00,Monday
250,-0.6609527952166036
251,38018978.71804653
336,0.0
385,18.701658569330633
386,26.591929003938205
387,-1.0311752395016036
388,0.0
425,0.0
450,0.0
451,0.0
452,-2.119274030697064
453,0.0
490,0.0
515,0.0
516,0.0
542,0.0
592,4760020.397988958
632,33000000.0
686,1.0
687,1.0
688,2.0
2,21, 1,21, 0, 2,20.00,30.00,Monday
250,-0.6610775124137597
251,38018978.97809356
336,0.0
385,18.701658569330633
386,26.591929003938205
387,-1.046465520599166
388,0.0
425,0.0
450,0.0
451,0.0
452,-2.150731891866838
453,0.0
490,0.0
515,0.0
516,0.0
542,0.0
592,4760020.397988958
632,33000000.0
686,1.0
687,1.0
688,2.0
2,21, 1,21, 0, 2,30.00,40.00,Monday
250,-0.6611997397231502
251,38018977.637467355
336,0.0
385,18.701658569330633
386,26.591929003938205
387,-1.061043547761478
388,0.0
425,0.0
450,0.0
451,0.0
452,-2.1701118945122517
453,0.0
490,0.0
515,0.0
516,0.0
542,0.0
592,4760020.397988959
632,33000000.0
686,1.0
687,1.0
688,2.0
2,21, 1,21, 0, 2,40.00,50.00,Monday
250,-0.661320102814287
251,38018976.63371587
336,0.0
385,18.701658569330633
386,26.591929003938205
387,-1.07476872054587
388,0.0
425,0.0
450,0.0
451,0.0
452,-2.1802531428391996
453,0.0
490,0.0
515,0.0
516,0.0
542,0.0
592,4760020.397988956
632,33000000.0
686,1.0
687,1.0
688,2.0
2,21, 1,21, 0, 2,50.00,60.00,Monday
250,-0.6614383278734802
251,38018975.48253425
336,0.0
385,18.701658569330633
386,26.591929003938205
387,-1.0876034300483841
388,0.0
425,0.0
450,0.0
451,0.0
452,-2.1843036091816135
453,0.0
490,0.0
515,0.0
516,0.0
542,0.0
592,4760020.397988959
632,33000000.0
686,1.0
687,1.0
688,2.0
2,21, 1,21, 0, 3, 0.00,10.00,Monday
250,-0.5797740741861628
251,37977479.80040854
336,0.0
385,18.701658569330633
386,26.591929003938205
387,-1.0891619665651253
388,0.0
425,0.0
450,0.0
451,0.0
452,-2.1768354761598263
453,0.0
490,0.0
515,0.0
516,0.0
542,0.0
592,4762558.894114005
632,33000000.0
686,1.0
687,1.0
688,2.0
2,21, 1,21, 0, 3,10.00,20.00,Monday
250,-0.4963007142293611
251,37958892.833012395
336,0.0
385,18.701658569330633
386,26.591929003938205
387,-1.0781385030038741
388,0.0
425,0.0
450,0.0
451,0.0
452,-2.1518720197806926
453,0.0
490,0.0
515,0.0
516,0.0
542,0.0
592,4764988.43573097
632,32979959.388492446
686,1.0
687,1.0
688,2.0
2,21, 1,21, 0, 3,20.00,30.00,Monday
250,-0.41380989786159494
251,37916059.22795853
336,0.0
385,18.701658569330633
386,26.591929003938205
387,-1.0589464982665626
388,0.0
425,0.0
450,0.0
451,0.0
452,-2.1079619837579706
453,0.0
490,0.0
515,0.0
516,0.0
542,0.0
592,4767308.250738334
632,32934278.77101012
686,1.0
687,1.0
688,2.0
2,21, 1,21, 0, 3,30.00,40.00,Monday
250,-0.33115167139310336
251,37873128.36976141
336,0.0
385,18.701658569330633
386,26.591929003938205
387,-1.0353840895638893
388,0.0
425,0.0
450,0.0
451,0.0
452,-2.0482346659809183
453,0.0
490,0.0
515,0.0
516,0.0
542,0.0
592,4769517.689516205
632,32889230.47532733
686,1.0
687,1.0
688,2.0
2,21, 1,21, 0, 3,40.00,50.00,Monday
250,-0.24845068584329721
251,37830183.69060666
336,0.0
385,18.701658569330633
386,26.591929003938205
387,-1.008763303497481
388,0.0
425,0.0
450,0.0
451,0.0
452,-1.9771734076836855
453,0.0
490,0.0
515,0.0
516,0.0
542,0.0
592,4771616.115684973
632,32844212.26699347
686,1.0
687,1.0
688,2.0
2,21, 1,21, 0, 3,50.00,60.00,Monday
250,-0.16572652568883
251,37787233.492971055
336,0.0
385,18.701658569330633
386,26.591929003938205
387,-0.9788810996095368
388,0.0
425,0.0
450,0.0
451,0.0
452,-1.8983974747394106
453,0.0
490,0.0
515,0.0
516,0.0
542,0.0
592,4773602.736238394
632,32799289.81327767
686,1.0
687,1.0
688,2.0
2,21, 1,21, 0, 4, 0.00,10.00,Monday
250,-0.1647288188900261
251,37788305.00736059
336,0.0
385,18.701658569330633
386,26.591929003938205
387,-0.9561739712784483
388,0.0
425,0.0
450,0.0
451,0.0
452,-1.822193985876142
453,0.0
490,0.0
515,0.0
516,0.0
542,0.0
592,4773428.982371631
632,32756521.926917564
686,1.0
687,1.0
688,2.0
2,21, 1,21, 0, 4,10.00,20.00,Monday
250,-0.16527268189613806
251,37788664.432838485
336,0.0
385,18.701658569330633
386,26.591929003938205
387,-0.9435254755139412
388,0.0
425,0.0
450,0.0
451,0.0
452,-1.7576004116818706
453,0.0
490,0.0
515,0.0
516,0.0
542,0.0
592,4773255.169447958
632,32756224.928430367
686,1.0
687,1.0
688,2.0
2,21, 1,21, 0, 4,20.00,30.00,Monday
250,-0.16507325206269138
251,37788584.49038087
336,0.0
385,18.701658569330633
386,26.591929003938205
387,-0.9375038799179688
388,0.0
425,0.0
450,0.0
451,0.0
452,-1.708223075239236
453,0.0
490,0.0
515,0.0
516,0.0
542,0.0
592,4773081.29743726
632,32756719.170675088
686,1.0
687,1.0
688,2.0
2,21, 1,21, 0, 4,30.00,40.00,Monday
250,-0.16502215081353536
251,37788598.33742364
336,0.0
385,18.701658569330633
386,26.591929003938205
387,-0.9342611101261277
388,0.0
425,0.0
450,0.0
451,0.0
452,-1.6724067853545521
453,0.0
490,0.0
515,0.0
516,0.0
542,0.0
592,4772907.366309401
632,32756827.06401319
686,1.0
687,1.0
688,2.0
2,21, 1,21, 0, 4,40.00,50.00,Monday
250,-0.16498552752026424
251,37788617.42084417
336,0.0
385,18.701658569330633
386,26.591929003938205
387,-0.931996876178156
388,0.0
425,0.0
450,0.0
451,0.0
452,-1.6464826836656459
453,0.0
490,0.0
515,0.0
516,0.0
542,0.0
592,4772733.376034233
632,32757012.3403731
686,1.0
687,1.0
688,2.0
2,21, 1,21, 0, 4,50.00,60.00,Monday
250,-0.16494683854669848
251,37788635.122263104
336,0.0
385,18.701658569330633
386,26.591929003938205
387,-0.9305142274694475
388,0.0
425,0.0
450,0.0
451,0.0
452,-1.6273910776113845
453,0.0
490,0.0
515,0.0
516,0.0
542,0.0
592,4772559.326581575
632,32757205.203775287
686,1.0
687,1.0
688,2.0
2,21, 1,21, 0, 5, 0.00,10.00,Monday
250,-0.16491021737441489
251,37788653.99776743
336,0.0
385,18.701658569330633
386,26.591929003938205
387,-0.9298607509223149
388,0.0
425,0.0
450,0.0
451,0.0
452,-1.612515644559752
453,0.0
490,0.0
515,0.0
516,0.0
542,0.0
592,4759720.85868958
632,32770061.433538977
686,1.0
687,1.0
688,2.0
2,21, 1,21, 0, 5,10.00,20.00,Monday
250,-0.164860482809901
251,37789928.7972488
336,0.0
385,18.701658569330633
386,26.591929003938205
387,-0.9299005098660634
388,0.0
425,0.0
450,0.0
451,0.0
452,-1.5995457765238148
453,0.0
490,0.0
515,0.0
516,0.0
542,0.0
592,4746877.262331865
632,32784186.892768785
686,1.0
687,1.0
688,2.0
2,21, 1,21, 0, 5,20.00,30.00,Monday
250,-0.16481058468145565
251,37791235.9584973
336,0.0
385,18.701658569330633
386,26.591929003938205
387,-0.9304056962349178
388,0.0
425,0.0
450,0.0
451,0.0
452,-1.5870797106513441
453,0.0
490,0.0
515,0.0
516,0.0
542,0.0
592,4734028.534436013
632,32798342.870955363
686,1.0
687,1.0
688,2.0
2,21, 1,21, 0, 5,30.00,40.00,Monday
250,-0.16476114094077862
251,37792532.53553089
336,0.0
385,18.701658569330633
386,26.591929003938205
387,-0.9311733274650741
388,0.0
425,0.0
450,0.0
451,0.0
452,-1.5746835331332236
453,0.0
490,0.0
515,0.0
516,0.0
542,0.0
592,4721174.671927155
632,32812493.06669395
686,1.0
687,1.0
688,2.0
2,21, 1,21, 0, 5,40.00,50.00,Monday
250,-0.16471167507606446
251,37793831.735062376
336,0.0
385,18.701658569330633
386,26.591929003938205
387,-0.9320671653162559
388,0.0
425,0.0
450,0.0
451,0.0
452,-1.5624255856944875
453,0.0
490,0.0
515,0.0
516,0.0
542,0.0
592,4708315.671727969
632,32826651.27927591
686,1.0
687,1.0
688,2.0
2,21, 1,21, 0, 5,50.00,60.00,Monday
250,-0.16466206860253227
251,37795131.61674753
336,0.0
385,18.701658569330633
386,26.591929003938205
387,-0.9330077169743939
388,0.0
425,0.0
450,0.0
451,0.0
452,-1.5504566901970036
453,0.0
490,0.0
515,0.0
516,0.0
542,0.0
592,4695451.530758676
632,32840815.37860642
686,1.0
687,1.0
688,2.0
2,21, 1,21, 0, 6, 0.00,10.00,Monday
250,-0.16461025581041325
251,37796430.79833268
336,0.0
385,18.701658569330633
386,26.591929003938205
387,-0.9340814121327673
388,0.0
425,0.0
450,0.0
451,0.0
452,-1.5394722991736518
453,0.0
490,0.0
515,0.0
516,0.0
542,0.0
592,4695264.082255858
632,32842303.198137328
686,1.0
687,1.0
688,2.0
2,21, 1,21, 0, 6,10.00,20.00,Monday
250,-0.1645725413551059
251,37796473.399598196
336,0.0
385,18.701658569330633
386,26.591929003938205
387,-0.9353718503534234
388,0.0
425,0.0
450,0.0
451,0.0
452,-1.5302852759907635
453,0.0
490,0.0
515,0.0
516,0.0
542,0.0
592,4695076.569900009
632,32842525.71726859
686,1.0
687,1.0
688,2.0
2,21, 1,21, 0, 6,20.00,30.00,Monday
250,-0.16453527127547982
251,37796484.27754339
336,0.0
385,18.701658569330633
386,26.591929003938205
387,-0.9368737043362017
388,0.0
425,0.0
450,0.0
451,0.0
452,-1.5232234319128493
453,0.0
490,0.0
515,0.0
516,0.0
542,0.0
592,4694888.993658494
632,32842723.93209404
686,1.0
687,1.0
688,2.0
2,21, 1,21, 0, 6,30.00,40.00,Monday
250,-0.1644973538338629
251,37796506.19019504
336,0.0
385,18.701658569330633
386,26.591929003938205
387,-0.9385451694182133
388,0.0
425,0.0
450,0.0
451,0.0
452,-1.5180805221058244
453,0.0
490,0.0
515,0.0
516,0.0
542,0.0
592,4694701.353498662
632,32842933.833651684
686,1.0
687,1.0
688,2.0
2,21, 1,21, 0, 6,40.00,50.00,Monday
250,-0.16445902659130618
251,37796525.78512258
336,0.0
385,18.701658569330633
386,26.591929003938205
387,-0.9403543815478033
388,0.0
425,0.0
450,0.0
451,0.0
452,-1.514406400840963
453,0.0
490,0.0
515,0.0
516,0.0
542,0.0
592,4694513.649387832
632,32843141.353465334
686,1.0
687,1.0
688,2.0
2,21, 1,21, 0, 6,50.00,60.00,Monday
250,-0.16442021846014243
251,37796544.903212704
336,0.0
385,18.701658569330633
386,26.591929003938205
387,-0.9422841992372105
388,0.0
425,0.0
450,0.0
451,0.0
452,-1.5117804775461818
453,0.0
490,0.0
515,0.0
516,0.0
542,0.0
592,4694325.881293308
632,32843348.498719487
686,1.0
687,1.0
688,2.0
2,21, 1,21, 0, 7, 0.00,10.00,Monday
250,-0.1654159945268491
251,37797121.38962802
336,0.0
385,18.701658569330633
386,26.591929003938205
387,-0.9467585390651034
388,0.0
425,0.0
450,0.0
451,0.0
452,-1.5150695438876862
453,0.0
490,0.0
515,0.0
516,0.0
542,0.0
592,4723573.583255435
632,32814119.96725849
686,1.0
687,1.0
688,2.0
2,21, 1,21, 0, 7,10.00,20.00,Monday
250,-0.16538800372035875
251,37794231.51545357
336,0.0
385,18.701658569330633
386,26.591929003938205
387,-0.9559519714218886
388,0.0
425,0.0
450,0.0
451,0.0
452,-1.5337448186227147
453,0.0
490,0.0
515,0.0
516,0.0
542,0.0
592,4752837.186047653
632,32782517.977940883
686,1.0
687,1.0
688,2.0
2,21, 1,21, 0, 7,20.00,30.00,Monday
250,-0.16532400981283304
251,37791246.99869934
336,0.0
385,18.701658569330633
386,26.591929003938205
387,-0.9701047642448485
388,0.0
425,0.0
450,0.0
451,0.0
452,-1.5731787379984228
453,0.0
490,0.0
515,0.0
516,0.0
542,0.0
592,4782116.702651945
632,32750273.33478015
686,1.0
687,1.0
688,2.0
2,21, 1,21, 0, 7,30.00,40.00,Monday
250,-0.16526923521155135
251,37788292.06610551
336,0.0
385,18.701658569330633
386,26.591929003938205
387,-0.988260957290863
388,0.0
425,0.0
450,0.0
451,0.0
452,-1.6309939324777558
453,0.0
490,0.0
515,0.0
516,0.0
542,0.0
592,4811412.146064445
632,32718017.990945
686,1.0
687,1.0
688,2.0
2,21, 1,21, 0, 7,40.00,50.00,Monday
250,-0.1652116837281474
251,37785329.19085023
336,0.0
385,18.701658569330633
386,26.591929003938205
387,-1.0093410493215373
388,0.0
425,0.0
450,0.0
451,0.0
452,-1.7009357132803116
453,0.0
490,0.0
515,0.0
516,0.0
542,0.0
592,4840723.52929546
632,32685745.225574873
686,1.0
687,1.0
688,2.0
2,21, 1,21, 0, 7,50.00,60.00,Monday
250,-0.16515304935841965
251,37782363.61440977
336,0.0
385,18.701658569330633
386,26.591929003938205
387,-1.0325975396763538
388,0.0
425,0.0
450,0.0
451,0.0
452,-1.7773083009253927
453,0.0
490,0.0
515,0.0
516,0.0
542,0.0
592,4870050.865369484
632,32653452.893763874
686,1.0
687,1.0
688,2.0
2,21, 1,21, 0, 8, 0.00,10.00,Monday
250,0.03527984419411992
251,37671507.872971006
336,0.0
385,18.701658569330633
386,26.591929003938205
387,-1.0286960030872103
388,0.0
425,0.0
450,0.0
451,0.0
452,-1.8362670931885678
453,0.0
490,0.0
515,0.0
516,0.0
542,0.0
592,4889730.300311493
632,32630806.383183617
686,1.0
687,1.0
688,2.0
2,21, 1,21, 0, 8,10.00,20.00,Monday
250,0.2358807309696799
251,37565771.29634827
336,0.0
385,18.701658569330633
386,26.591929003938205
387,-0.987105913767632
388,0.0
425,0.0
450,0.0
451,0.0
452,-1.8274609138299907
453,0.0
490,0.0
515,0.0
516,0.0
542,0.0
592,4909380.719869504
632,32505516.379593376
686,1.0
687,1.0
688,2.0
2,21, 1,21, 0, 8,20.00,30.00,Monday
250,0.4342961372650604
251,37461342.03337755
336,0.0
385,18.701658569330633
386,26.591929003938205
387,-0.9160707758597983
388,0.0
425,0.0
450,0.0
451,0.0
452,-1.720103189554897
453,0.0
490,0.0
515,0.0
516,0.0
542,0.0
592,4929009.6156952735
632,32380288.285798725
686,1.0
687,1.0
688,2.0
2,21, 1,21, 0, 8,30.00,40.00,Monday
250,0.633348753631733
251,37356521.94759645
336,0.0
385,18.701658569330633
386,26.591929003938205
387,-0.8257164123610836
388,0.0
425,0.0
450,0.0
451,0.0
452,-1.5246193244559816
453,0.0
490,0.0
515,0.0
516,0.0
542,0.0
592,4952863.6467726575
632,32251964.11038368
686,1.0
687,1.0
688,2.0
2,21, 1,21, 0, 8,40.00,50.00,Monday
250,0.8324823001812054
251,37251257.07027055
336,0.0
385,18.701658569330633
386,26.591929003938205
387,-0.724034667794211
388,0.0
425,0.0
450,0.0
451,0.0
452,-1.2489411169380844
453,0.0
490,0.0
515,0.0
516,0.0
542,0.0
592,4977062.298687916
632,32122549.853808694
686,1.0
687,1.0
688,2.0
2,21, 1,21, 0, 8,50.00,60.00,Monday
250,1.0323960448326113
251,37146496.98927083
336,0.0
385,18.701658569330633
386,26.591929003938205
387,-0.6281092066382429
388,0.0
425,0.0
450,0.0
451,0.0
452,-0.9358544431913587
453,0.0
490,0.0
515,0.0
516,0.0
542,0.0
592,5001395.306277511
632,31940858.825229842
686,1.0
687,1.0
688,2.0
2,21, 1,21, 0, 9, 0.00,10.00,Monday
250,1.2977918149665522
251,37007503.66838309
336,0.0
385,18.701658569330633
386,26.591929003938205
387,-0.48967676558913287
388,0.0
425,0.0
450,0.0
451,0.0
452,-0.45634975130426814
453,0.0
490,0.0
515,0.0
516,0.0
542,0.0
592,5029363.153609448
632,31790644.1689047
686,1.0
687,1.0
688,2.0
2,21, 1,21, 0, 9,10.00,20.00,Monday
250,1.5630524603279239
251,36867641.64192116
336,0.0
385,18.701658569330633
386,26.591929003938205
387,-0.33884472493299467
388,0.0
425,0.0
450,0.0
451,0.0
452,0.06788164217398746
453,0.0
490,0.0
515,0.0
516,0.0
542,0.0
592,5057356.862312016
632,31622752.033189584
686,1.0
687,1.0
688,2.0
2,21, 1,21, 0, 9,20.00,30.00,Monday
250,1.8284587824029916
251,36727695.52606353
336,0.0
385,18.701658569330633
386,26.591929003938205
387,-0.17894112751711455
388,0.0
425,0.0
450,0.0
451,0.0
452,0.6325683893135245
453,0.0
490,0.0
515,0.0
516,0.0
542,0.0
592,5085392.284952975
632,31454810.087999023
686,1.0
687,1.0
688,2.0
2,21, 1,21, 0, 9,30.00,40.00,Monday
250,2.0938006431735596
251,36587782.37681833
336,0.0
385,18.701658569330633
386,26.591929003938205
387,-0.00921255260238825
388,0.0
425,0.0
450,0.0
451,0.0
452,1.2271946632676616
453,0.0
490,0.0
515,0.0
516,0.0
542,0.0
592,5113485.892141593
632,31286787.363227528
686,1.0
687,1.0
688,2.0
2,21, 1,21, 0, 9,40.00,50.00,Monday
250,2.3594450371637787
251,36446726.894475825
336,0.0
385,18.701658569330647
386,26.591929003938226
387,0.13593349752560252
388,0.0
425,0.0
450,0.0
451,0.0
452,1.7289707452099337
453,0.0
490,0.0
515,0.0
516,0.0
542,0.0
592,5141654.529350725
632,31093929.251551576
686,1.0000000000000009
687,1.0000000000000009
688,2.0000000000000018
2,21, 1,21, 0, 9,50.00,60.00,Monday
250,2.6252225131740294
251,36306039.332502805
336,0.0
385,18.701658569330633
386,26.591929003938205
387,0.28807775916888134
388,0.0
425,0.0
450,0.0
451,0.0
452,2.2695361929907714
453,0.0
490,0.0
515,0.0
516,0.0
542,0.0
592,5169915.672059795
632,30949918.883642912
686,1.0
687,1.0
688,2.0
2,21, 1,21, 0,10, 0.00,10.00,Monday
250,3.0872065553336325
251,36060923.89284857
336,0.0
385,18.701658569330633
386,26.591929003938205
387,0.4785390897676042
388,0.0
425,0.0
450,0.0
451,0.0
452,2.828916809421754
453,0.0
490,0.0
515,0.0
516,0.0
542,0.0
592,5241404.10703412
632,30643726.960331768
686,1.0
687,1.0
688,2.0
2,21, 1,21, 0,10,10.00,20.00,Monday
250,3.55035831396841
251,35815790.814047106
336,0.0
385,18.701658569330633
386,26.591929003938205
387,0.7695845940939017
388,0.0
425,0.0
450,0.0
451,0.0
452,3.583815588789844
453,0.0
490,0.0
515,0.0
516,0.0
542,0.0
592,5315291.857316207
632,30323894.789906405
686,1.0
687,1.0
688,2.0
2,21, 1,21, 0,10,20.00,30.00,Monday
250,4.013883075198899
251,35569194.40702203
336,0.0
385,18.701658569330625
386,26.591929003938194
387,1.0499771767361137
388,0.0
425,0.0
450,0.0
451,0.0
452,4.2728424756821335
453,0.0
490,0.0
515,0.0
516,0.0
542,0.0
592,5391793.298050374
632,30000906.519185647
686,0.9999999999999996
687,0.9999999999999996
688,1.9999999999999991
2,21, 1,21, 0,10,30.00,40.00,Monday
250,4.477622805519567
251,35322348.829536304
336,0.0
385,18.70165856933064
386,26.591929003938215
387,1.3317467715078526
388,0.0
425,0.0
450,0.0
451,0.0
452,4.974597756738657
453,0.0
490,0.0
515,0.0
516,0.0
542,0.0
592,5471132.199313744
632,29674805.05660977
686,1.0000000000000004
687,1.0000000000000004
688,2.000000000000001
2,21, 1,21, 0,10,40.00,50.00,Monday
250,4.9416517985214625
251,35075206.92176831
336,0.0
385,18.701658569330647
386,26.591929003938226
387,1.621887139846689
388,0.0
425,0.0
450,0.0
451,0.0
452,5.7386556156811865
453,0.0
490,0.0
515,0.0
516,0.0
542,0.0
592,5553542.375759332
632,29345351.652271736
686,1.0000000000000009
687,1.0000000000000009
688,2.0000000000000018
2,21, 1,21, 0,10,50.00,60.00,Monday
250,5.405698349099645
251,34827908.3885238
336,0.0
385,18.701658569330647
386,26.591929003938226
387,1.9221130725946722
388,0.0
425,0.0
450,0.0
451,0.0
452,6.567737762144404
453,0.0
490,0.0
515,0.0
516,0.0
542,0.0
592,5639267.778995938
632,29012379.75162707
686,1.0000000000000009
687,1.0000000000000009
688,2.0000000000000018
2,21, 1,21, 0,11, 0.00,10.00,Monday
250,5.689236429410055
251,34677028.765578136
336,0.0
385,18.701658569330633
386,26.591929003938205
387,2.2086238950020234
388,0.0
425,0.0
450,0.0
451,0.0
452,7.422966504197898
453,0.0
490,0.0
515,0.0
516,0.0
542,0.0
592,5689519.861596227
632,28779040.483149882
686,1.0
687,1.0
688,2.0
2,21, 1,21, 0,11,10.00,20.00,Monday
250,5.971861811704682
251,34526578.8112102
336,0.0
385,18.701658569330633
386,26.591929003938205
387,2.4783943810865945
388,0.0
425,0.0
450,0.0
451,0.0
452,8.27350233598959
453,0.0
490,0.0
515,0.0
516,0.0
542,0.0
592,5740969.350869596
632,28576988.759539515
686,1.0
687,1.0
688,2.0
2,21, 1,21, 0,11,20.00,30.00,Monday
250,6.254553424474199
251,34376044.54446505
336,0.0
385,18.701658569330625
386,26.591929003938194
387,2.7505545079747993
388,0.0
425,0.0
450,0.0
451,0.0
452,9.120124372139303
453,0.0
490,0.0
515,0.0
516,0.0
542,0.0
592,5793671.095282218
632,28373781.035868965
686,0.9999999999999996
687,0.9999999999999996
688,1.9999999999999991
2,21, 1,21, 0,11,30.00,40.00,Monday
250,6.5369079952259534
251,34225639.05036007
336,0.0
385,18.70165856933064
386,26.591929003938215
387,3.027888814273533
388,0.0
425,0.0
450,0.0
451,0.0
452,9.942023079913355
453,0.0
490,0.0
515,0.0
516,0.0
542,0.0
592,5847681.427966583
632,28169321.95691234
686,1.0000000000000004
687,1.0000000000000004
688,2.000000000000001
2,21, 1,21, 0,11,40.00,50.00,Monday
250,6.819115787711702
251,34075258.8530754
336,0.0
385,18.701658569330647
386,26.591929003938226
387,3.3069957343553735
388,0.0
425,0.0
450,0.0
451,0.0
452,10.687571452799446
453,0.0
490,0.0
515,0.0
516,0.0
542,0.0
592,5903058.082199926
632,27963556.568654947
686,1.0000000000000009
687,1.0000000000000009
688,2.0000000000000018
2,21, 1,21, 0,11,50.00,60.00,Monday
250,7.101125278523441
251,33924930.272528015
336,0.0
385,18.701658569330647
386,26.591929003938226
387,3.5840225584259087
388,0.0
425,0.0
450,0.0
451,0.0
452,11.323331578987073
453,0.0
490,0.0
515,0.0
516,0.0
542,0.0
592,5959860.237244541
632,27756408.50895066
686,1.0000000000000009
687,1.0000000000000009
688,2.0000000000000018
2,21, 1,21, 0,12, 0.00,10.00,Monday
250,7.367769967440838
251,33782810.59894444
336,0.0
385,18.701658569330633
386,26.591929003938205
387,3.8240195186419426
388,0.0
425,0.0
450,0.0
451,0.0
452,11.822472840630699
453,0.0
490,0.0
515,0.0
516,0.0
542,0.0
592,5991096.197635709
632,27605800.490499377
686,1.0
687,1.0
688,2.0
2,21, 1,21, 0,12,10.00,20.00,Monday
250,7.632453558703234
251,33645222.18401395
336,0.0
385,18.701658569330633
386,26.591929003938205
387,4.116408604159325
388,0.0
425,0.0
450,0.0
451,0.0
452,12.386464434100485
453,0.0
490,0.0
515,0.0
516,0.0
542,0.0
592,7572016.881221027
632,25885405.718181383
686,1.0
687,1.0
688,2.0
2,21, 1,21, 0,12,20.00,30.00,Monday
250,7.898131393700684
251,33505388.40329805
336,0.0
385,18.701658569330633
386,26.591929003938205
387,4.385527791446467
388,0.0
425,0.0
450,0.0
451,0.0
452,12.901749666957787
453,0.0
490,0.0
515,0.0
516,0.0
542,0.0
592,7609409.155487608
632,25708432.181715734
686,1.0
687,1.0
688,2.0
2,21, 1,21, 0,12,30.00,40.00,Monday
250,8.163675290780926
251,33365628.59392489
336,0.0
385,18.701658569330633
386,26.591929003938205
387,4.644341857348254
388,0.0
425,0.0
450,0.0
451,0.0
452,13.393353905203506
453,0.0
490,0.0
515,0.0
516,0.0
542,0.0
592,7646583.592010483
632,25531461.727064
686,1.0
687,1.0
688,2.0
2,21, 1,21, 0,12,40.00,50.00,Monday
250,8.429174598433178
251,33225892.490127996
336,0.0
385,18.701658569330633
386,26.591929003938205
387,4.898769270106899
388,0.0
425,0.0
450,0.0
451,0.0
452,13.835249075605434
453,0.0
490,0.0
515,0.0
516,0.0
542,0.0
592,7683540.190789656
632,25354757.117505208
686,1.0
687,1.0
688,2.0
2,21, 1,21, 0,12,50.00,60.00,Monday
250,8.694659695890785
251,33086163.260538157
336,0.0
385,18.701658569330633
386,26.591929003938205
387,5.147717347046542
388,0.0
425,0.0
450,0.0
451,0.0
452,14.203053974443726
453,0.0
490,0.0
515,0.0
516,0.0
542,0.0
592,7720278.951825123
632,25178285.797272816
686,1.0
687,1.0
688,2.0
2,21, 1,21, 0,13, 0.00,10.00,Monday
250,8.877450789939932
251,32987637.62283349
336,0.0
385,18.701658569330633
386,26.591929003938205
387,5.380105637945905
388,0.0
425,0.0
450,0.0
451,0.0
452,14.49431464050815
453,0.0
490,0.0
515,0.0
516,0.0
542,0.0
592,7745410.487127085
632,25079141.131581772
686,1.0
687,1.0
688,2.0
2,21, 1,21, 0,13,10.00,20.00,Monday
250,9.059673309885502
251,32893313.369037278
336,0.0
385,18.701658569330633
386,26.591929003938205
387,5.598893104290806
388,0.0
425,0.0
450,0.0
451,0.0
452,14.723565473849128
453,0.0
490,0.0
515,0.0
516,0.0
542,0.0
592,7770439.060057996
632,24962339.794080876
686,1.0
687,1.0
688,2.0
2,21, 1,21, 0,13,20.00,30.00,Monday
250,9.242653983678778
251,32798718.416960802
336,0.0
385,18.701658569330633
386,26.591929003938205
387,5.803794757136896
388,0.0
425,0.0
450,0.0
451,0.0
452,14.906735784355462
453,0.0
490,0.0
515,0.0
516,0.0
542,0.0
592,7795364.670617863
632,24843241.016793013
686,1.0
687,1.0
688,2.0
2,21, 1,21, 0,13,30.00,40.00,Monday
250,9.425420767280933
251,32704267.560019266
336,0.0
385,18.701658569330633
386,26.591929003938205
387,5.9988302489741985
388,0.0
425,0.0
450,0.0
451,0.0
452,15.055607747610686
453,0.0
490,0.0
515,0.0
516,0.0
542,0.0
592,7820187.318806681
632,24723864.75670419
686,1.0
687,1.0
688,2.0
2,21, 1,21, 0,13,40.00,50.00,Monday
250,9.60814615567734
251,32609872.652633138
336,0.0
385,18.701658569330633
386,26.591929003938205
387,6.1877493885646615
388,0.0
425,0.0
450,0.0
451,0.0
452,15.174921574384728
453,0.0
490,0.0
515,0.0
516,0.0
542,0.0
592,7844907.00462445
632,24604740.699545156
686,1.0
687,1.0
688,2.0
2,21, 1,21, 0,13,50.00,60.00,Monday
250,9.79088361604905
251,32515504.343023915
336,0.0
385,18.701658569330633
386,26.591929003938205
387,6.371852377227876
388,0.0
425,0.0
450,0.0
451,0.0
452,15.268315259845505
453,0.0
490,0.0
515,0.0
516,0.0
542,0.0
592,7869523.72807117
632,24485775.24994117
686,1.0
687,1.0
688,2.0
2,21, 1,21, 0,14, 0.00,10.00,Monday
250,9.990758113422931
251,32411913.254601084
336,0.0
385,18.701658569330633
386,26.591929003938205
387,6.553977552727574
388,0.0
425,0.0
450,0.0
451,0.0
452,15.324393816229355
453,0.0
490,0.0
515,0.0
516,0.0
542,0.0
592,7896260.907308882
632,24364716.204723783
686,1.0
687,1.0
688,2.0
2,21, 1,21, 0,14,10.00,20.00,Monday
250,10.190078776062371
251,32308228.936193492
336,0.0
385,18.701658569330633
386,26.591929003938205
387,6.734256658926415
388,0.0
425,0.0
450,0.0
451,0.0
452,15.32484302171429
453,0.0
490,0.0
515,0.0
516,0.0
542,0.0
592,7922875.552815753
632,24234131.342568208
686,1.0
687,1.0
688,2.0
2,21, 1,21, 0,14,20.00,30.00,Monday
250,10.389220241474163
251,32204650.448366474
336,0.0
385,18.701658569330633
386,26.591929003938205
387,6.9105327939194945
388,0.0
425,0.0
450,0.0
451,0.0
452,15.269199581702868
453,0.0
490,0.0
515,0.0
516,0.0
542,0.0
592,7949367.664591796
632,24103977.286964945
686,1.0
687,1.0
688,2.0
2,21, 1,21, 0,14,30.00,40.00,Monday
250,10.588247159996367
251,32101159.85215159
336,0.0
385,18.701658569330633
386,26.591929003938205
387,7.076854963425872
388,0.0
425,0.0
450,0.0
451,0.0
452,15.146939903989942
453,0.0
490,0.0
515,0.0
516,0.0
542,0.0
592,7975737.242637001
632,23974068.74078537
686,1.0
687,1.0
688,2.0
2,21, 1,21, 0,14,40.00,50.00,Monday
250,10.787171109257512
251,31997746.62775519
336,0.0
385,18.701658569330633
386,26.591929003938205
387,7.229529641986041
388,0.0
425,0.0
450,0.0
451,0.0
452,14.938343192960295
453,0.0
490,0.0
515,0.0
516,0.0
542,0.0
592,8001984.286951375
632,23844366.50475669
686,1.0
687,1.0
688,2.0
2,21, 1,21, 0,14,50.00,60.00,Monday
250,10.98602501911481
251,31894393.62215306
336,0.0
385,18.701658569330633
386,26.591929003938205
387,7.368846749665369
388,0.0
425,0.0
450,0.0
451,0.0
452,14.646449958640902
453,0.0
490,0.0
515,0.0
516,0.0
542,0.0
592,8028108.797534912
632,23714864.97165821
686,1.0
687,1.0
688,2.0
2,21, 1,21, 0,15, 0.00,10.00,Monday
250,11.251226744083912
251,31755935.48765187
336,0.0
385,18.701658569330633