Program Version,EnergyPlus, Version 24.2.0-94a887817b, YMD=2025.02.04 15:38
1,5,Environment Title[],Latitude[deg],Longitude[deg],Time Zone[],Elevation[m]
2,8,Day of Simulation[],Month[],Day of Month[],DST Indicator[1=yes 0=no],Hour[],StartMinute[],EndMinute[],DayType
3,5,Cumulative Day of Simulation[],Month[],Day of Month[],DST Indicator[1=yes 0=no],DayType  ! When Daily Report Variables Requested
4,2,Cumulative Days of Simulation[],Month[]  ! When Monthly Report Variables Requested
5,1,Cumulative Days of Simulation[] ! When Run Period Report Variables Requested
6,1,Calendar Year of Simulation[] ! When Annual Report Variables Requested
250,1,LIVING ZONE,Zone Air Temperature [C] !TimeStep,REPORTSCH
251,1,LIVING ZONE,Zone Air System Sensible Heating Energy [J] !TimeStep,REPORTSCH
336,1,LIVING ZONE,Zone Air System Sensible Cooling Energy [J] !TimeStep,REPORTSCH
385,1,LIVING ZONE,Zone Thermostat Heating Setpoint Temperature [C] !TimeStep,REPORTSCH
386,1,LIVING ZONE,Zone Thermostat Cooling Setpoint Temperature [C] !TimeStep,REPORTSCH
387,1,GARAGE ZONE,Zone Air Temperature [C] !TimeStep,REPORTSCH
388,1,GARAGE ZONE,Zone Air System Sensible Heating Energy [J] !TimeStep,REPORTSCH
425,1,GARAGE ZONE,Zone Air System Sensible Cooling Energy [J] !TimeStep,REPORTSCH
450,1,GARAGE ZONE,Zone Thermostat Heating Setpoint Temperature [C] !TimeStep,REPORTSCH
451,1,GARAGE ZONE,Zone Thermostat Cooling Setpoint Temperature [C] !TimeStep,REPORTSCH
452,1,ATTIC ZONE,Zone Air Temperature [C] !TimeStep,REPORTSCH
453,1,ATTIC ZONE,Zone Air System Sensible Heating Energy [J] !TimeStep,REPORTSCH
490,1,ATTIC ZONE,Zone Air System Sensible Cooling Energy [J] !TimeStep,REPORTSCH
515,1,ATTIC ZONE,Zone Thermostat Heating Setpoint Temperature [C] !TimeStep,REPORTSCH
516,1,ATTIC ZONE,Zone Thermostat Cooling Setpoint Temperature [C] !TimeStep,REPORTSCH
542,1,ACDXCOIL 1,Cooling Coil Total Cooling Energy [J] !TimeStep,REPORTSCH
592,1,HEAT PUMP DX HEATING COIL 1,Heating Coil Heating Energy [J] !TimeStep,REPORTSCH
632,1,SUPP HEATING COIL 1,Heating Coil Heating Energy [J] !TimeStep,REPORTSCH
686,1,TWOSPEED HEAT PUMP 1,Unitary System DX Coil Cycling Ratio [] !TimeStep,REPORTSCH
687,1,TWOSPEED HEAT PUMP 1,Unitary System DX Coil Speed Ratio [] !TimeStep,REPORTSCH
688,1,TWOSPEED HEAT PUMP 1,Unitary System DX Coil Speed Level [] !TimeStep,REPORTSCH
End of Data Dictionary
1,RUN PERIOD 1,  41.98, -87.92,  -6.00, 201.00
2,21, 1,21, 0, 1, 0.00,10.00,Monday
250,-0.23172402887664081
251,37805049.793114856
336,0.0
385,18.160210882646993
386,26.06320105524633
387,-0.9346552151182059
388,0.0
425,0.0
450,0.0
451,0.0
452,-1.9610568963280082
453,0.0
490,0.0
515,0.0
516,0.0
542,0.0
592,4839743.985079642
632,32708273.376711953
686,1.0
687,1.0
688,2.0
2,21, 1,21, 0, 1,10.00,20.00,Monday
250,-0.23175336905987642
251,37806650.03566484
336,0.0
385,18.160210882646993
386,26.06320105524633
387,-0.9430488874566249
388,0.0
425,0.0
450,0.0
451,0.0
452,-1.9429679334311079
453,0.0
490,0.0
515,0.0
516,0.0
542,0.0
592,4823801.676011796
632,32723941.136886165
686,1.0
687,1.0
688,2.0
2,21, 1,21, 0, 1,20.00,30.00,Monday
250,-0.2320284234481584
251,37808460.831013784
336,0.0
385,18.160210882646993
386,26.06320105524633
387,-0.9526669387674052
388,0.0
425,0.0
450,0.0
451,0.0
452,-1.939869544703603
453,0.0
490,0.0
515,0.0
516,0.0
542,0.0
592,4807858.162905221
632,32741563.1677343
686,1.0
687,1.0
688,2.0
2,21, 1,21, 0, 1,30.00,40.00,Monday
250,-0.23224018818099698
251,37810211.72523392
336,0.0
385,18.160210882646993
386,26.06320105524633
387,-0.9637142728950865
388,0.0
425,0.0
450,0.0
451,0.0
452,-1.9527043672656694
453,0.0
490,0.0
515,0.0
516,0.0
542,0.0
592,4791913.445623511
632,32759292.845428977
686,1.0
687,1.0
688,2.0
2,21, 1,21, 0, 1,40.00,50.00,Monday
250,-0.23246092973228888
251,37811971.46050365
336,0.0
385,18.160210882646993
386,26.06320105524633
387,-0.9763485918434831
388,0.0
425,0.0
450,0.0
451,0.0
452,-1.9798601753106708
453,0.0
490,0.0
515,0.0
516,0.0
542,0.0
592,4775967.524030241
632,32776993.664376818
686,1.0
687,1.0
688,2.0
2,21, 1,21, 0, 1,50.00,60.00,Monday
250,-0.23268661107439867
251,37813734.996715605
336,0.0
385,18.160210882646993
386,26.06320105524633
387,-0.9907589477231672
388,0.0
425,0.0
450,0.0
451,0.0
452,-2.019798398855058
453,0.0
490,0.0
515,0.0
516,0.0
542,0.0
592,4760020.397988959
632,32794701.66185366
686,1.0
687,1.0
688,2.0
2,21, 1,21, 0, 2, 0.00,10.00,Monday
250,-0.23289747371740457
251,37815490.55684538
336,0.0
385,18.160210882646993
386,26.06320105524633
387,-1.0062692344502295
388,0.0
425,0.0
450,0.0
451,0.0
452,-2.0664843370075667
453,0.0
490,0.0
515,0.0
516,0.0
542,0.0
592,4760020.397988958
632,32796465.195537433
686,1.0
687,1.0
688,2.0
2,21, 1,21, 0, 2,10.00,20.00,Monday
250,-0.23313918564111624
251,37815677.73884552
336,0.0
385,18.160210882646993
386,26.06320105524633
387,-1.0219436608279027
388,0.0
425,0.0
450,0.0
451,0.0
452,-2.109154765446232
453,0.0
490,0.0
515,0.0
516,0.0
542,0.0
592,4760020.397988958
632,32796635.76716676
686,1.0
687,1.0
688,2.0
2,21, 1,21, 0, 2,20.00,30.00,Monday
250,-0.23338143037072723
251,37815786.94703426
336,0.0
385,18.160210882646993
386,26.06320105524633
387,-1.0372320375674724
388,0.0
425,0.0
450,0.0
451,0.0
452,-2.1405868188283224
453,0.0
490,0.0
515,0.0
516,0.0
542,0.0
592,4760020.397988958
632,32796744.68854966
686,1.0
687,1.0
688,2.0
2,21, 1,21, 0, 2,30.00,40.00,Monday
250,-0.23361823076981308
251,37815919.1945636
336,0.0
385,18.160210882646993
386,26.06320105524633
387,-1.0518135301833058
388,0.0
425,0.0
450,0.0
451,0.0
452,-2.159963082109124
453,0.0
490,0.0
515,0.0
516,0.0
542,0.0
592,4760020.397988958
632,32796879.867456
686,1.0
687,1.0
688,2.0
2,21, 1,21, 0, 2,40.00,50.00,Monday
250,-0.233851516367981
251,37816045.67511466
336,0.0
385,18.160210882646993
386,26.06320105524633
387,-1.0655470926072883
388,0.0
425,0.0
450,0.0
451,0.0
452,-2.170109944609592
453,0.0
490,0.0
515,0.0
516,0.0
542,0.0
592,4760020.397988958
632,32797008.240480036
686,1.0
687,1.0
688,2.0
2,21, 1,21, 0, 2,50.00,60.00,Monday
250,-0.23408062907158217
251,37816168.901304506
336,0.0
385,18.160210882646993
386,26.06320105524633
387,-1.0783945692892656
388,0.0
425,0.0
450,0.0
451,0.0
452,-2.174168917460449
453,0.0
490,0.0
515,0.0
516,0.0
542,0.0
592,4760020.397988958
632,32797133.7134839
686,1.0
687,1.0
688,2.0
2,21, 1,21, 0, 3, 0.00,10.00,Monday
250,-0.15403570088214907
251,37773070.269910805
336,0.0
385,18.160210882646993
386,26.06320105524633
387,-1.0799780845432283
388,0.0
425,0.0
450,0.0
451,0.0
452,-2.1667276163859475
453,0.0
490,0.0
515,0.0
516,0.0
542,0.0
592,4762558.894114006
632,32794718.575366184
686,1.0
687,1.0
688,2.0
2,21, 1,21, 0, 3,10.00,20.00,Monday
250,-0.07100037400095355
251,37729862.55370052
336,0.0
385,18.160210882646993
386,26.06320105524633
387,-1.0690078304649748
388,0.0
425,0.0
450,0.0
451,0.0
452,-2.141812406611105
453,0.0
490,0.0
515,0.0
516,0.0
542,0.0
592,4764988.4357309695
632,32750693.218056303
686,1.0
687,1.0
688,2.0
2,21, 1,21, 0, 3,20.00,30.00,Monday
250,0.010729897587409241
251,37687437.9120035
336,0.0
385,18.160210882646993
386,26.06320105524633
387,-1.049908723819168
388,0.0
425,0.0
450,0.0
451,0.0
452,-2.0979614476562665
453,0.0
490,0.0
515,0.0
516,0.0
542,0.0
592,4767308.250738333
632,32705247.900625844
686,1.0
687,1.0
688,2.0
2,21, 1,21, 0, 3,30.00,40.00,Monday
250,0.09275003245327516
251,37644839.34006135
336,0.0
385,18.160210882646993
386,26.06320105524633
387,-1.0264817730779034
388,0.0
425,0.0
450,0.0
451,0.0
452,-2.03829238947245
453,0.0
490,0.0
515,0.0
516,0.0
542,0.0
592,4769517.689516207
632,32660597.81261859
686,1.0
687,1.0
688,2.0
2,21, 1,21, 0, 3,40.00,50.00,Monday
250,0.17487761336897537
251,37602193.16984834
336,0.0
385,18.160210882646993
386,26.06320105524633
387,-1.000043322871657
388,0.0
425,0.0
450,0.0
451,0.0
452,-1.967284296606461
453,0.0
490,0.0
515,0.0
516,0.0
542,0.0
592,4771616.115684974
632,32615912.933136985
686,1.0
687,1.0
688,2.0
2,21, 1,21, 0, 3,50.00,60.00,Monday
250,0.257049658995997
251,37559530.646466844
336,0.0
385,18.160210882646993
386,26.06320105524633
387,-0.970420004887766
388,0.0
425,0.0
450,0.0
451,0.0
452,-1.888559400275069
453,0.0
490,0.0
515,0.0
516,0.0
542,0.0
592,4773602.736238396
632,32571289.606179573
686,1.0
687,1.0
688,2.0
2,21, 1,21, 0, 4, 0.00,10.00,Monday
250,0.2589696219546721
251,37560095.652360044
336,0.0
385,18.160210882646993
386,26.06320105524633
387,-0.948071229058439
388,0.0
425,0.0
450,0.0
451,0.0
452,-1.8124001012432975
453,0.0
490,0.0
515,0.0
516,0.0
542,0.0
592,4773428.982371633
632,32528809.266753085
686,1.0
687,1.0
688,2.0
2,21, 1,21, 0, 4,10.00,20.00,Monday
250,0.2579405690519593
251,37560742.553048335
336,0.0
385,18.160210882646993
386,26.06320105524633
387,-0.9355935436029249
388,0.0
425,0.0
450,0.0
451,0.0
452,-1.7478365404177894
453,0.0
490,0.0
515,0.0
516,0.0
542,0.0
592,4773255.169447958
632,32528041.741524674
686,1.0
687,1.0
688,2.0
2,21, 1,21, 0, 4,20.00,30.00,Monday
250,0.25828410893683934
251,37560575.640409164
336,0.0
385,18.160210882646993
386,26.06320105524633
387,-0.9295685081904366
388,0.0
425,0.0
450,0.0
451,0.0
452,-1.69848206589588
453,0.0
490,0.0
515,0.0
516,0.0
542,0.0
592,4773081.29743726
632,32528787.93359117
686,1.0
687,1.0
688,2.0
2,21, 1,21, 0, 4,30.00,40.00,Monday
250,0.25839459060368464
251,37560558.96850918
336,0.0
385,18.160210882646993
386,26.06320105524633
387,-0.9262993047168036
388,0.0
425,0.0
450,0.0
451,0.0
452,-1.6626954497646804
453,0.0
490,0.0
515,0.0
516,0.0
542,0.0
592,4772907.366309401
632,32528819.675458543
686,1.0
687,1.0
688,2.0
2,21, 1,21, 0, 4,40.00,50.00,Monday
250,0.2584567894589356
251,37560564.63764618
336,0.0
385,18.160210882646993
386,26.06320105524633
387,-0.9240638801349744
388,0.0
425,0.0
450,0.0
451,0.0
452,-1.6368128033298632
453,0.0
490,0.0
515,0.0
516,0.0
542,0.0
592,4772733.376034233
632,32528973.33135466
686,1.0
687,1.0
688,2.0
2,21, 1,21, 0, 4,50.00,60.00,Monday
250,0.2585262611336132
251,37560565.44396673
336,0.0
385,18.160210882646993
386,26.06320105524633
387,-0.9226554628630177
388,0.0
425,0.0
450,0.0
451,0.0
452,-1.6177688888890585
453,0.0
490,0.0
515,0.0
516,0.0
542,0.0
592,4772559.326581575
632,32529152.104073875
686,1.0
687,1.0
688,2.0
2,21, 1,21, 0, 5, 0.00,10.00,Monday
250,0.25859230853406234
251,37560568.232575126
336,0.0
385,18.160210882646993
386,26.06320105524633
387,-0.9220846467462847
388,0.0
425,0.0
450,0.0
451,0.0
452,-1.6029441320018774
453,0.0
490,0.0
515,0.0
516,0.0
542,0.0
592,4759720.858689582
632,32541991.51640413
686,1.0
687,1.0
688,2.0
2,21, 1,21, 0, 5,10.00,20.00,Monday
250,0.25868460000187427
251,37561790.53934485
336,0.0
385,18.160210882646993
386,26.06320105524633
387,-0.9221957094713783
388,0.0
425,0.0
450,0.0
451,0.0
452,-1.5900284475541488
453,0.0
490,0.0
515,0.0
516,0.0
542,0.0
592,4746877.262331866
632,32556071.55545902
686,1.0
687,1.0
688,2.0
2,21, 1,21, 0, 5,20.00,30.00,Monday
250,0.2587792682247368
251,37563073.03728284
336,0.0
385,18.160210882646993
386,26.06320105524633
387,-0.9227589418073063
388,0.0
425,0.0
450,0.0
451,0.0
452,-1.5776194875077014
453,0.0
490,0.0
515,0.0
516,0.0
542,0.0
592,4734028.534436011
632,32570204.063193176
686,1.0
687,1.0
688,2.0
2,21, 1,21, 0, 5,30.00,40.00,Monday
250,0.25887337266528876
251,37564336.15936353
336,0.0
385,18.160210882646993
386,26.06320105524633
387,-0.9235757036546189
388,0.0
425,0.0
450,0.0
451,0.0
452,-1.5652808527191344
453,0.0
490,0.0
515,0.0
516,0.0
542,0.0
592,4721174.671927155
632,32584320.745898694
686,1.0
687,1.0
688,2.0
2,21, 1,21, 0, 5,40.00,50.00,Monday
250,0.2589681401960534
251,37565602.458289325
336,0.0
385,18.160210882646993
386,26.06320105524633
387,-0.9245131189204066
388,0.0
425,0.0
450,0.0
451,0.0
452,-1.5530785697563512
453,0.0
490,0.0
515,0.0
516,0.0
542,0.0
592,4708315.671727969
632,32598446.403970912
686,1.0
687,1.0
688,2.0
2,21, 1,21, 0, 5,50.00,60.00,Monday
250,0.2590637438044912
251,37566869.612920344
336,0.0
385,18.160210882646993
386,26.06320105524633
387,-0.9254927742035156
388,0.0
425,0.0
450,0.0
451,0.0
452,-1.5411624641869524
453,0.0
490,0.0
515,0.0
516,0.0
542,0.0
592,4695451.530758676
632,32612578.15172728
686,1.0
687,1.0
688,2.0
2,21, 1,21, 0, 6, 0.00,10.00,Monday
250,0.25916420827435405
251,37568134.56888808
336,0.0
385,18.160210882646993
386,26.06320105524633
387,-0.9266000459463873
388,0.0
425,0.0
450,0.0
451,0.0
452,-1.5302233876996516
453,0.0
490,0.0
515,0.0
516,0.0
542,0.0
592,4695264.082255858
632,32614033.176464748
686,1.0
687,1.0
688,2.0
2,21, 1,21, 0, 6,10.00,20.00,Monday
250,0.25923832381793444
251,37568178.92797063
336,0.0
385,18.160210882646993
386,26.06320105524633
387,-0.9279180809776921
388,0.0
425,0.0
450,0.0
451,0.0
452,-1.5210731648484301
453,0.0
490,0.0
515,0.0
516,0.0
542,0.0
592,4695076.569900009
632,32614250.854299784
686,1.0
687,1.0
688,2.0
2,21, 1,21, 0, 6,20.00,30.00,Monday
250,0.25931083584731324
251,37568163.11455599
336,0.0
385,18.160210882646993
386,26.06320105524633
387,-0.9294421117154432
388,0.0
425,0.0
450,0.0
451,0.0
452,-1.5140497199365324
453,0.0
490,0.0
515,0.0
516,0.0
542,0.0
592,4694888.993658494
632,32614421.75336462
686,1.0
687,1.0
688,2.0
2,21, 1,21, 0, 6,30.00,40.00,Monday
250,0.25938536396008255
251,37568166.45433611
336,0.0
385,18.160210882646993
386,26.06320105524633
387,-0.9311305012382473
388,0.0
425,0.0
450,0.0
451,0.0
452,-1.50894563247966
453,0.0
490,0.0
515,0.0
516,0.0
542,0.0
592,4694701.35349866
632,32614613.819382027
686,1.0
687,1.0
688,2.0
2,21, 1,21, 0, 6,40.00,50.00,Monday
250,0.25946103966652706
251,37568166.17352966
336,0.0
385,18.160210882646993
386,26.06320105524633
387,-0.9329499522295457
388,0.0
425,0.0
450,0.0
451,0.0
452,-1.505308067788928
453,0.0
490,0.0
515,0.0
516,0.0
542,0.0
592,4694513.649387832
632,32614801.860920906
686,1.0
687,1.0
688,2.0
2,21, 1,21, 0, 6,50.00,60.00,Monday
250,0.2595379737256877
251,37568164.44312966
336,0.0
385,18.160210882646993
386,26.06320105524633
387,-0.9348821506194289
388,0.0
425,0.0
450,0.0
451,0.0
452,-1.5027154401264917
453,0.0
490,0.0
515,0.0
516,0.0
542,0.0
592,4694325.88129331
632,32614988.576514676
686,1.0
687,1.0
688,2.0
2,21, 1,21, 0, 7, 0.00,10.00,Monday
250,0.25759780758315487
251,37569249.41217713
336,0.0
385,18.160210882646993
386,26.06320105524633
387,-0.9393642282594145
388,0.0
425,0.0
450,0.0
451,0.0
452,-1.5060308121560553
453,0.0
490,0.0
515,0.0
516,0.0
542,0.0
592,4723573.583255435
632,32585739.260185625
686,1.0
687,1.0
688,2.0
2,21, 1,21, 0, 7,10.00,20.00,Monday
250,0.2576213157373854
251,37566429.36252567
336,0.0
385,18.160210882646993
386,26.06320105524633
387,-0.948585269235936
388,0.0
425,0.0
450,0.0
451,0.0
452,-1.5247169258132287
453,0.0
490,0.0
515,0.0
516,0.0
542,0.0
592,4752837.186047653
632,32554713.410471763
686,1.0
687,1.0
688,2.0
2,21, 1,21, 0, 7,20.00,30.00,Monday
250,0.25776595047131895
251,37563401.88960675
336,0.0
385,18.160210882646993
386,26.06320105524633
387,-0.9627937031958473
388,0.0
425,0.0
450,0.0
451,0.0
452,-1.5641558255245958
453,0.0
490,0.0
515,0.0
516,0.0
542,0.0
592,4782116.702651945
632,32522471.65913766
686,1.0
687,1.0
688,2.0
2,21, 1,21, 0, 7,30.00,40.00,Monday
250,0.2578755816991945
251,37560438.31541882
336,0.0
385,18.160210882646993
386,26.06320105524633
387,-0.9810408682289268
388,0.0
425,0.0
450,0.0
451,0.0
452,-1.6219954332758666
453,0.0
490,0.0
515,0.0
516,0.0
542,0.0
592,4811412.146064445
632,32490193.78396533
686,1.0
687,1.0
688,2.0
2,21, 1,21, 0, 7,40.00,50.00,Monday
250,0.2579931603549145
251,37557461.94134413
336,0.0
385,18.160210882646993
386,26.06320105524633
387,-1.0022056146716771
388,0.0
425,0.0
450,0.0
451,0.0
452,-1.6919807811492054
453,0.0
490,0.0
515,0.0
516,0.0
542,0.0
592,4840723.5292954575
632,32457910.30192888
686,1.0
687,1.0
688,2.0
2,21, 1,21, 0, 7,50.00,60.00,Monday
250,0.25811532272910664
251,37554479.719551995
336,0.0
385,18.160210882646993
386,26.06320105524633
387,-1.0255103188823809
388,0.0
425,0.0
450,0.0
451,0.0
452,-1.7684048190896005
453,0.0
490,0.0
515,0.0
516,0.0
542,0.0
592,4870050.865369484
632,32425603.207378034
686,1.0
687,1.0
688,2.0
2,21, 1,21, 0, 8, 0.00,10.00,Monday
250,0.45908273178340003
251,37443353.79246474
336,0.0
385,18.160210882646993
386,26.06320105524633
387,-1.0216109261678927
388,0.0
425,0.0
450,0.0
451,0.0
452,-1.8273992184409362
453,0.0
490,0.0
515,0.0
516,0.0
542,0.0
592,4889730.300311493
632,32402940.210577514
686,1.0
687,1.0
688,2.0
2,21, 1,21, 0, 8,10.00,20.00,Monday
250,0.6601131959699381
251,37337282.603578046
336,0.0
385,18.160210882646993
386,26.06320105524633
387,-0.9796747417961698
388,0.0
425,0.0
450,0.0
451,0.0
452,-1.8187237491594452
453,0.0
490,0.0
515,0.0
516,0.0
542,0.0
592,4909380.719869504
632,32277258.84721301
686,1.0
687,1.0
688,2.0
2,21, 1,21, 0, 8,20.00,30.00,Monday
250,0.8571583570247661
251,37233607.24489883
336,0.0
385,18.160210882646993
386,26.06320105524633
387,-0.9083610056581226
388,0.0
425,0.0
450,0.0
451,0.0
452,-1.7115608645486955
453,0.0
490,0.0
515,0.0
516,0.0
542,0.0
592,4929009.6156952735
632,32151815.55283531
686,1.0
687,1.0
688,2.0
2,21, 1,21, 0, 8,30.00,40.00,Monday
250,1.055058075148826
251,37129387.78545055
336,0.0
385,18.160210882646993
386,26.06320105524633
387,-0.8176791865103951
388,0.0
425,0.0
450,0.0
451,0.0
452,-1.5165217682956298
453,0.0
490,0.0
515,0.0
516,0.0
542,0.0
592,4952863.6467726575
632,32024208.989260755
686,1.0
687,1.0
688,2.0
2,21, 1,21, 0, 8,40.00,50.00,Monday
250,1.253275023089632
251,37024609.50591844
336,0.0
385,18.160210882646993
386,26.06320105524633
387,-0.715692553325444
388,0.0
425,0.0
450,0.0
451,0.0
452,-1.2403189602587872
453,0.0
490,0.0
515,0.0
516,0.0
542,0.0
592,4977062.298687916
632,31895408.574482147
686,1.0
687,1.0
688,2.0
2,21, 1,21, 0, 8,50.00,60.00,Monday
250,1.452971584032918
251,36919936.60246247
336,0.0
385,18.160210882646993
386,26.06320105524633
387,-0.6196016206017274
388,0.0
425,0.0
450,0.0
451,0.0
452,-0.9267272535138367
453,0.0
490,0.0
515,0.0
516,0.0
542,0.0
592,5001395.306277513
632,31714965.586019807
686,1.0
687,1.0
688,2.0
2,21, 1,21, 0, 9, 0.00,10.00,Monday
250,1.716964803596932
251,36781646.838870846
336,0.0
385,18.160210882646993
386,26.06320105524633
387,-0.48098738035639915
388,0.0
425,0.0
450,0.0
451,0.0
452,-0.44684657951819307
453,0.0
490,0.0
515,0.0
516,0.0
542,0.0
592,5029363.153609448
632,31565626.4462447
686,1.0
687,1.0
688,2.0
2,21, 1,21, 0, 9,10.00,20.00,Monday
250,1.9808910778814908
251,36642488.15148346
336,0.0
385,18.160210882646993
386,26.06320105524633
387,-0.3299627319526929
388,0.0
425,0.0
450,0.0
451,0.0
452,0.07743338201700647
453,0.0
490,0.0
515,0.0
516,0.0
542,0.0
592,5057356.862312016
632,31398416.38691257
686,1.0
687,1.0
688,2.0
2,21, 1,21, 0, 9,20.00,30.00,Monday
250,2.245055584118316
251,36503191.54045975
336,0.0
385,18.160210882646993
386,26.06320105524633
387,-0.17005225897933945
388,0.0
425,0.0
450,0.0
451,0.0
452,0.642109491714441
453,0.0
490,0.0
515,0.0
516,0.0
542,0.0
592,5085392.284952975
632,31231149.71227125
686,1.0
687,1.0
688,2.0
2,21, 1,21, 0, 9,30.00,40.00,Monday
250,2.509069745934312
251,36363974.95417696
336,0.0
385,18.160210882646993
386,26.06320105524633
387,-0.00039407123615139636
388,0.0
425,0.0
450,0.0
451,0.0
452,1.2367417871187238
453,0.0
490,0.0
515,0.0
516,0.0
542,0.0
592,5113485.892141593
632,31063799.71022985
686,1.0
687,1.0
688,2.0
2,21, 1,21, 0, 9,40.00,50.00,Monday
250,2.773749790415411
251,36223457.29570689
336,0.0
385,18.160210882647007
386,26.063201055246353
387,0.1446502183862108
388,0.0
425,0.0
450,0.0
451,0.0
452,1.7387591501885757
453,0.0
490,0.0
515,0.0
516,0.0
542,0.0
592,5141654.529350725
632,30870660.70835335
686,1.0000000000000009
687,1.0000000000000009
688,2.0000000000000018
2,21, 1,21, 0, 9,50.00,60.00,Monday
250,3.0383924835995586
251,36083350.71230459
336,0.0
385,18.160210882646993
386,26.06320105524633
387,0.2967515745035255
388,0.0
425,0.0
450,0.0
451,0.0
452,2.2795343969214903
453,0.0
490,0.0
515,0.0
516,0.0
542,0.0
592,5169915.672059796
632,30727880.41370718
686,1.0
687,1.0
688,2.0
2,21, 1,21, 0,10, 0.00,10.00,Monday
250,3.4959999988555888
251,35840585.291645445
336,0.0
385,18.160210882646993
386,26.06320105524633
387,0.48715214816854824
388,0.0
425,0.0
450,0.0
451,0.0
452,2.8391676553114134
453,0.0
490,0.0
515,0.0
516,0.0
542,0.0
592,5241404.10703412
632,30422956.677938633
686,1.0
687,1.0
688,2.0
2,21, 1,21, 0,10,10.00,20.00,Monday
250,3.955506880207094
251,35597378.51547546
336,0.0
385,18.160210882646993
386,26.06320105524633
387,0.7782045767394874
388,0.0
425,0.0
450,0.0
451,0.0
452,3.5940993749349013
453,0.0
490,0.0
515,0.0
516,0.0
542,0.0
592,5315291.857316207
632,30105322.276888125
686,1.0
687,1.0
688,2.0
2,21, 1,21, 0,10,20.00,30.00,Monday
250,4.415900820601758
251,35352450.85478174
336,0.0
385,18.160210882646986
386,26.063201055246317
387,1.0586519967247685
388,0.0
425,0.0
450,0.0
451,0.0
452,4.2834375482702605
453,0.0
490,0.0
515,0.0
516,0.0
542,0.0
592,5391793.298050373
632,29784096.341268104
686,0.9999999999999996
687,0.9999999999999996
688,1.9999999999999991
2,21, 1,21, 0,10,30.00,40.00,Monday
250,4.876742630612336
251,35107149.97504726
336,0.0
385,18.160210882647
386,26.06320105524634
387,1.34046634275442
388,0.0
425,0.0
450,0.0
451,0.0
452,4.9847735449554404
453,0.0
490,0.0
515,0.0
516,0.0
542,0.0
592,5471132.199313744
632,29459580.882991236
686,1.0000000000000004
687,1.0000000000000004
688,2.000000000000001
2,21, 1,21, 0,10,40.00,50.00,Monday
250,5.338192313475298
251,34861381.929542705
336,0.0
385,18.160210882647007
386,26.063201055246353
387,1.6306431316288403
388,0.0
425,0.0
450,0.0
451,0.0
452,5.7487473294756395
453,0.0
490,0.0
515,0.0
516,0.0
542,0.0
592,5553542.375759332
632,29131558.595474467
686,1.0000000000000009
687,1.0000000000000009
688,2.0000000000000018
2,21, 1,21, 0,10,50.00,60.00,Monday
250,5.799681855500741
251,34615446.23271577
336,0.0
385,18.160210882647007
386,26.063201055246353
387,1.9309011827067637
388,0.0
425,0.0
450,0.0
451,0.0
452,6.577935678453809
453,0.0
490,0.0
515,0.0
516,0.0
542,0.0
592,5639267.778995938
632,28799953.05422864
686,1.0000000000000009
687,1.0000000000000009
688,2.0000000000000018
2,21, 1,21, 0,11, 0.00,10.00,Monday
250,6.083336426415916
251,34464503.893632665
336,0.0
385,18.160210882646993
386,26.06320105524633
387,2.2174399054508718
388,0.0
425,0.0
450,0.0
451,0.0
452,7.433197512124579
453,0.0
490,0.0
515,0.0
516,0.0
542,0.0
592,5689519.861596227
632,28566860.45594231
686,1.0
687,1.0
688,2.0
2,21, 1,21, 0,11,10.00,20.00,Monday
250,6.365383441331359
251,34314353.34240655
336,0.0
385,18.160210882646993
386,26.06320105524633
387,2.4872245738640646
388,0.0
425,0.0
450,0.0
451,0.0
452,8.283781618202175
453,0.0
490,0.0
515,0.0
516,0.0
542,0.0
592,5740969.350869595
632,28364963.667896714
686,1.0
687,1.0
688,2.0
2,21, 1,21, 0,11,20.00,30.00,Monday
250,6.647503900038243
251,34164116.59237581
336,0.0
385,18.160210882646986
386,26.063201055246317
387,2.759388331931091
388,0.0
425,0.0
450,0.0
451,0.0
452,9.130457347335222
453,0.0
490,0.0
515,0.0
516,0.0
542,0.0
592,5793671.095282217
632,28162054.369460247
686,0.9999999999999996
687,0.9999999999999996
688,1.9999999999999991
2,21, 1,21, 0,11,30.00,40.00,Monday
250,6.928906987697303
251,34014213.48860302
336,0.0
385,18.160210882647
386,26.06320105524634
387,3.036721317598781
388,0.0
425,0.0
450,0.0
451,0.0
452,9.952640513666474
453,0.0
490,0.0
515,0.0
516,0.0
542,0.0
592,5847681.4279665835
632,27958028.58061991
686,1.0000000000000004
687,1.0000000000000004
688,2.000000000000001
2,21, 1,21, 0,11,40.00,50.00,Monday
250,7.210024732887737
251,33864410.717777975
336,0.0
385,18.160210882647007
386,26.063201055246353
387,3.3158222987175012
388,0.0
425,0.0
450,0.0
451,0.0
452,10.698081534619625
453,0.0
490,0.0
515,0.0
516,0.0
542,0.0
592,5903058.082199926
632,27752815.239464153
686,1.0000000000000009
687,1.0000000000000009
688,2.0000000000000018
2,21, 1,21, 0,11,50.00,60.00,Monday
250,7.490743309431927
251,33714768.23453876
336,0.0
385,18.160210882647007
386,26.063201055246353
387,3.5928390168465505
388,0.0
425,0.0
450,0.0
451,0.0
452,11.333630446221871
453,0.0
490,0.0
515,0.0
516,0.0
542,0.0
592,5959860.237244541
632,27546316.613307808
686,1.0000000000000009
687,1.0000000000000009
688,2.0000000000000018
2,21, 1,21, 0,12, 0.00,10.00,Monday
250,7.757205300280567
251,33572707.91181816
336,0.0
385,18.160210882646993
386,26.06320105524633
387,3.832808485391668
388,0.0
425,0.0
450,0.0
451,0.0
452,11.832839928157078
453,0.0
490,0.0
515,0.0
516,0.0
542,0.0
592,5991096.197635709
632,27396603.195318893
686,1.0
687,1.0
688,2.0
2,21, 1,21, 0,12,10.00,20.00,Monday
250,8.020063623082423
251,33436053.75366346
336,0.0
385,18.160210882646993
386,26.06320105524633
387,4.125182557999367
388,0.0
425,0.0
450,0.0
451,0.0
452,12.396830781255478
453,0.0
490,0.0
515,0.0
516,0.0
542,0.0
592,7572016.881221028
632,25676954.5139654
686,1.0
687,1.0
688,2.0
2,21, 1,21, 0,12,20.00,30.00,Monday
250,8.284829142208377
251,33296689.116066553
336,0.0
385,18.160210882646993
386,26.06320105524633
387,4.394293074403368
388,0.0
425,0.0
450,0.0
451,0.0
452,12.912432822968743
453,0.0
490,0.0
515,0.0
516,0.0
542,0.0
592,7609409.155487606
632,25500668.940457687
686,1.0
687,1.0
688,2.0
2,21, 1,21, 0,12,30.00,40.00,Monday
250,8.549275115704514
251,33157499.75571298
336,0.0
385,18.160210882646993
386,26.06320105524633
387,4.653094313137092
388,0.0
425,0.0
450,0.0
451,0.0
452,13.403780068382785
453,0.0
490,0.0
515,0.0
516,0.0
542,0.0
592,7646583.592010483
632,25324219.278614514
686,1.0
687,1.0
688,2.0
2,21, 1,21, 0,12,40.00,50.00,Monday
250,8.813631434853136
251,33018358.278134555
336,0.0
385,18.160210882646993
386,26.06320105524633
387,4.907509702471991
388,0.0
425,0.0
450,0.0
451,0.0
452,13.845498824542315
453,0.0
490,0.0
515,0.0
516,0.0
542,0.0
592,7683540.190789655
632,25148096.635755844
686,1.0
687,1.0
688,2.0
2,21, 1,21, 0,12,50.00,60.00,Monday
250,9.07795636541805
251,32879232.936828557
336,0.0
385,18.160210882646993
386,26.06320105524633
387,5.156446751434545
388,0.0
425,0.0
450,0.0
451,0.0
452,14.213354062803276
453,0.0
490,0.0
515,0.0
516,0.0
542,0.0
592,7720278.951825122
632,24972224.51929807
686,1.0
687,1.0
688,2.0
2,21, 1,21, 0,13, 0.00,10.00,Monday
250,9.260238014510424
251,32781085.400470946
336,0.0
385,18.160210882646993
386,26.06320105524633
387,5.388820495981693
388,0.0
425,0.0
450,0.0
451,0.0
452,14.504633678431798
453,0.0
490,0.0
515,0.0
516,0.0
542,0.0
592,7745410.487127082
632,24869980.55787107
686,1.0
687,1.0
688,2.0
2,21, 1,21, 0,13,10.00,20.00,Monday
250,9.441436062208213
251,32687201.509326916
336,0.0
385,18.160210882646993
386,26.06320105524633
387,5.607585760828595
388,0.0
425,0.0
450,0.0
451,0.0
452,14.733853318646783
453,0.0
490,0.0
515,0.0
516,0.0
542,0.0
592,7770439.060057999
632,24755674.81116185
686,1.0
687,1.0
688,2.0
2,21, 1,21, 0,13,20.00,30.00,Monday
250,9.624081581095151
251,32592761.853219
336,0.0
385,18.160210882646993
386,26.06320105524633
387,5.812463046039099
388,0.0
425,0.0
450,0.0
451,0.0
452,14.916994510399704
453,0.0
490,0.0
515,0.0
516,0.0
542,0.0
592,7795364.67061786
632,24637103.374679327
686,1.0
687,1.0
688,2.0
2,21, 1,21, 0,13,30.00,40.00,Monday
250,9.806380137887881
251,32498536.362288497
336,0.0
385,18.160210882646993
386,26.06320105524633
387,6.007472032879107
388,0.0
425,0.0
450,0.0
451,0.0
452,15.065880493086022
453,0.0
490,0.0
515,0.0
516,0.0
542,0.0
592,7820187.318806678
632,24517880.608747486
686,1.0
687,1.0
688,2.0
2,21, 1,21, 0,13,40.00,50.00,Monday
250,9.988576766338396
251,32404399.37010244
336,0.0
385,18.160210882646993
386,26.06320105524633
387,6.196361613898813
388,0.0
425,0.0
450,0.0
451,0.0
452,15.185157178400972
453,0.0
490,0.0
515,0.0
516,0.0
542,0.0
592,7844907.00462445
632,24398981.744993865
686,1.0
687,1.0
688,2.0
2,21, 1,21, 0,13,50.00,60.00,Monday
250,10.170686022970163
251,32310342.61130538
336,0.0
385,18.160210882646993
386,26.06320105524633
387,6.380432259250338
388,0.0
425,0.0
450,0.0
451,0.0
452,15.278479233305307
453,0.0
490,0.0
515,0.0
516,0.0
542,0.0
592,7869523.728071173
632,24280274.102540463
686,1.0
687,1.0
688,2.0
2,21, 1,21, 0,14, 0.00,10.00,Monday
250,10.37039865574425
251,32206810.912662014
336,0.0
385,18.160210882646993
386,26.06320105524633
387,6.562519633975634
388,0.0
425,0.0
450,0.0
451,0.0
452,15.334462609262692
453,0.0
490,0.0
515,0.0
516,0.0
542,0.0
592,7896260.907308882
632,24159526.260878578
686,1.0
687,1.0
688,2.0
2,21, 1,21, 0,14,10.00,20.00,Monday
250,10.569066340407415
251,32103464.02449731
336,0.0
385,18.160210882646993
386,26.06320105524633
387,6.742754855209262
388,0.0
425,0.0
450,0.0
451,0.0
452,15.334804575286638
453,0.0
490,0.0
515,0.0
516,0.0
542,0.0
592,7922875.552815757
632,24029013.56120397
686,1.0
687,1.0
688,2.0
2,21, 1,21, 0,14,20.00,30.00,Monday
250,10.767359860515697
251,32000315.719755866
336,0.0
385,18.160210882646993
386,26.06320105524633
387,6.9189833083170695
388,0.0
425,0.0
450,0.0
451,0.0
452,15.279057752156161
453,0.0
490,0.0
515,0.0
516,0.0
542,0.0
592,7949367.664591794
632,23899184.30541473
686,1.0
687,1.0
688,2.0
2,21, 1,21, 0,14,30.00,40.00,Monday
250,10.965442776060724
251,31897309.62645368
336,0.0
385,18.160210882646993
386,26.06320105524633
387,7.085257679169778
388,0.0
425,0.0
450,0.0
451,0.0
452,15.15670976170831
453,0.0
490,0.0
515,0.0
516,0.0
542,0.0
592,7975737.242637001
632,23769708.303055838
686,1.0
687,1.0
688,2.0
2,21, 1,21, 0,14,40.00,50.00,Monday
250,11.163335902260702
251,31794427.422016393
336,0.0
385,18.160210882646993
386,26.06320105524633
387,7.23788515865732
388,0.0
425,0.0
450,0.0
451,0.0
452,14.948044713505137
453,0.0
490,0.0
515,0.0
516,0.0
542,0.0
592,8001984.286951375
632,23640490.105105534
686,1.0
687,1.0
688,2.0
2,21, 1,21, 0,14,50.00,60.00,Monday
250,11.36112396864835
251,31691624.000586033
336,0.0
385,18.160210882646993
386,26.06320105524633
387,7.377154962490695
388,0.0
425,0.0
450,0.0
451,0.0
452,14.656110683976591
453,0.0
490,0.0
515,0.0
516,0.0
542,0.0
592,8028108.797534915
632,23511519.15611028
686,1.0
687,1.0
688,2.0
2,21, 1,21, 0,15, 0.00,10.00,Monday
250,11.624580471034939
251,31554092.68826174
336,0.0
385,18.160210882646993
386,26.06320105524633
387,7.498073372425079
388,0.0