Program Version,EnergyPlus, Version 24.2.0-94a887817b, YMD=2025.01.30 20:35
1,5,Environment Title[],Latitude[deg],Longitude[deg],Time Zone[],Elevation[m]
2,8,Day of Simulation[],Month[],Day of Month[],DST Indicator[1=yes 0=no],Hour[],StartMinute[],EndMinute[],DayType
3,5,Cumulative Day of Simulation[],Month[],Day of Month[],DST Indicator[1=yes 0=no],DayType  ! When Daily Meters Requested
4,2,Cumulative Days of Simulation[],Month[]  ! When Monthly Meters Requested
5,1,Cumulative Days of Simulation[] ! When Run Period Meters Requested
6,1,Calendar Year of Simulation[] ! When Annual Meters Requested
11,9,Electricity:Facility [J] !Monthly [Value,Min,Day,Hour,Minute,Max,Day,Hour,Minute]
23,9,Electricity:Building [J] !Monthly [Value,Min,Day,Hour,Minute,Max,Day,Hour,Minute]
59,9,InteriorLights:Electricity [J] !Monthly [Value,Min,Day,Hour,Minute,Max,Day,Hour,Minute]
521,9,Electricity:HVAC [J] !Monthly [Value,Min,Day,Hour,Minute,Max,Day,Hour,Minute]
637,9,NaturalGas:Facility [J] !Monthly [Value,Min,Day,Hour,Minute,Max,Day,Hour,Minute]
649,9,NaturalGas:HVAC [J] !Monthly [Value,Min,Day,Hour,Minute,Max,Day,Hour,Minute]
13,11,Electricity:Facility [J] !RunPeriod [Value,Min,Month,Day,Hour,Minute,Max,Month,Day,Hour,Minute]
25,11,Electricity:Building [J] !RunPeriod [Value,Min,Month,Day,Hour,Minute,Max,Month,Day,Hour,Minute]
61,11,InteriorLights:Electricity [J] !RunPeriod [Value,Min,Month,Day,Hour,Minute,Max,Month,Day,Hour,Minute]
523,11,Electricity:HVAC [J] !RunPeriod [Value,Min,Month,Day,Hour,Minute,Max,Month,Day,Hour,Minute]
639,11,NaturalGas:Facility [J] !RunPeriod [Value,Min,Month,Day,Hour,Minute,Max,Month,Day,Hour,Minute]
651,11,NaturalGas:HVAC [J] !RunPeriod [Value,Min,Month,Day,Hour,Minute,Max,Month,Day,Hour,Minute]
End of Data Dictionary
1,RUN PERIOD 1,  41.98, -87.92,  -6.00, 201.00
4,31, 1
11,9576373826.518396,549379.107364891,15, 4,60,3562966.463063977,24,17,50
23,1935113969.3445158,131897.48840614053,17,19,10,1033849.5453140746, 7, 9,10
59,970200000.0,30000.0, 1, 1,10,600000.0, 1, 8,10
521,7641259857.173964,0.0,17,13,30,2583646.6723166592,12, 4,40
637,32250465547.32734,0.0, 2,14,20,27197037.72940177,27, 8,10
649,32250465547.32734,0.0, 2,14,20,27197037.72940177,27, 8,10
4,59, 2
11,8628103420.306765,184722.57526675655,23,13,50,-99999999999999.0,24,17,50
23,1688534354.7350774,118743.66067552599,23,14,60,-99999999999999.0, 7, 9,10
59,848160000.0,99999999999999.0, 1, 1,10,-99999999999999.0, 1, 8,10
521,6939569065.571704,99999999999999.0,17,13,30,2591601.2081883727,17,15,10
637,21962119351.544098,99999999999999.0, 2,14,20,-99999999999999.0,27, 8,10
649,21962119351.544098,99999999999999.0, 2,14,20,-99999999999999.0,27, 8,10
4,90, 3
11,7947852654.961915,97919.7815397353,27,19,60,-99999999999999.0,24,17,50
23,1744490647.9918225,97919.7815397353,27,19,60,-99999999999999.0, 7, 9,10
59,897480000.0,99999999999999.0, 1, 1,10,-99999999999999.0, 1, 8,10
521,6203362006.970122,99999999999999.0,17,13,30,-99999999999999.0,17,15,10
637,10826786672.471914,99999999999999.0, 2,14,20,-99999999999999.0,27, 8,10
649,10826786672.471914,99999999999999.0, 2,14,20,-99999999999999.0,27, 8,10
4,120, 4
11,5371989192.742031,96664.16793048971,15, 4,60,-99999999999999.0,24,17,50
23,1712612936.352836,96664.16793048971,15, 4,60,-99999999999999.0, 7, 9,10
59,929520000.0,99999999999999.0, 1, 1,10,-99999999999999.0, 1, 8,10
521,3659376256.389213,99999999999999.0,17,13,30,2595050.501800004, 7, 6,40
637,5964139878.779893,99999999999999.0, 2,14,20,-99999999999999.0,27, 8,10
649,5964139878.779893,99999999999999.0, 2,14,20,-99999999999999.0,27, 8,10
4,151, 5
11,2818404037.3978653,90947.14094389306,25,10,60,-99999999999999.0,24,17,50
23,1713661614.6534312,90947.14094389306,25,10,60,-99999999999999.0, 7, 9,10
59,970200000.0,99999999999999.0, 1, 1,10,-99999999999999.0, 1, 8,10
521,1104742422.744431,99999999999999.0,17,13,30,-99999999999999.0, 7, 6,40
637,1567245390.5463958,99999999999999.0, 2,14,20,-99999999999999.0,27, 8,10
649,1567245390.5463958,99999999999999.0, 2,14,20,-99999999999999.0,27, 8,10
4,181, 6
11,1750917488.5141866,83796.87526228074, 9,12,60,-99999999999999.0,24,17,50
23,1526023999.2612114,83796.87526228074, 9,12,60,-99999999999999.0, 7, 9,10
59,856800000.0,99999999999999.0, 1, 1,10,-99999999999999.0, 1, 8,10
521,224893489.2529765,99999999999999.0,17,13,30,-99999999999999.0, 7, 6,40
637,167963022.2980957,99999999999999.0, 2,14,20,-99999999999999.0,27, 8,10
649,167963022.2980957,99999999999999.0, 2,14,20,-99999999999999.0,27, 8,10
4,212, 7
11,1827309343.3448772,99999999999999.0, 9,12,60,-99999999999999.0,24,17,50
23,1678578143.4883711,99999999999999.0, 9,12,60,-99999999999999.0, 7, 9,10
59,970200000.0,99999999999999.0, 1, 1,10,-99999999999999.0, 1, 8,10
521,148731199.85650575,99999999999999.0,17,13,30,-99999999999999.0, 7, 6,40
637,14858183.645932203,99999999999999.0, 2,14,20,-99999999999999.0,27, 8,10
649,14858183.645932203,99999999999999.0, 2,14,20,-99999999999999.0,27, 8,10
4,243, 8
11,1701936148.87397,99999999999999.0, 9,12,60,-99999999999999.0,24,17,50
23,1623041651.0051708,99999999999999.0, 9,12,60,-99999999999999.0, 7, 9,10
59,933840000.0,99999999999999.0, 1, 1,10,-99999999999999.0, 1, 8,10
521,78894497.86879914,99999999999999.0,17,13,30,-99999999999999.0, 7, 6,40
637,46998973.53699342,99999999999999.0, 2,14,20,-99999999999999.0,27, 8,10
649,46998973.53699342,99999999999999.0, 2,14,20,-99999999999999.0,27, 8,10
4,273, 9
11,2083628978.8730395,99999999999999.0, 9,12,60,-99999999999999.0,24,17,50
23,1564312727.9891555,99999999999999.0, 9,12,60,-99999999999999.0, 7, 9,10
59,893160000.0,99999999999999.0, 1, 1,10,-99999999999999.0, 1, 8,10
521,519316250.88387966,99999999999999.0,17,13,30,-99999999999999.0, 7, 6,40
637,541485593.8364235,99999999999999.0, 2,14,20,-99999999999999.0,27, 8,10
649,541485593.8364235,99999999999999.0, 2,14,20,-99999999999999.0,27, 8,10
4,304,10
11,4445068536.523813,99999999999999.0, 9,12,60,-99999999999999.0,24,17,50
23,1758795057.4058344,99999999999999.0, 9,12,60,-99999999999999.0, 7, 9,10
59,970200000.0,99999999999999.0, 1, 1,10,-99999999999999.0, 1, 8,10
521,2686273479.1179814,99999999999999.0,17,13,30,-99999999999999.0, 7, 6,40
637,3994212086.786157,99999999999999.0, 2,14,20,-99999999999999.0,27, 8,10
649,3994212086.786157,99999999999999.0, 2,14,20,-99999999999999.0,27, 8,10
4,334,11
11,7282223048.277172,99999999999999.0, 9,12,60,-99999999999999.0,24,17,50
23,1710201582.3247917,99999999999999.0, 9,12,60,-99999999999999.0, 7, 9,10
59,893160000.0,99999999999999.0, 1, 1,10,-99999999999999.0, 1, 8,10
521,5572021465.952368,99999999999999.0,17,13,30,-99999999999999.0, 7, 6,40
637,12362007189.52708,99999999999999.0, 2,14,20,-99999999999999.0,27, 8,10
649,12362007189.52708,99999999999999.0, 2,14,20,-99999999999999.0,27, 8,10
4,365,12
11,10305205527.643066,99999999999999.0, 9,12,60,-99999999999999.0,24,17,50
23,1862286586.5329602,99999999999999.0, 9,12,60,-99999999999999.0, 7, 9,10
59,933840000.0,99999999999999.0, 1, 1,10,-99999999999999.0, 1, 8,10
521,8442918941.110184,99999999999999.0,17,13,30,-99999999999999.0, 7, 6,40
637,26580465696.76835,99999999999999.0, 2,14,20,-99999999999999.0,27, 8,10
649,26580465696.76835,99999999999999.0, 2,14,20,-99999999999999.0,27, 8,10
5,365
13,63739012203.9769,83796.87526228074, 6, 9,12,60,3562966.463063977, 1,24,17,50
25,20517653271.085323,83796.87526228074, 6, 9,12,60,1033849.5453140746, 1, 7, 9,10
61,11066760000.0,30000.0, 1, 1, 1,10,600000.0, 1, 1, 8,10
523,43221358932.89284,0.0, 1,17,13,30,2595050.501800004, 4, 7, 6,40
639,116278747587.06863,0.0, 1, 2,14,20,27197037.72940177, 1,27, 8,10
651,116278747587.06863,0.0, 1, 2,14,20,27197037.72940177, 1,27, 8,10
1,RUN PERIOD 2,  41.98, -87.92,  -6.00, 201.00
4,1, 7
11,66801242.77116271,99999999999999.0, 9,12,60,-99999999999999.0,24,17,50
23,66801242.77116271,99999999999999.0, 9,12,60,-99999999999999.0, 7, 9,10
59,40680000.0,99999999999999.0, 1, 1,10,-99999999999999.0, 1, 8,10
521,0.0,99999999999999.0,17,13,30,-99999999999999.0, 7, 6,40
637,0.0,99999999999999.0, 2,14,20,-99999999999999.0,27, 8,10
649,0.0,99999999999999.0, 2,14,20,-99999999999999.0,27, 8,10
5,1
13,66801242.77116271,99999999999999.0, 6, 9,12,60,-99999999999999.0, 1,24,17,50
25,66801242.77116271,99999999999999.0, 6, 9,12,60,-99999999999999.0, 1, 7, 9,10
61,40680000.0,99999999999999.0, 1, 1, 1,10,-99999999999999.0, 1, 1, 8,10
523,0.0,99999999999999.0, 1,17,13,30,-99999999999999.0, 4, 7, 6,40
639,0.0,99999999999999.0, 1, 2,14,20,-99999999999999.0, 1,27, 8,10
651,0.0,99999999999999.0, 1, 2,14,20,-99999999999999.0, 1,27, 8,10
End of Data
 Number of Records Written=          90
