Program Version,EnergyPlus, Version 24.2.0-94a887817b, YMD=2025.01.30 20:35
1,5,Environment Title[],Latitude[deg],Longitude[deg],Time Zone[],Elevation[m]
2,8,Day of Simulation[],Month[],Day of Month[],DST Indicator[1=yes 0=no],Hour[],StartMinute[],EndMinute[],DayType
3,5,Cumulative Day of Simulation[],Month[],Day of Month[],DST Indicator[1=yes 0=no],DayType  ! When Daily Report Variables Requested
4,2,Cumulative Days of Simulation[],Month[]  ! When Monthly Report Variables Requested
5,1,Cumulative Days of Simulation[] ! When Run Period Report Variables Requested
6,1,Calendar Year of Simulation[] ! When Annual Report Variables Requested
250,1,LIVING ZONE,Zone Air Temperature [C] !TimeStep,REPORTSCH
251,1,LIVING ZONE,Zone Air System Sensible Heating Energy [J] !TimeStep,REPORTSCH
336,1,LIVING ZONE,Zone Air System Sensible Cooling Energy [J] !TimeStep,REPORTSCH
385,1,LIVING ZONE,Zone Thermostat Heating Setpoint Temperature [C] !TimeStep,REPORTSCH
386,1,LIVING ZONE,Zone Thermostat Cooling Setpoint Temperature [C] !TimeStep,REPORTSCH
387,1,GARAGE ZONE,Zone Air Temperature [C] !TimeStep,REPORTSCH
388,1,GARAGE ZONE,Zone Air System Sensible Heating Energy [J] !TimeStep,REPORTSCH
425,1,GARAGE ZONE,Zone Air System Sensible Cooling Energy [J] !TimeStep,REPORTSCH
450,1,GARAGE ZONE,Zone Thermostat Heating Setpoint Temperature [C] !TimeStep,REPORTSCH
451,1,GARAGE ZONE,Zone Thermostat Cooling Setpoint Temperature [C] !TimeStep,REPORTSCH
452,1,ATTIC ZONE,Zone Air Temperature [C] !TimeStep,REPORTSCH
453,1,ATTIC ZONE,Zone Air System Sensible Heating Energy [J] !TimeStep,REPORTSCH
490,1,ATTIC ZONE,Zone Air System Sensible Cooling Energy [J] !TimeStep,REPORTSCH
515,1,ATTIC ZONE,Zone Thermostat Heating Setpoint Temperature [C] !TimeStep,REPORTSCH
516,1,ATTIC ZONE,Zone Thermostat Cooling Setpoint Temperature [C] !TimeStep,REPORTSCH
542,1,ACDXCOIL 1,Cooling Coil Total Cooling Energy [J] !TimeStep,REPORTSCH
592,1,HEAT PUMP DX HEATING COIL 1,Heating Coil Heating Energy [J] !TimeStep,REPORTSCH
632,1,SUPP HEATING COIL 1,Heating Coil Heating Energy [J] !TimeStep,REPORTSCH
686,1,TWOSPEED HEAT PUMP 1,Unitary System DX Coil Cycling Ratio [] !TimeStep,REPORTSCH
687,1,TWOSPEED HEAT PUMP 1,Unitary System DX Coil Speed Ratio [] !TimeStep,REPORTSCH
688,1,TWOSPEED HEAT PUMP 1,Unitary System DX Coil Speed Level [] !TimeStep,REPORTSCH
End of Data Dictionary
1,RUN PERIOD 1,  41.98, -87.92,  -6.00, 201.00
2,21, 1,21, 0, 1, 0.00,10.00,Monday
250,24.119789509911424
251,6682813.834241539
336,0.0
385,23.936666666666664
386,38.989999999999995
387,-0.35800192248440127
388,0.0
425,0.0
450,0.0
451,0.0
452,-1.3245984716660963
453,0.0
490,0.0
515,0.0
516,0.0
542,0.0
592,2774175.783077444
632,3828689.2999392413
686,0.596786464712576
687,0.5
688,1.1666666666666667
2,21, 1,21, 0, 1,10.00,20.00,Monday
250,24.575147395332742
251,6535253.975698515
336,0.0
385,24.60333333333333
386,38.989999999999995
387,-0.3663370960140917
388,0.0
425,0.0
450,0.0
451,0.0
452,-1.3097965538433889
453,0.0
490,0.0
515,0.0
516,0.0
542,0.0
592,3658646.4188925265
632,2778371.359600492
686,0.7877202570943278
687,0.6666666666666667
688,1.6666666666666667
2,21, 1,21, 0, 1,20.00,30.00,Monday
250,24.8117676845397
251,7614955.284947437
336,0.0
385,25.27
386,38.99
387,-0.3770208763443916
388,0.0
425,0.0
450,0.0
451,0.0
452,-1.3050892390061763
453,0.0
490,0.0
515,0.0
516,0.0
542,0.0
592,4836470.9965013815
632,3304918.78428269
686,1.0
687,1.0
688,2.0
2,21, 1,21, 0, 1,30.00,40.00,Monday
250,25.226317561332372
251,8684873.73008405
336,0.0
385,25.27
386,38.99
387,-0.38770852210532636
388,0.0
425,0.0
450,0.0
451,0.0
452,-1.3149260816861035
453,0.0
490,0.0
515,0.0
516,0.0
542,0.0
592,4820200.3772018375
632,3725828.499403869
686,1.0
687,1.0
688,2.0
2,21, 1,21, 0, 1,40.00,50.00,Monday
250,24.129843120494876
251,6493658.2536345525
336,0.0
385,23.936666666666632
386,38.98999999999995
387,-0.39836685373188274
388,0.0
425,0.0
450,0.0
451,0.0
452,-1.3376532644403967
453,0.0
490,0.0
515,0.0
516,0.0
542,0.0
592,2708871.207932948
632,3701269.18902422
686,0.5884931297664342
687,0.49999999999999933
688,1.166666666666665
2,21, 1,21, 0, 1,50.00,60.00,Monday
250,24.572280860617806
251,6331891.522157565
336,0.0
385,24.60333333333335
386,38.99000000000003
387,-0.41087219179598494
388,0.0
425,0.0
450,0.0
451,0.0
452,-1.371720125494252
453,0.0
490,0.0
515,0.0
516,0.0
542,0.0
592,3558528.746143925
632,2688643.5311302384
686,0.7727424539873419
687,0.6666666666666672
688,1.6666666666666679
2,21, 1,21, 0, 2, 0.00,10.00,Monday
250,24.80860084625786
251,7508196.053051497
336,0.0
385,25.27
386,38.99
387,-0.4267359626457142
388,0.0
425,0.0
450,0.0
451,0.0
452,-1.4170256193244524
453,0.0
490,0.0
515,0.0
516,0.0
542,0.0
592,4788388.804624514
632,3250003.2621655692
686,1.0
687,1.0
688,2.0
2,21, 1,21, 0, 2,10.00,20.00,Monday
250,25.2259910970785
251,8650982.969776798
336,0.0
385,25.27
386,38.99
387,-0.4413570881578627
388,0.0
425,0.0
450,0.0
451,0.0
452,-1.4530700876281135
453,0.0
490,0.0
515,0.0
516,0.0
542,0.0
592,4788119.06313332
632,3724875.1937438804
686,1.0
687,1.0
688,2.0
2,21, 1,21, 0, 2,20.00,30.00,Monday
250,24.12759372624363
251,6535662.151985461
336,0.0
385,23.936666666666685
386,38.99000000000002
387,-0.45421752298955087
388,0.0
425,0.0
450,0.0
451,0.0
452,-1.476211411699163
453,0.0
490,0.0
515,0.0
516,0.0
542,0.0
592,2708191.3151191706
632,3744682.22352666
686,0.5909144661217955
687,0.5000000000000004
688,1.1666666666666674
2,21, 1,21, 0, 2,30.00,40.00,Monday
250,24.57444760283824
251,6459464.893616613
336,0.0
385,24.60333333333335
386,38.99000000000003
387,-0.467689754148764
388,0.0
425,0.0
450,0.0
451,0.0
452,-1.4942416433953363
453,0.0
490,0.0
515,0.0
516,0.0
542,0.0
592,3593464.1368079106
632,2771375.6689987564
686,0.7828551717762665
687,0.6666666666666672
688,1.6666666666666679
2,21, 1,21, 0, 2,40.00,50.00,Monday
250,24.81136975151831
251,7630361.918695178
336,0.0
385,25.27
386,38.99
387,-0.4832990088480923
388,0.0
425,0.0
450,0.0
451,0.0
452,-1.5081280467309455
453,0.0
490,0.0
515,0.0
516,0.0
542,0.0
592,4788362.303504981
632,3370256.2279372583
686,1.0
687,1.0
688,2.0
2,21, 1,21, 0, 2,50.00,60.00,Monday
250,25.226325762502874
251,8771656.566168316
336,0.0
385,25.27
386,38.99
387,-0.4965302287567711
388,0.0
425,0.0
450,0.0
451,0.0
452,-1.5142731515885681
453,0.0
490,0.0
515,0.0
516,0.0
542,0.0
592,4788119.06313332
632,3844849.2422940647
686,1.0
687,1.0
688,2.0
2,21, 1,21, 0, 3, 0.00,10.00,Monday
250,24.122114396195165
251,6638374.50544378
336,0.0
385,23.936666666666664
386,38.989999999999995
387,-0.49638924365908554
388,0.0
425,0.0
450,0.0
451,0.0
452,-1.5065122926041965
453,0.0
490,0.0
515,0.0
516,0.0
542,0.0
592,2728296.0881027863
632,3829156.3361687055
686,0.5960885898867504
687,0.5
688,1.1666666666666667
2,21, 1,21, 0, 3,10.00,20.00,Monday
250,24.57575814014207
251,6553267.795680039
336,0.0
385,24.60333333333333
386,38.989999999999995
387,-0.4884557839052324
388,0.0
425,0.0
450,0.0
451,0.0
452,-1.4836148895727168
453,0.0
490,0.0
515,0.0
516,0.0
542,0.0
592,3623595.394582103
632,2828890.1332794456
686,0.789889315008987
687,0.6666666666666667
688,1.6666666666666667
2,21, 1,21, 0, 3,20.00,30.00,Monday
250,24.813492559837808
251,7700538.243257987
336,0.0
385,25.27
386,38.99
387,-0.472162835425861
388,0.0
425,0.0
450,0.0
451,0.0
452,-1.439891524059108
453,0.0
490,0.0
515,0.0
516,0.0
542,0.0
592,4799106.085287104
632,3428469.3367082938
686,1.0
687,1.0
688,2.0
2,21, 1,21, 0, 3,30.00,40.00,Monday
250,25.226576775197508
251,8824628.4890752
336,0.0
385,25.27
386,38.99
387,-0.45316718896263725
388,0.0
425,0.0
450,0.0
451,0.0
452,-1.3864834256364333
453,0.0
490,0.0
515,0.0
516,0.0
542,0.0
592,4802288.3347528465
632,3883114.2613321356
686,1.0
687,1.0
688,2.0
2,21, 1,21, 0, 3,40.00,50.00,Monday
250,24.11945500704529
251,6686205.58336083
336,0.0
385,23.936666666666632
386,38.98999999999995
387,-0.43259835695424914
388,0.0
425,0.0
450,0.0
451,0.0
452,-1.326673109927675
453,0.0
490,0.0
515,0.0
516,0.0
542,0.0
592,2744595.540725061
632,3861628.6439452404
686,0.5983981561735525
687,0.49999999999999933
688,1.166666666666665
2,21, 1,21, 0, 3,50.00,60.00,Monday
250,24.576362533949723
251,6602948.99609505
336,0.0
385,24.60333333333335
386,38.99000000000003
387,-0.4078263108005091
388,0.0
425,0.0
450,0.0
451,0.0
452,-1.255280707259531
453,0.0
490,0.0
515,0.0
516,0.0
542,0.0
592,3645561.8226188943
632,2853790.774151375
686,0.7931478946052489
687,0.6666666666666672
688,1.6666666666666679
2,21, 1,21, 0, 4, 0.00,10.00,Monday
250,24.814734459299785
251,7748219.441177052
336,0.0
385,25.27
386,38.99
387,-0.3857336488496691
388,0.0
425,0.0
450,0.0
451,0.0
452,-1.1725952341963906
453,0.0
490,0.0
515,0.0
516,0.0
542,0.0
592,4808653.808928831
632,3466258.089816138
686,1.0
687,1.0
688,2.0
2,21, 1,21, 0, 4,10.00,20.00,Monday
250,25.226719931934504
251,8871344.777994351
336,0.0
385,25.27
386,38.99
387,-0.37458690336334327
388,0.0
425,0.0
450,0.0
451,0.0
452,-1.1107760345104252
453,0.0
490,0.0
515,0.0
516,0.0
542,0.0
592,4808331.962644291
632,3923479.890546823
686,1.0
687,1.0
688,2.0
2,21, 1,21, 0, 4,20.00,30.00,Monday
250,24.11681717095662
251,6732100.7365732435
336,0.0
385,23.936666666666685
386,38.99000000000002
387,-0.370086088580546
388,0.0
425,0.0
450,0.0
451,0.0
452,-1.0702187505178995
453,0.0
490,0.0
515,0.0
516,0.0
542,0.0
592,2754798.6818993893
632,3898228.4372315533
686,0.6008683381172831
687,0.5000000000000004
688,1.1666666666666674
2,21, 1,21, 0, 4,30.00,40.00,Monday
250,24.57715094328935
251,6653940.461714565
336,0.0
385,24.60333333333335
386,38.99000000000003
387,-0.36661069855978695
388,0.0
425,0.0
450,0.0
451,0.0
452,-1.0347250933175611
453,0.0
490,0.0
515,0.0
516,0.0
542,0.0
592,3659639.1093290574
632,2886947.585223506
686,0.7973499400468498
687,0.6666666666666672
688,1.6666666666666679
2,21, 1,21, 0, 4,40.00,50.00,Monday
250,24.815732561555436
251,7792352.894718847
336,0.0
385,25.27
386,38.99
387,-0.3637248406938582
388,0.0
425,0.0
450,0.0
451,0.0
452,-1.0010605841576123
453,0.0
490,0.0
515,0.0
516,0.0
542,0.0
592,4807945.663166039
632,3510232.9888417046
686,1.0
687,1.0
688,2.0
2,21, 1,21, 0, 4,50.00,60.00,Monday
250,25.226819749037904
251,8914258.91400328
336,0.0
385,25.27
386,38.99
387,-0.36250344228789966
388,0.0
425,0.0
450,0.0
451,0.0
452,-0.9787250571455604
453,0.0
490,0.0
515,0.0
516,0.0
542,0.0
592,4807631.006299695
632,3966843.338060354
686,1.0
687,1.0
688,2.0
2,21, 1,21, 0, 5, 0.00,10.00,Monday
250,24.113607564498754
251,6787981.401371896
336,0.0
385,23.936666666666664
386,38.989999999999995
387,-0.3625652916055652
388,0.0
425,0.0
450,0.0
451,0.0
452,-0.9649178848945502
453,0.0
490,0.0
515,0.0
516,0.0
542,0.0
592,2758581.9354445254
632,3951383.6132140798
686,0.604183707684473
687,0.5
688,1.1666666666666667
2,21, 1,21, 0, 5,10.00,20.00,Monday
250,24.57848267313693
251,6729338.9333101865
336,0.0
385,24.60333333333333
386,38.989999999999995
387,-0.36294022357585193
388,0.0
425,0.0
450,0.0
451,0.0
452,-0.9513379956601473
453,0.0
490,0.0
515,0.0
516,0.0
542,0.0
592,3663275.190983802
632,2952431.5951136574
686,0.8041741135992718
687,0.6666666666666667
688,1.6666666666666667
2,21, 1,21, 0, 5,20.00,30.00,Monday
250,24.81741247940645
251,7874188.449162891
336,0.0
385,25.27
386,38.99
387,-0.36373400823188373
388,0.0
425,0.0
450,0.0
451,0.0
452,-0.9360349627770195
453,0.0
490,0.0
515,0.0
516,0.0
542,0.0
592,4768943.263952984
632,3629649.4905991745
686,1.0
687,1.0
688,2.0
2,21, 1,21, 0, 5,30.00,40.00,Monday
250,25.227014369621543
251,9010431.784980822
336,0.0
385,25.27
386,38.99
387,-0.3648684193659768
388,0.0
425,0.0
450,0.0
451,0.0
452,-0.9231916770369
453,0.0
490,0.0
515,0.0
516,0.0
542,0.0
592,4755868.745831046
632,4114350.8278722987
686,1.0
687,1.0
688,2.0
2,21, 1,21, 0, 5,40.00,50.00,Monday
250,24.17308694970891
251,6157417.075813887
336,0.0
385,24.07
386,38.99
387,-0.3661448546166599
388,0.0
425,0.0
450,0.0
451,0.0
452,-0.9126544428131099
453,0.0
490,0.0
515,0.0
516,0.0
542,0.0
592,2618218.3271168666
632,3557422.486609262
686,0.6000000000000001
687,0.4267307876932438
688,1.2000000000000002
2,21, 1,21, 0, 5,50.00,60.00,Monday
250,24.5498441054876
251,8385319.223940542
336,0.0
385,24.60333333333335
386,38.99000000000003
387,-0.3674235421144534
388,0.0
425,0.0
450,0.0
451,0.0
452,-0.9016361419737084
453,0.0
490,0.0
515,0.0
516,0.0
542,0.0
592,4654209.256980624
632,3671083.0387110347
686,1.0000000000000009
687,0.9421543355314128
688,2.0000000000000018
2,21, 1,21, 0, 6, 0.00,10.00,Monday
250,24.595795656029992
251,6691562.465253648
336,0.0
385,24.60333333333333
386,38.99
387,-0.369255901636886
388,0.0
425,0.0
450,0.0
451,0.0
452,-0.8879219042145465
453,0.0
490,0.0
515,0.0
516,0.0
542,0.0
592,3558516.995778955
632,2961042.622382176
686,0.7851891808725252
687,0.6666666666666666
688,1.6666666666666665
2,21, 1,21, 0, 6,10.00,20.00,Monday
250,24.81133902223789
251,8297783.712792215
336,0.0
385,25.27
386,38.99
387,-0.37112067000580157
388,0.0
425,0.0
450,0.0
451,0.0
452,-0.8771959100966987
453,0.0
490,0.0
515,0.0
516,0.0
542,0.0
592,4729742.192135724
632,4096859.5519013014
686,1.0
687,1.0
688,2.0
2,21, 1,21, 0, 6,20.00,30.00,Monday
250,25.226383756604967
251,9014920.193685025
336,0.0
385,25.27
386,38.99
387,-0.3728391764805328
388,0.0
425,0.0
450,0.0
451,0.0
452,-0.8709329207515135
453,0.0
490,0.0
515,0.0
516,0.0
542,0.0
592,4729389.9043502975
632,4146919.812643217
686,1.0
687,1.0
688,2.0
2,21, 1,21, 0, 6,30.00,40.00,Monday
250,24.17203283542803
251,6162595.305589534
336,0.0
385,24.07
386,38.99
387,-0.3746405197382276
388,0.0
425,0.0
450,0.0
451,0.0
452,-0.8670366130455172
453,0.0
490,0.0
515,0.0
516,0.0
542,0.0
592,2615176.7903639744
632,3565807.293443543
686,0.6000000000000001
687,0.4301889108078739
688,1.2000000000000002
2,21, 1,21, 0, 6,40.00,50.00,Monday
250,24.54979130007149
251,8387441.061586325
336,0.0
385,24.60333333333335
386,38.99000000000003
387,-0.3766673691546152
388,0.0
425,0.0
450,0.0
451,0.0
452,-0.8635821600334064
453,0.0
490,0.0
515,0.0
516,0.0
542,0.0
592,4656060.196059578
632,3671275.004195651
686,1.0000000000000009
687,0.944277541448287
688,2.0000000000000018
2,21, 1,21, 0, 6,50.00,60.00,Monday
250,24.596063258895636
251,6703630.230718271
336,0.0
385,24.60333333333335
386,38.99000000000003
387,-0.3795852500812448
388,0.0
425,0.0
450,0.0
451,0.0
452,-0.8597388545802099
453,0.0
490,0.0
515,0.0
516,0.0
542,0.0
592,3562427.343161461
632,2967887.834896352
686,0.7865407673493447
687,0.6666666666666672
688,1.6666666666666679
2,21, 1,21, 0, 7, 0.00,10.00,Monday
250,24.811788999633055
251,8399676.491957841
336,0.0
385,25.27
386,38.99
387,-0.38531943400934443
388,0.0
425,0.0
450,0.0
451,0.0
452,-0.8639305009744579
453,0.0
490,0.0
515,0.0
516,0.0
542,0.0
592,4758447.206931898
632,4169847.9467664594
686,1.0
687,1.0
688,2.0
2,21, 1,21, 0, 7,10.00,20.00,Monday
250,25.226455474920346
251,9161547.321238577
336,0.0
385,25.27
386,38.99
387,-0.3948203615504058
388,0.0
425,0.0
450,0.0
451,0.0
452,-0.8854945316529047
453,0.0
490,0.0
515,0.0
516,0.0
542,0.0
592,4787763.93543619
632,4235059.190362351
686,1.0
687,1.0
688,2.0
2,21, 1,21, 0, 7,20.00,30.00,Monday
250,24.096514354972673
251,7088881.669991675
336,0.0
385,23.936666666666685
386,38.99000000000002
387,-0.4075004437600461
388,0.0
425,0.0
450,0.0
451,0.0
452,-0.9252445888034203
453,0.0
490,0.0
515,0.0
516,0.0
542,0.0
592,2825682.121434689
632,4191164.080087711
686,0.6197208300117856
687,0.5000000000000004
688,1.1666666666666674
2,21, 1,21, 0, 7,30.00,40.00,Monday
250,24.584125152548737
251,7115611.260656143
336,0.0
385,24.60333333333335
386,38.99000000000003
387,-0.4237630959448886
388,0.0
425,0.0
450,0.0
451,0.0
452,-0.9809811338936993
453,0.0
490,0.0
515,0.0
516,0.0
542,0.0
592,3818831.479549824
632,3156303.0248111207
686,0.8343502809959775
687,0.6666666666666672
688,1.6666666666666679
2,21, 1,21, 0, 7,40.00,50.00,Monday
250,24.824355844908684
251,8267818.515591016
336,0.0
385,25.27
386,38.99
387,-0.44631069392296474
388,0.0
425,0.0
450,0.0
451,0.0
452,-1.058221556626208
453,0.0
490,0.0
515,0.0
516,0.0
542,0.0
592,4876370.260234944
632,3909126.1187619455
686,1.0
687,1.0
688,2.0
2,21, 1,21, 0, 7,50.00,60.00,Monday
250,25.227805934463085
251,9441116.90916602
336,0.0
385,25.27
386,38.99
387,-0.46877387002748816
388,0.0
425,0.0
450,0.0
451,0.0
452,-1.134199592301902
453,0.0
490,0.0
515,0.0
516,0.0
542,0.0
592,4905838.972436041
632,4393241.765660724
686,1.0
687,1.0
688,2.0
2,21, 1,21, 0, 8, 0.00,10.00,Monday
250,24.110317460489277
251,6829131.784393227
336,0.0
385,23.936666666666664
386,38.989999999999995
387,-0.46095710753680663
388,0.0
425,0.0
450,0.0
451,0.0
452,-1.1837323971613936
453,0.0
490,0.0
515,0.0
516,0.0
542,0.0
592,2839835.922276921
632,3912671.686023946
686,0.605300640419268
687,0.5
688,1.1666666666666667
2,21, 1,21, 0, 8,10.00,20.00,Monday
250,24.574823266563914
251,6586082.843704242
336,0.0
385,24.60333333333333
386,38.989999999999995
387,-0.42911266836958206
388,0.0
425,0.0
450,0.0
451,0.0
452,-1.1697248794054218
453,0.0
490,0.0
515,0.0
516,0.0
542,0.0
592,3736012.0306271017
632,2753242.565169619
686,0.7880557843881678
687,0.6666666666666667
688,1.6666666666666667
2,21, 1,21, 0, 8,20.00,30.00,Monday
250,24.814976385332702
251,7579362.963988419
336,0.0
385,25.27
386,38.99
387,-0.3703496590728704
388,0.0
425,0.0
450,0.0
451,0.0
452,-1.0645823223554145
453,0.0
490,0.0
515,0.0
516,0.0
542,0.0
592,4973618.432016872
632,3134290.742568611
686,1.0
687,1.0
688,2.0
2,21, 1,21, 0, 8,30.00,40.00,Monday
250,25.226675596222353
251,8518002.474137643
336,0.0
385,25.27
386,38.99
387,-0.30220884627277644
388,0.0
425,0.0
450,0.0
451,0.0
452,-0.884648125535495
453,0.0
490,0.0
515,0.0
516,0.0
542,0.0
592,5000348.9358800445
632,3378030.2951905914
686,1.0
687,1.0
688,2.0
2,21, 1,21, 0, 8,40.00,50.00,Monday
250,24.14536477778331
251,6173325.856924172
336,0.0
385,23.936666666666632
386,38.98999999999995
387,-0.22461862916673436
388,0.0
425,0.0
450,0.0
451,0.0
452,-0.6341770754366035
453,0.0
490,0.0
515,0.0
516,0.0
542,0.0
592,2776204.867072838
632,3308710.519345785
686,0.5718689273784593
687,0.49999999999999933
688,1.166666666666665
2,21, 1,21, 0, 8,50.00,60.00,Monday
250,24.56339548695828
251,5857359.93480005
336,0.0
385,24.60333333333335
386,38.99000000000003
387,-0.12640101188617578
388,0.0
425,0.0
450,0.0
451,0.0
452,-0.299334075332511
453,0.0
490,0.0
515,0.0
516,0.0
542,0.0
592,3604499.733236171
632,2209436.042879027
686,0.7305131555908281
687,0.6666666666666672
688,1.6666666666666679
2,21, 1,21, 0, 9, 0.00,10.00,Monday
250,25.20047314552547
251,7468503.514479186
336,0.0
385,25.27
386,38.99
387,-0.0007206368165542168
388,0.0
425,0.0
450,0.0
451,0.0
452,0.1212937664034202
453,0.0
490,0.0
515,0.0
516,0.0
542,0.0
592,5086638.1978239715
632,2307897.3854046185
686,1.0
687,1.0
688,2.0
2,21, 1,21, 0, 9,10.00,20.00,Monday
250,24.33880176139743
251,4975792.578662915
336,0.0
385,24.27
386,38.99
387,0.17909909031328655
388,0.0
425,0.0
450,0.0
451,0.0
452,0.7186686746659416
453,0.0
490,0.0
515,0.0
516,0.0
542,0.0
592,3504766.628168628
632,1095376.0377216286
686,0.753416253812248
687,0.5
688,1.5
2,21, 1,21, 0, 9,20.00,30.00,Monday
250,24.55900778317203
251,4975274.766352745
336,0.0
385,24.603333333333325
386,38.98999999999999
387,0.31953136750235706
388,0.0
425,0.0
450,0.0
451,0.0
452,1.2087992720902174
453,0.0
490,0.0
515,0.0
516,0.0
542,0.0
592,3433619.500542551
632,1533455.8273354524
686,0.6666666666666664
687,0.6666666666666664
688,1.3333333333333328
2,21, 1,21, 0, 9,30.00,40.00,Monday
250,24.188059762010194
251,4920081.540075342
336,0.0
385,24.069999999999993
386,38.98999999999999
387,0.46094186329438414
388,0.0
425,0.0
450,0.0
451,0.0
452,1.7260549017798592
453,0.0
490,0.0
515,0.0
516,0.0
542,0.0
592,2446893.1467737206
632,2530437.819038977
686,0.4987459111084961
687,0.3999999999999997
688,0.9999999999999993
2,21, 1,21, 0, 9,40.00,50.00,Monday
250,24.53443844753424
251,6570896.370783034
336,0.0
385,24.60333333333335
386,38.99000000000003
387,0.6031066985766793
388,0.0
425,0.0
450,0.0
451,0.0
452,2.2939336098686676
453,0.0
490,0.0
515,0.0
516,0.0
542,0.0
592,3858102.5084893666
632,2757692.3765369747
686,0.8888733344970248
687,0.3333333333333336
688,1.3333333333333344
2,21, 1,21, 0, 9,50.00,60.00,Monday
250,24.631407642521545
251,4757857.192048565
336,0.0
385,24.60333333333335
386,38.99000000000003
387,0.8168945850022689
388,0.0
425,0.0
450,0.0
451,0.0
452,3.026854601494935
453,0.0
490,0.0
515,0.0
516,0.0
542,0.0
592,3497718.2184621817
632,1217302.9242609453
686,0.6666666666666672
687,0.6666666666666672
688,1.3333333333333344
2,21, 1,21, 0,10, 0.00,10.00,Monday
250,24.239410017864373
251,4499904.7104127165
336,0.0
385,24.07
386,38.99
387,0.9962669574474462
388,0.0
425,0.0
450,0.0
451,0.0
452,3.5474881369678193
453,0.0
490,0.0
515,0.0
516,0.0
542,0.0
592,2385318.3283640286
632,2161365.244752106
686,0.4652776073332519
687,0.4
688,1.0
2,21, 1,21, 0,10,10.00,20.00,Monday
250,24.529988321934482
251,6005822.314702036
336,0.0
385,24.60333333333333
386,38.989999999999995
387,1.2138640823926599
388,0.0
425,0.0
450,0.0
451,0.0
452,4.132468578815137
453,0.0
490,0.0
515,0.0
516,0.0
542,0.0
592,3527378.6614257507
632,2561680.2490030173
686,0.7667082822997289
687,0.33333333333333337
688,1.3333333333333333
2,21, 1,21, 0,10,20.00,30.00,Monday
250,24.684356781754452
251,4343940.78488341
336,0.0
385,24.603333333333325
386,38.98999999999999
387,1.5356756698751552
388,0.0
425,0.0
450,0.0
451,0.0
452,4.924261060768469
453,0.0
490,0.0
515,0.0
516,0.0
542,0.0
592,3660072.8317453978
632,641842.1453301602
686,0.6666666666666664
687,0.6666666666666664
688,1.3333333333333328
2,21, 1,21, 0,10,30.00,40.00,Monday
250,24.293989184534123
251,4035290.149804631
336,0.0
385,24.069999999999993
386,38.98999999999999
387,1.769710200760073
388,0.0
425,0.0
450,0.0
451,0.0
452,5.524264553944093
453,0.0
490,0.0
515,0.0
516,0.0
542,0.0
592,2143236.389959376
632,1941602.677445227
686,0.4298864376183777
687,0.2545704561171798
688,0.9999999999999993
2,21, 1,21, 0,10,40.00,50.00,Monday
250,24.523865281969613
251,5323531.902000193
336,0.0
385,24.60333333333335
386,38.99000000000003
387,2.0312747314328923
388,0.0
425,0.0
450,0.0
451,0.0
452,6.212721180776496
453,0.0
490,0.0
515,0.0
516,0.0
542,0.0
592,3139549.510440052
632,2315507.512188185
686,0.6307824409983971
687,0.3333333333333336
688,1.3333333333333344
2,21, 1,21, 0,10,50.00,60.00,Monday
250,24.274674838071803
251,4794018.8628748385
336,0.0
385,24.27
386,38.99
387,2.312363484872642
388,0.0
425,0.0
450,0.0
451,0.0
452,6.968330954250314
453,0.0
490,0.0
515,0.0
516,0.0
542,0.0
592,3201257.642153445
632,1666812.7914671618
686,0.5983725474774373
687,0.4320298391329086
688,1.25
2,21, 1,21, 0,11, 0.00,10.00,Monday
250,24.407664025185564
251,4495927.991032401
336,0.0
385,24.27
386,38.99
387,2.677809982598453
388,0.0
425,0.0
450,0.0
451,0.0
452,7.995888583145868
453,0.0
490,0.0
515,0.0
516,0.0
542,0.0
592,2756507.6779564284
632,1783937.7487993056
686,0.5506139703241646
687,0.25
688,1.0
2,21, 1,21, 0,11,10.00,20.00,Monday
250,24.420161653549023
251,4280128.560156342
336,0.0
385,24.27
386,38.99
387,2.968537373972609
388,0.0
425,0.0
450,0.0
451,0.0
452,8.891480461936837
453,0.0
490,0.0
515,0.0
516,0.0
542,0.0
592,2577624.6809038436
632,1759496.8629400737
686,0.503241077544245
687,0.25
688,1.0
2,21, 1,21, 0,11,20.00,30.00,Monday
250,24.431405325830887
251,4067170.618341862
336,0.0
385,24.27
386,38.99
387,3.24401397706448
388,0.0
425,0.0
450,0.0
451,0.0
452,9.75025403496769
453,0.0
490,0.0
515,0.0
516,0.0
542,0.0
592,2405550.146623393
632,1732155.8799197415
686,0.45832458864505377
687,0.25
688,1.0
2,21, 1,21, 0,11,30.00,40.00,Monday
250,24.440102761072584
251,3898870.289493352
336,0.0
385,24.27
386,38.99
387,3.5217685603417364
388,0.0
425,0.0
450,0.0
451,0.0
452,10.56840070769116
453,0.0
490,0.0
515,0.0
516,0.0
542,0.0
592,2273512.8712912113
632,1707549.3964157482
686,0.4232202243739004
687,0.25
688,1.0
2,21, 1,21, 0,11,40.00,50.00,Monday
250,24.447719971784096
251,3749760.37873549
336,0.0
385,24.27
386,38.99
387,3.8005646993387003
388,0.0
425,0.0
450,0.0
451,0.0
452,11.30000595024642
453,0.0
490,0.0
515,0.0
516,0.0
542,0.0
592,2157630.2989114067
632,1685505.0649622115
686,0.39235524451534276
687,0.25
688,1.0
2,21, 1,21, 0,11,50.00,60.00,Monday
250,24.4539256024592
251,3626076.405374874
336,0.0
385,24.27
386,38.99
387,4.076792395651476
388,0.0
425,0.0
450,0.0
451,0.0
452,11.927846998692118
453,0.0
490,0.0
515,0.0
516,0.0
542,0.0
592,2064509.2912118167
632,1664742.4338251594
686,0.36704291351510887
687,0.25
688,1.0
2,21, 1,21, 0,12, 0.00,10.00,Monday
250,24.464696574405906
251,3496448.4124745857
336,0.0
385,24.27
386,38.99
387,4.34674125049169
388,0.0
425,0.0
450,0.0
451,0.0
452,12.479942936247461
453,0.0
490,0.0
515,0.0
516,0.0
542,0.0
592,1960664.8084356077
632,1650143.055938455
686,0.34183181846423205
687,0.25
688,0.75
2,21, 1,21, 0,12,10.00,20.00,Monday
250,24.487061597952106
251,3393964.748642465
336,0.0
385,24.27
386,38.99
387,4.611169504371428
388,0.0
425,0.0
450,0.0
451,0.0
452,13.0005935777362
453,0.0
490,0.0
515,0.0
516,0.0
542,0.0
592,2268939.7645978504
632,1261548.7978119815
686,0.3057853877085017
687,0.25
688,0.75
2,21, 1,21, 0,12,20.00,30.00,Monday
250,24.52308198152573
251,3276516.045384262
336,0.0
385,24.27
386,38.99
387,4.872694622999033
388,0.0
425,0.0
450,0.0
451,0.0
452,13.513357871992971
453,0.0
490,0.0
515,0.0
516,0.0
542,0.0
592,2134050.215295058
632,1295027.1746373777
686,0.2807450338062494
687,0.25
688,0.75
2,21, 1,21, 0,12,30.00,40.00,Monday
250,24.559629379840565
251,3164805.6902099913
336,0.0
385,24.27
386,38.99
387,5.130750717228836
388,0.0
425,0.0
450,0.0
451,0.0
452,14.002702226594788
453,0.0
490,0.0
515,0.0
516,0.0
542,0.0
592,1998509.4690701982
632,1337502.5089626634
686,0.255959459709126
687,0.25
688,0.75
2,21, 1,21, 0,12,40.00,50.00,Monday
250,24.581198470143683
251,2809414.2020329554
336,0.0
385,24.07
386,38.99
387,5.337234355616019
388,0.0
425,0.0
450,0.0
451,0.0
452,14.364338838274529
453,0.0
490,0.0
515,0.0
516,0.0
542,0.0
592,1636918.172238056
632,1311350.2968239847
686,0.2096976486569144
687,0.2
688,0.6000000000000001
2,21, 1,21, 0,12,50.00,60.00,Monday
250,24.569673793913342
251,2887993.050244117
336,0.0
385,24.07
386,38.99
387,5.618605855951843
388,0.0
425,0.0
450,0.0
451,0.0
452,14.786060495275986
453,0.0
490,0.0
515,0.0
516,0.0
542,0.0
592,1912289.46769756
632,1091897.4531762013
686,0.2539198268332131
687,0.2
688,0.6000000000000001
2,21, 1,21, 0,13, 0.00,10.00,Monday
250,24.590805107899026
251,2853437.0973239453
336,0.0
385,24.07
386,38.99
387,5.857838992437451
388,0.0
425,0.0
450,0.0
451,0.0
452,15.080921422629931
453,0.0
490,0.0
515,0.0
516,0.0
542,0.0
592,1848614.904852457
632,1125762.6098144013
686,0.2422064072821279
687,0.2
688,0.6000000000000001
2,21, 1,21, 0,13,10.00,20.00,Monday
250,24.615000586035332
251,2799192.1460477575
336,0.0
385,24.07
386,38.99
387,6.071115914177617
388,0.0
425,0.0
450,0.0
451,0.0
452,15.302826844592879
453,0.0
490,0.0
515,0.0
516,0.0
542,0.0
592,1789417.4405001476
632,1135991.3227422873
686,0.23134363135086977
687,0.2
688,0.6000000000000001
2,21, 1,21, 0,13,20.00,30.00,Monday
250,24.648249840167573
251,2734203.271712267
336,0.0
385,24.07
386,38.99
387,6.273035405956823
388,0.0
425,0.0
450,0.0
451,0.0
452,15.485681078947918
453,0.0
490,0.0
515,0.0
516,0.0
542,0.0
592,1700870.3076082813
632,1167963.7949387277
686,0.21578801169496095
687,0.2
688,0.6000000000000001
2,21, 1,21, 0,13,30.00,40.00,Monday
250,24.274575869079946
251,2859843.385724403
336,0.0
385,24.07
386,38.99
387,6.467274416890934
388,0.0
425,0.0
450,0.0
451,0.0
452,15.634806376958188
453,0.0
490,0.0
515,0.0
516,0.0
542,0.0
592,2294525.1583548198
632,684404.7594660863
686,0.3113847302158506
687,0.2
688,0.6000000000000001
2,21, 1,21, 0,13,40.00,50.00,Monday
250,24.380650942333357
251,2852875.9666479053
336,0.0
385,24.27
386,38.99
387,6.623259411083325
388,0.0
425,0.0
450,0.0
451,0.0
452,15.72937921523702
453,0.0
490,0.0
515,0.0
516,0.0
542,0.0
592,2307872.0241223173
632,699895.5752729692
686,0.29671269260544664
687,0.25
688,0.75
2,21, 1,21, 0,13,50.00,60.00,Monday
250,24.214471614568076
251,2879144.357264714
336,0.0
385,23.77
386,38.99
387,6.829872003681043
388,0.0
425,0.0
450,0.0
451,0.0
452,15.831413283330264
453,0.0
490,0.0
515,0.0
516,0.0
542,0.0
592,2426567.76133745
632,598421.9059201779
686,0.3144998276619973
687,0.25
688,0.75
2,21, 1,21, 0,14, 0.00,10.00,Monday
250,24.397049230203812
251,296402.85837512586
336,0.0
385,23.77
386,38.99
387,7.016090806231608
388,0.0
425,0.0
450,0.0
451,0.0
452,15.88532527483673
453,0.0
490,0.0
515,0.0
516,0.0
542,0.0
592,274189.1864989072
632,0.0
686,0.04399555242013469
687,0.0
688,0.25
2,21, 1,21, 0,14,10.00,20.00,Monday
250,24.960691380985963
251,2030618.4644410103
336,0.0
385,24.60333333333333
386,38.989999999999995
387,7.1675618819325795
388,0.0
425,0.0
450,0.0
451,0.0
452,15.878081259511019
453,0.0
490,0.0
515,0.0
516,0.0
542,0.0
592,2048932.749989259
632,0.0
686,0.32710946485843584
687,0.0
688,0.6666666666666667
2,21, 1,21, 0,14,20.00,30.00,Monday
250,24.516495679062977
251,2522524.317665198
336,0.0
385,24.07
386,38.99
387,7.319317269112936
388,0.0
425,0.0
450,0.0
451,0.0
452,15.823911897763931
453,0.0
490,0.0
515,0.0
516,0.0
542,0.0
592,1687259.2696651472
632,975299.39403019
686,0.20759031093633562
687,0.2
688,0.6000000000000001
2,21, 1,21, 0,14,30.00,40.00,Monday
250,23.903650659625537
251,2822067.7927536843
336,0.0
385,23.77
386,38.99
387,7.471859338547931
388,0.0
425,0.0
450,0.0
451,0.0
452,15.708423648383427
453,0.0
490,0.0
515,0.0
516,0.0
542,0.0
592,2643278.374477716
632,331813.38636557694
686,0.3426618247558886
687,0.25
688,0.75
2,21, 1,21, 0,14,40.00,50.00,Monday
250,24.58664726546907
251,1726420.891052527
336,0.0
385,24.07
386,38.99
387,7.616592442562737
388,0.0
425,0.0
450,0.0
451,0.0
452,15.513159082251635
453,0.0
490,0.0
515,0.0
516,0.0
542,0.0
592,1652473.2750811905
632,156201.55803361844
686,0.2
687,0.2
688,0.4
2,21, 1,21, 0,14,50.00,60.00,Monday
250,24.006168130306364
251,2753211.8197024995
336,0.0
385,23.77
386,38.99
387,7.753961602611046
388,0.0
425,0.0
450,0.0
451,0.0
452,15.244370949415416
453,0.0
490,0.0