Program Version,EnergyPlus, Version 24.2.0-94a887817b, YMD=2025.01.30 19:33
1,5,Environment Title[],Latitude[deg],Longitude[deg],Time Zone[],Elevation[m]
2,8,Day of Simulation[],Month[],Day of Month[],DST Indicator[1=yes 0=no],Hour[],StartMinute[],EndMinute[],DayType
3,5,Cumulative Day of Simulation[],Month[],Day of Month[],DST Indicator[1=yes 0=no],DayType  ! When Daily Meters Requested
4,2,Cumulative Days of Simulation[],Month[]  ! When Monthly Meters Requested
5,1,Cumulative Days of Simulation[] ! When Run Period Meters Requested
6,1,Calendar Year of Simulation[] ! When Annual Meters Requested
11,9,Electricity:Facility [J] !Monthly [Value,Min,Day,Hour,Minute,Max,Day,Hour,Minute]
23,9,Electricity:Building [J] !Monthly [Value,Min,Day,Hour,Minute,Max,Day,Hour,Minute]
59,9,InteriorLights:Electricity [J] !Monthly [Value,Min,Day,Hour,Minute,Max,Day,Hour,Minute]
521,9,Electricity:HVAC [J] !Monthly [Value,Min,Day,Hour,Minute,Max,Day,Hour,Minute]
637,9,NaturalGas:Facility [J] !Monthly [Value,Min,Day,Hour,Minute,Max,Day,Hour,Minute]
649,9,NaturalGas:HVAC [J] !Monthly [Value,Min,Day,Hour,Minute,Max,Day,Hour,Minute]
13,11,Electricity:Facility [J] !RunPeriod [Value,Min,Month,Day,Hour,Minute,Max,Month,Day,Hour,Minute]
25,11,Electricity:Building [J] !RunPeriod [Value,Min,Month,Day,Hour,Minute,Max,Month,Day,Hour,Minute]
61,11,InteriorLights:Electricity [J] !RunPeriod [Value,Min,Month,Day,Hour,Minute,Max,Month,Day,Hour,Minute]
523,11,Electricity:HVAC [J] !RunPeriod [Value,Min,Month,Day,Hour,Minute,Max,Month,Day,Hour,Minute]
639,11,NaturalGas:Facility [J] !RunPeriod [Value,Min,Month,Day,Hour,Minute,Max,Month,Day,Hour,Minute]
651,11,NaturalGas:HVAC [J] !RunPeriod [Value,Min,Month,Day,Hour,Minute,Max,Month,Day,Hour,Minute]
End of Data Dictionary
1,RUN PERIOD 1,  41.98, -87.92,  -6.00, 201.00
4,31, 1
11,9833510329.05059,408891.4285714286, 5, 6,50,2987053.1150130075,16,13,60
23,994460227.8196051,30000.0, 1, 1,10,617579.8752315833, 1, 9,10
59,970200000.0,30000.0, 1, 1,10,600000.0, 1, 8,10
521,8839050101.230986,378891.4285714286, 5, 6,50,2369473.239781425,16,13,60
637,178432654644.5683,27971005.7864862,21,16,10,41250000.0, 1, 1,20
649,178432654644.5683,27971005.7864862,21,16,10,41250000.0, 1, 1,20
4,59, 2
11,9365631971.341763,99999999999999.0, 5, 6,50,3028514.5552761303,22,15,30
23,869255850.2779135,99999999999999.0, 1, 1,10,-99999999999999.0, 1, 9,10
59,848160000.0,99999999999999.0, 1, 1,10,-99999999999999.0, 1, 8,10
521,8496376121.063895,99999999999999.0, 5, 6,50,2410934.680044547,22,15,30
637,157674179512.25604,26292263.6322303,23,12,10,-99999999999999.0, 1, 1,20
649,157674179512.25604,26292263.6322303,23,12,10,-99999999999999.0, 1, 1,20
4,90, 3
11,11022732134.026121,99999999999999.0, 5, 6,50,3292533.4840174513,27,16,10
23,919724375.0250889,99999999999999.0, 1, 1,10,-99999999999999.0, 1, 9,10
59,897480000.0,99999999999999.0, 1, 1,10,-99999999999999.0, 1, 8,10
521,10103007759.001005,99999999999999.0, 5, 6,50,2674953.608785868,27,16,10
637,161559018238.33,20742980.13549348,27,16,10,-99999999999999.0, 1, 1,20
649,161559018238.33,20742980.13549348,27,16,10,-99999999999999.0, 1, 1,20
4,120, 4
11,10208299805.697414,30000.0,11,19,10,3339039.8585885894,11,14,50
23,953036825.4613668,99999999999999.0, 1, 1,10,652711.7579700403,24,15,60
59,929520000.0,99999999999999.0, 1, 1,10,-99999999999999.0, 1, 8,10
521,9255262980.236053,0.0,11,14,60,2722792.638588244,14,13,20
637,124143752604.7763,0.0,11,14,60,-99999999999999.0, 1, 1,20
649,124143752604.7763,0.0,11,14,60,-99999999999999.0, 1, 1,20
4,151, 5
11,10273953501.975538,99999999999999.0,11,19,10,3341043.079645003,20,13,20
23,998219944.2312367,99999999999999.0, 1, 1,10,663007.0942354925,13,14,10
59,970200000.0,99999999999999.0, 1, 1,10,-99999999999999.0, 1, 8,10
521,9275733557.744358,99999999999999.0,11,14,60,2723463.20441342,20,13,20
637,100947715061.44688,99999999999999.0,11,14,60,-99999999999999.0, 1, 1,20
649,100947715061.44688,99999999999999.0,11,14,60,-99999999999999.0, 1, 1,20
4,181, 6
11,8927003459.114494,99999999999999.0,11,19,10,3342402.1575824665,13,16,20
23,882775528.8386306,99999999999999.0, 1, 1,10,691656.1925082398,10, 9,60
59,856800000.0,99999999999999.0, 1, 1,10,-99999999999999.0, 1, 8,10
521,8044227930.275865,99999999999999.0,11,14,60,2724822.2823508834,13,16,20
637,55828096717.84973,99999999999999.0,11,14,60,-99999999999999.0, 1, 1,20
649,55828096717.84973,99999999999999.0,11,14,60,-99999999999999.0, 1, 1,20
4,212, 7
11,8504918599.272785,99999999999999.0,11,19,10,3346869.263165433, 9, 9,30
23,996790343.0066922,99999999999999.0, 1, 1,10,-99999999999999.0,10, 9,60
59,970200000.0,99999999999999.0, 1, 1,10,-99999999999999.0, 1, 8,10
521,7508128256.266066,99999999999999.0,11,14,60,-99999999999999.0,13,16,20
637,30498394900.861454,99999999999999.0,11,14,60,-99999999999999.0, 1, 1,20
649,30498394900.861454,99999999999999.0,11,14,60,-99999999999999.0, 1, 1,20
4,243, 8
11,8343928438.526569,99999999999999.0,11,19,10,-99999999999999.0, 9, 9,30
23,959433482.619617,99999999999999.0, 1, 1,10,-99999999999999.0,10, 9,60
59,933840000.0,99999999999999.0, 1, 1,10,-99999999999999.0, 1, 8,10
521,7384494955.906897,99999999999999.0,11,14,60,-99999999999999.0,13,16,20
637,48866295494.4372,99999999999999.0,11,14,60,-99999999999999.0, 1, 1,20
649,48866295494.4372,99999999999999.0,11,14,60,-99999999999999.0, 1, 1,20
4,273, 9
11,9829246236.414297,99999999999999.0,11,19,10,-99999999999999.0, 9, 9,30
23,918220090.0707228,99999999999999.0, 1, 1,10,-99999999999999.0,10, 9,60
59,893160000.0,99999999999999.0, 1, 1,10,-99999999999999.0, 1, 8,10
521,8911026146.343555,99999999999999.0,11,14,60,-99999999999999.0,13,16,20
637,83223450610.04178,99999999999999.0,11,14,60,-99999999999999.0, 1, 1,20
649,83223450610.04178,99999999999999.0,11,14,60,-99999999999999.0, 1, 1,20
4,304,10
11,10925004590.824022,99999999999999.0,11,19,10,-99999999999999.0, 9, 9,30
23,995190109.2846354,99999999999999.0, 1, 1,10,-99999999999999.0,10, 9,60
59,970200000.0,99999999999999.0, 1, 1,10,-99999999999999.0, 1, 8,10
521,9929814481.53941,99999999999999.0,11,14,60,-99999999999999.0,13,16,20
637,129926618475.77686,99999999999999.0,11,14,60,-99999999999999.0, 1, 1,20
649,129926618475.77686,99999999999999.0,11,14,60,-99999999999999.0, 1, 1,20
4,334,11
11,10668551410.37947,99999999999999.0,11,19,10,-99999999999999.0, 9, 9,30
23,915417792.6193349,99999999999999.0, 1, 1,10,-99999999999999.0,10, 9,60
59,893160000.0,99999999999999.0, 1, 1,10,-99999999999999.0, 1, 8,10
521,9753133617.76016,99999999999999.0,11,14,60,-99999999999999.0,13,16,20
637,148308822769.92783,99999999999999.0,11,14,60,-99999999999999.0, 1, 1,20
649,148308822769.92783,99999999999999.0,11,14,60,-99999999999999.0, 1, 1,20
4,365,12
11,10445996055.689514,99999999999999.0,11,19,10,-99999999999999.0, 9, 9,30
23,957045435.3057079,99999999999999.0, 1, 1,10,-99999999999999.0,10, 9,60
59,933840000.0,99999999999999.0, 1, 1,10,-99999999999999.0, 1, 8,10
521,9488950620.383821,99999999999999.0,11,14,60,-99999999999999.0,13,16,20
637,179224218245.98865,99999999999999.0,11,14,60,-99999999999999.0, 1, 1,20
649,179224218245.98865,99999999999999.0,11,14,60,-99999999999999.0, 1, 1,20
5,365
13,118348776532.31296,30000.0, 4,11,19,10,3346869.263165433, 7, 9, 9,30
25,11359570004.558615,30000.0, 1, 1, 1,10,691656.1925082398, 6,10, 9,60
61,11066760000.0,30000.0, 1, 1, 1,10,600000.0, 1, 1, 8,10
523,106989206527.75842,0.0, 4,11,14,60,2724822.2823508834, 6,13,16,20
639,1398633217276.2546,0.0, 4,11,14,60,41250000.0, 1, 1, 1,20
651,1398633217276.2546,0.0, 4,11,14,60,41250000.0, 1, 1, 1,20
1,RUN PERIOD 2,  41.98, -87.92,  -6.00, 201.00
4,1, 7
11,235378324.26268747,99999999999999.0,11,19,10,-99999999999999.0, 9, 9,30
23,41734792.51389502,99999999999999.0, 1, 1,10,-99999999999999.0,10, 9,60
59,40680000.0,99999999999999.0, 1, 1,10,-99999999999999.0, 1, 8,10
521,193643531.7487925,99999999999999.0,11,14,60,-99999999999999.0,13,16,20
637,913545599.0741341,99999999999999.0,11,14,60,-99999999999999.0, 1, 1,20
649,913545599.0741341,99999999999999.0,11,14,60,-99999999999999.0, 1, 1,20
5,1
13,235378324.26268747,99999999999999.0, 4,11,19,10,-99999999999999.0, 7, 9, 9,30
25,41734792.51389502,99999999999999.0, 1, 1, 1,10,-99999999999999.0, 6,10, 9,60
61,40680000.0,99999999999999.0, 1, 1, 1,10,-99999999999999.0, 1, 1, 8,10
523,193643531.7487925,99999999999999.0, 4,11,14,60,-99999999999999.0, 6,13,16,20
639,913545599.0741341,99999999999999.0, 4,11,14,60,-99999999999999.0, 1, 1, 1,20
651,913545599.0741341,99999999999999.0, 4,11,14,60,-99999999999999.0, 1, 1, 1,20
End of Data
 Number of Records Written=          90
