Program Version,EnergyPlus, Version 24.2.0-94a887817b, YMD=2025.02.04 15:40
1,5,Environment Title[],Latitude[deg],Longitude[deg],Time Zone[],Elevation[m]
2,8,Day of Simulation[],Month[],Day of Month[],DST Indicator[1=yes 0=no],Hour[],StartMinute[],EndMinute[],DayType
3,5,Cumulative Day of Simulation[],Month[],Day of Month[],DST Indicator[1=yes 0=no],DayType  ! When Daily Meters Requested
4,2,Cumulative Days of Simulation[],Month[]  ! When Monthly Meters Requested
5,1,Cumulative Days of Simulation[] ! When Run Period Meters Requested
6,1,Calendar Year of Simulation[] ! When Annual Meters Requested
11,9,Electricity:Facility [J] !Monthly [Value,Min,Day,Hour,Minute,Max,Day,Hour,Minute]
23,9,Electricity:Building [J] !Monthly [Value,Min,Day,Hour,Minute,Max,Day,Hour,Minute]
59,9,InteriorLights:Electricity [J] !Monthly [Value,Min,Day,Hour,Minute,Max,Day,Hour,Minute]
521,9,Electricity:HVAC [J] !Monthly [Value,Min,Day,Hour,Minute,Max,Day,Hour,Minute]
637,9,NaturalGas:Facility [J] !Monthly [Value,Min,Day,Hour,Minute,Max,Day,Hour,Minute]
649,9,NaturalGas:HVAC [J] !Monthly [Value,Min,Day,Hour,Minute,Max,Day,Hour,Minute]
13,11,Electricity:Facility [J] !RunPeriod [Value,Min,Month,Day,Hour,Minute,Max,Month,Day,Hour,Minute]
25,11,Electricity:Building [J] !RunPeriod [Value,Min,Month,Day,Hour,Minute,Max,Month,Day,Hour,Minute]
61,11,InteriorLights:Electricity [J] !RunPeriod [Value,Min,Month,Day,Hour,Minute,Max,Month,Day,Hour,Minute]
523,11,Electricity:HVAC [J] !RunPeriod [Value,Min,Month,Day,Hour,Minute,Max,Month,Day,Hour,Minute]
639,11,NaturalGas:Facility [J] !RunPeriod [Value,Min,Month,Day,Hour,Minute,Max,Month,Day,Hour,Minute]
651,11,NaturalGas:HVAC [J] !RunPeriod [Value,Min,Month,Day,Hour,Minute,Max,Month,Day,Hour,Minute]
End of Data Dictionary
1,RUN PERIOD 1,  41.98, -87.92,  -6.00, 201.00
4,31, 1
11,9839994061.195208,408891.4285714286, 5, 6,50,2991751.4716395386,16,13,60
23,1000943959.9642166,30000.0, 1, 1,10,622278.2318581138, 1, 9,10
59,970200000.0,30000.0, 1, 1,10,600000.0, 1, 8,10
521,8839050101.230986,378891.4285714286, 5, 6,50,2369473.239781425,16,13,60
637,178898514575.59198,28194247.786911257,21,16,10,41250000.0, 1, 1,10
649,178898514575.59198,28194247.786911257,21,16,10,41250000.0, 1, 1,10
4,59, 2
11,9371269999.293608,99999999999999.0, 5, 6,50,3033212.911902661,22,15,30
23,874893878.2297525,99999999999999.0, 1, 1,10,-99999999999999.0, 1, 9,10
59,848160000.0,99999999999999.0, 1, 1,10,-99999999999999.0, 1, 8,10
521,8496376121.063895,99999999999999.0, 5, 6,50,2410934.680044547,22,15,30
637,158255644800.35043,26507812.83286884,23,12,10,-99999999999999.0, 1, 1,10
649,158255644800.35043,26507812.83286884,23,12,10,-99999999999999.0, 1, 1,10
4,90, 3
11,10955373052.811615,322278.2318581138,27,18,10,3167205.2050633864,27,13,40
23,925550572.1412406,99999999999999.0, 1, 1,10,-99999999999999.0, 1, 9,10
59,897480000.0,99999999999999.0, 1, 1,10,-99999999999999.0, 1, 8,10
521,10029822480.670374,0.0,27,13,50,2544926.9732052726,27,13,40
637,161959557618.03592,0.0,27,13,50,-99999999999999.0, 1, 1,10
649,161959557618.03592,0.0,27,13,50,-99999999999999.0, 1, 1,10
4,120, 4
11,9356691977.60963,30000.0,11,19,10,-99999999999999.0,27,13,40
23,958927266.0527285,99999999999999.0, 1, 1,10,-99999999999999.0, 1, 9,10
59,929520000.0,99999999999999.0, 1, 1,10,-99999999999999.0, 1, 8,10
521,8397764711.556907,99999999999999.0,27,13,50,-99999999999999.0,27,13,40
637,118350002765.94435,99999999999999.0,27,13,50,-99999999999999.0, 1, 1,10
649,118350002765.94435,99999999999999.0,27,13,50,-99999999999999.0, 1, 1,10
4,151, 5
11,8360601230.5244875,99999999999999.0,11,19,10,-99999999999999.0,27,13,40
23,1001205420.6885198,99999999999999.0, 1, 1,10,638178.2676759954,28,13,10
59,970200000.0,99999999999999.0, 1, 1,10,-99999999999999.0, 1, 8,10
521,7359395809.835909,99999999999999.0,27,13,50,-99999999999999.0,27,13,40
637,86548815492.49435,99999999999999.0,27,13,50,-99999999999999.0, 1, 1,10
649,86548815492.49435,99999999999999.0,27,13,50,-99999999999999.0, 1, 1,10
4,181, 6
11,5830305099.598843,99999999999999.0,11,19,10,3171915.889206649,18,16,60
23,883573138.8818971,99999999999999.0, 1, 1,10,-99999999999999.0,28,13,10
59,856800000.0,99999999999999.0, 1, 1,10,-99999999999999.0, 1, 8,10
521,4946731960.716941,99999999999999.0,27,13,50,2557325.511907834, 4, 3,40
637,34233975804.92123,99999999999999.0,27,13,50,-99999999999999.0, 1, 1,10
649,34233975804.92123,99999999999999.0,27,13,50,-99999999999999.0, 1, 1,10
4,212, 7
11,5578459417.483832,99999999999999.0,11,19,10,3172120.3665319155, 1,13,60
23,1001202184.011113,99999999999999.0, 1, 1,10,-99999999999999.0,28,13,10
59,970200000.0,99999999999999.0, 1, 1,10,-99999999999999.0, 1, 8,10
521,4577257233.472738,99999999999999.0,27,13,50,-99999999999999.0, 4, 3,40
637,9593629680.828672,99999999999999.0,27,13,50,-99999999999999.0, 1, 1,10
649,9593629680.828672,99999999999999.0,27,13,50,-99999999999999.0, 1, 1,10
4,243, 8
11,4498993195.488231,99999999999999.0,11,19,10,-99999999999999.0, 1,13,60
23,963508061.2517297,99999999999999.0, 1, 1,10,638283.7039742535,12,14,10
59,933840000.0,99999999999999.0, 1, 1,10,-99999999999999.0, 1, 8,10
521,3535485134.236471,99999999999999.0,27,13,50,-99999999999999.0, 4, 3,40
637,20117506514.540638,99999999999999.0,27,13,50,-99999999999999.0, 1, 1,10
649,20117506514.540638,99999999999999.0,27,13,50,-99999999999999.0, 1, 1,10
4,273, 9
11,5883199638.795296,99999999999999.0,11,19,10,3180115.2425332232,19,11,40
23,921249210.4924276,99999999999999.0, 1, 1,10,-99999999999999.0,12,14,10
59,893160000.0,99999999999999.0, 1, 1,10,-99999999999999.0, 1, 8,10
521,4961950428.302844,99999999999999.0,27,13,50,2557837.0106751095,19,11,40
637,52420784886.40052,99999999999999.0,27,13,50,-99999999999999.0, 1, 1,10
649,52420784886.40052,99999999999999.0,27,13,50,-99999999999999.0, 1, 1,10
4,304,10
11,10284209012.35585,99999999999999.0,11,19,10,-99999999999999.0,19,11,40
23,1000943959.9642166,99999999999999.0, 1, 1,10,-99999999999999.0,12,14,10
59,970200000.0,99999999999999.0, 1, 1,10,-99999999999999.0, 1, 8,10
521,9283265052.391651,99999999999999.0,27,13,50,-99999999999999.0,19,11,40
637,125583478064.36026,99999999999999.0,27,13,50,-99999999999999.0, 1, 1,10
649,125583478064.36026,99999999999999.0,27,13,50,-99999999999999.0, 1, 1,10
4,334,11
11,10334867747.634325,99999999999999.0,11,19,10,-99999999999999.0,19,11,40
23,921230572.1412406,99999999999999.0, 1, 1,10,-99999999999999.0,12,14,10
59,893160000.0,99999999999999.0, 1, 1,10,-99999999999999.0, 1, 8,10
521,9413637175.493116,99999999999999.0,27,13,50,-99999999999999.0,19,11,40
637,146168272831.05856,99999999999999.0,27,13,50,-99999999999999.0, 1, 1,10
649,146168272831.05856,99999999999999.0,27,13,50,-99999999999999.0, 1, 1,10
4,365,12
11,10452197886.436533,99999999999999.0,11,19,10,-99999999999999.0,19,11,40
23,963247266.0527285,99999999999999.0, 1, 1,10,-99999999999999.0,12,14,10
59,933840000.0,99999999999999.0, 1, 1,10,-99999999999999.0, 1, 8,10
521,9488950620.383821,99999999999999.0,27,13,50,-99999999999999.0,19,11,40
637,179726463557.8902,99999999999999.0,27,13,50,-99999999999999.0, 1, 1,10
649,179726463557.8902,99999999999999.0,27,13,50,-99999999999999.0, 1, 1,10
5,365
13,100746162319.22911,30000.0, 4,11,19,10,3180115.2425332232, 9,19,11,40
25,11416475489.869543,30000.0, 1, 1, 1,10,638283.7039742535, 8,12,14,10
61,11066760000.0,30000.0, 1, 1, 1,10,600000.0, 1, 1, 8,10
523,89329686829.36012,0.0, 3,27,13,50,2557837.0106751095, 9,19,11,40
639,1271856646592.4153,0.0, 3,27,13,50,41250000.0, 1, 1, 1,10
651,1271856646592.4153,0.0, 3,27,13,50,41250000.0, 1, 1, 1,10
1,RUN PERIOD 2,  41.98, -87.92,  -6.00, 201.00
4,1, 7
11,112096435.61676332,99999999999999.0,11,19,10,-99999999999999.0,19,11,40
23,42016693.91148675,99999999999999.0, 1, 1,10,-99999999999999.0,12,14,10
59,40680000.0,99999999999999.0, 1, 1,10,-99999999999999.0, 1, 8,10
521,70079741.70527647,99999999999999.0,27,13,50,-99999999999999.0,19,11,40
637,0.0,99999999999999.0,27,13,50,-99999999999999.0, 1, 1,10
649,0.0,99999999999999.0,27,13,50,-99999999999999.0, 1, 1,10
5,1
13,112096435.61676332,99999999999999.0, 4,11,19,10,-99999999999999.0, 9,19,11,40
25,42016693.91148675,99999999999999.0, 1, 1, 1,10,-99999999999999.0, 8,12,14,10
61,40680000.0,99999999999999.0, 1, 1, 1,10,-99999999999999.0, 1, 1, 8,10
523,70079741.70527647,99999999999999.0, 3,27,13,50,-99999999999999.0, 9,19,11,40
639,0.0,99999999999999.0, 3,27,13,50,-99999999999999.0, 1, 1, 1,10
651,0.0,99999999999999.0, 3,27,13,50,-99999999999999.0, 1, 1, 1,10
End of Data
 Number of Records Written=          90
