Program Version,EnergyPlus, Version 24.2.0-94a887817b, YMD=2025.01.22 00:05
1,5,Environment Title[],Latitude[deg],Longitude[deg],Time Zone[],Elevation[m]
2,8,Day of Simulation[],Month[],Day of Month[],DST Indicator[1=yes 0=no],Hour[],StartMinute[],EndMinute[],DayType
3,5,Cumulative Day of Simulation[],Month[],Day of Month[],DST Indicator[1=yes 0=no],DayType  ! When Daily Meters Requested
4,2,Cumulative Days of Simulation[],Month[]  ! When Monthly Meters Requested
5,1,Cumulative Days of Simulation[] ! When Run Period Meters Requested
6,1,Calendar Year of Simulation[] ! When Annual Meters Requested
11,9,Electricity:Facility [J] !Monthly [Value,Min,Day,Hour,Minute,Max,Day,Hour,Minute]
23,9,Electricity:Building [J] !Monthly [Value,Min,Day,Hour,Minute,Max,Day,Hour,Minute]
59,9,InteriorLights:Electricity [J] !Monthly [Value,Min,Day,Hour,Minute,Max,Day,Hour,Minute]
521,9,Electricity:HVAC [J] !Monthly [Value,Min,Day,Hour,Minute,Max,Day,Hour,Minute]
637,9,NaturalGas:Facility [J] !Monthly [Value,Min,Day,Hour,Minute,Max,Day,Hour,Minute]
649,9,NaturalGas:HVAC [J] !Monthly [Value,Min,Day,Hour,Minute,Max,Day,Hour,Minute]
13,11,Electricity:Facility [J] !RunPeriod [Value,Min,Month,Day,Hour,Minute,Max,Month,Day,Hour,Minute]
25,11,Electricity:Building [J] !RunPeriod [Value,Min,Month,Day,Hour,Minute,Max,Month,Day,Hour,Minute]
61,11,InteriorLights:Electricity [J] !RunPeriod [Value,Min,Month,Day,Hour,Minute,Max,Month,Day,Hour,Minute]
523,11,Electricity:HVAC [J] !RunPeriod [Value,Min,Month,Day,Hour,Minute,Max,Month,Day,Hour,Minute]
639,11,NaturalGas:Facility [J] !RunPeriod [Value,Min,Month,Day,Hour,Minute,Max,Month,Day,Hour,Minute]
651,11,NaturalGas:HVAC [J] !RunPeriod [Value,Min,Month,Day,Hour,Minute,Max,Month,Day,Hour,Minute]
End of Data Dictionary
1,RUN PERIOD 1,  41.98, -87.92,  -6.00, 201.00
4,31, 1
11,9827610032.477575,408891.4285714286, 5, 6,50,2982777.5377861992,16,13,60
23,988559931.246561,30000.0, 1, 1,10,613304.2980047746, 1, 9,10
59,970200000.0,30000.0, 1, 1,10,600000.0, 1, 8,10
521,8839050101.230986,378891.4285714286, 5, 6,50,2369473.239781425,16,13,60
637,178726942752.14676,28111042.82010142,21,16,10,41250000.0, 1, 1,10
649,178726942752.14676,28111042.82010142,21,16,10,41250000.0, 1, 1,10
4,59, 2
11,9360501278.66959,99999999999999.0, 5, 6,50,3024238.9780493216,22,15,30
23,864125157.6057065,99999999999999.0, 1, 1,10,-99999999999999.0, 1, 9,10
59,848160000.0,99999999999999.0, 1, 1,10,-99999999999999.0, 1, 8,10
521,8496376121.063895,99999999999999.0, 5, 6,50,2410934.680044547,22,15,30
637,158044190358.6216,26427412.598745413,23,12,10,-99999999999999.0, 1, 1,10
649,158044190358.6216,26427412.598745413,23,12,10,-99999999999999.0, 1, 1,10
4,90, 3
11,10942870712.880516,313304.2980047746,27,18,10,3141550.395234067,27,13,30
23,914243415.4859912,99999999999999.0, 1, 1,10,-99999999999999.0, 1, 9,10
59,897480000.0,99999999999999.0, 1, 1,10,-99999999999999.0, 1, 8,10
521,10028627297.39448,0.0,27,13,50,2528246.0972292926,27,13,30
637,161565975551.98264,0.0,27,13,50,-99999999999999.0, 1, 1,10
649,161565975551.98264,0.0,27,13,50,-99999999999999.0, 1, 1,10
4,120, 4
11,9109752244.176794,30000.0,11,19,10,-99999999999999.0,27,13,30
23,947081673.3662763,99999999999999.0, 1, 1,10,-99999999999999.0, 1, 9,10
59,929520000.0,99999999999999.0, 1, 1,10,-99999999999999.0, 1, 8,10
521,8162670570.810473,99999999999999.0,27,13,50,2528758.7599533466,14,10,50
637,118020080807.46913,99999999999999.0,27,13,50,-99999999999999.0, 1, 1,10
649,118020080807.46913,99999999999999.0,27,13,50,-99999999999999.0, 1, 1,10
4,151, 5
11,7992856162.670725,99999999999999.0,11,19,10,3147221.1855980363, 3, 9,40
23,988820206.1014297,99999999999999.0, 1, 1,10,629186.9849867488,28,13,10
59,970200000.0,99999999999999.0, 1, 1,10,-99999999999999.0, 1, 8,10
521,7004035956.569067,99999999999999.0,27,13,50,2537645.7106401855,19,13,50
637,86231124810.71278,99999999999999.0,27,13,50,-99999999999999.0, 1, 1,10
649,86231124810.71278,99999999999999.0,27,13,50,-99999999999999.0, 1, 1,10
4,181, 6
11,5054820743.758599,99999999999999.0,11,19,10,3158863.398368461,18,16,50
23,872851564.6029224,99999999999999.0, 1, 1,10,-99999999999999.0,28,13,10
59,856800000.0,99999999999999.0, 1, 1,10,-99999999999999.0, 1, 8,10
521,4181969179.155651,99999999999999.0,27,13,50,2545957.124285517, 4, 3,30
637,34042444744.661545,99999999999999.0,27,13,50,-99999999999999.0, 1, 1,10
649,34042444744.661545,99999999999999.0,27,13,50,-99999999999999.0, 1, 1,10
4,212, 7
11,3927981350.5793405,99999999999999.0,11,19,10,3159147.004296315, 1,13,50
23,988832572.3300673,99999999999999.0, 1, 1,10,-99999999999999.0,28,13,10
59,970200000.0,99999999999999.0, 1, 1,10,-99999999999999.0, 1, 8,10
521,2939148778.24924,99999999999999.0,27,13,50,-99999999999999.0, 4, 3,30
637,9526442673.166014,99999999999999.0,27,13,50,-99999999999999.0, 1, 1,10
649,9526442673.166014,99999999999999.0,27,13,50,-99999999999999.0, 1, 1,10
4,243, 8
11,3379904652.964074,99999999999999.0,11,19,10,-99999999999999.0, 1,13,50
23,951680463.0230279,99999999999999.0, 1, 1,10,629376.4257553628,12,14,10
59,933840000.0,99999999999999.0, 1, 1,10,-99999999999999.0, 1, 8,10
521,2428224189.941082,99999999999999.0,27,13,50,-99999999999999.0, 4, 3,30
637,20003080349.39258,99999999999999.0,27,13,50,-99999999999999.0, 1, 1,10
649,20003080349.39258,99999999999999.0,27,13,50,-99999999999999.0, 1, 1,10
4,273, 9
11,5538097955.8873625,99999999999999.0,11,19,10,3163709.1447320664,25,12,60
23,909942154.3103472,99999999999999.0, 1, 1,10,-99999999999999.0,12,14,10
59,893160000.0,99999999999999.0, 1, 1,10,-99999999999999.0, 1, 8,10
521,4628155801.576958,99999999999999.0,27,13,50,2551020.0851052036,29,15,60
637,52164870458.65298,99999999999999.0,27,13,50,-99999999999999.0, 1, 1,10
649,52164870458.65298,99999999999999.0,27,13,50,-99999999999999.0, 1, 1,10
4,304,10
11,10262372155.674707,99999999999999.0,11,19,10,-99999999999999.0,25,12,60
23,988559931.246561,99999999999999.0, 1, 1,10,-99999999999999.0,12,14,10
59,970200000.0,99999999999999.0, 1, 1,10,-99999999999999.0, 1, 8,10
521,9273812224.428085,99999999999999.0,27,13,50,-99999999999999.0,29,15,60
637,125162822211.78653,99999999999999.0,27,13,50,-99999999999999.0, 1, 1,10
649,125162822211.78653,99999999999999.0,27,13,50,-99999999999999.0, 1, 1,10
4,334,11
11,10318690384.269108,99999999999999.0,11,19,10,-99999999999999.0,25,12,60
23,909923415.4859912,99999999999999.0, 1, 1,10,-99999999999999.0,12,14,10
59,893160000.0,99999999999999.0, 1, 1,10,-99999999999999.0, 1, 8,10
521,9408766968.783087,99999999999999.0,27,13,50,-99999999999999.0,29,15,60
637,145838397097.50604,99999999999999.0,27,13,50,-99999999999999.0, 1, 1,10
649,145838397097.50604,99999999999999.0,27,13,50,-99999999999999.0, 1, 1,10
4,365,12
11,10440352293.750113,99999999999999.0,11,19,10,-99999999999999.0,25,12,60
23,951401673.366276,99999999999999.0, 1, 1,10,-99999999999999.0,12,14,10
59,933840000.0,99999999999999.0, 1, 1,10,-99999999999999.0, 1, 8,10
521,9488950620.383821,99999999999999.0,27,13,50,-99999999999999.0,29,15,60
637,179542524515.14716,99999999999999.0,27,13,50,-99999999999999.0, 1, 1,10
649,179542524515.14716,99999999999999.0,27,13,50,-99999999999999.0, 1, 1,10
5,365
13,96155809967.759,30000.0, 4,11,19,10,3163709.1447320664, 9,25,12,60
25,11276022158.17077,30000.0, 1, 1, 1,10,629376.4257553628, 8,12,14,10
61,11066760000.0,30000.0, 1, 1, 1,10,600000.0, 1, 1, 8,10
523,84879787809.5911,0.0, 3,27,13,50,2551020.0851052036, 9,29,15,60
639,1268868896331.2441,0.0, 3,27,13,50,41250000.0, 1, 1, 1,10
651,1268868896331.2441,0.0, 3,27,13,50,41250000.0, 1, 1, 1,10
1,RUN PERIOD 2,  41.98, -87.92,  -6.00, 201.00
4,1, 7
11,41478257.88028654,99999999999999.0,11,19,10,-99999999999999.0,25,12,60
23,41478257.88028654,99999999999999.0, 1, 1,10,-99999999999999.0,12,14,10
59,40680000.0,99999999999999.0, 1, 1,10,-99999999999999.0, 1, 8,10
521,0.0,99999999999999.0,27,13,50,-99999999999999.0,29,15,60
637,0.0,99999999999999.0,27,13,50,-99999999999999.0, 1, 1,10
649,0.0,99999999999999.0,27,13,50,-99999999999999.0, 1, 1,10
5,1
13,41478257.88028654,99999999999999.0, 4,11,19,10,-99999999999999.0, 9,25,12,60
25,41478257.88028654,99999999999999.0, 1, 1, 1,10,-99999999999999.0, 8,12,14,10
61,40680000.0,99999999999999.0, 1, 1, 1,10,-99999999999999.0, 1, 1, 8,10
523,0.0,99999999999999.0, 3,27,13,50,-99999999999999.0, 9,29,15,60
639,0.0,99999999999999.0, 3,27,13,50,-99999999999999.0, 1, 1, 1,10
651,0.0,99999999999999.0, 3,27,13,50,-99999999999999.0, 1, 1, 1,10
End of Data
 Number of Records Written=          90
