Program Version,EnergyPlus, Version 24.2.0-94a887817b, YMD=2025.01.30 19:35
1,5,Environment Title[],Latitude[deg],Longitude[deg],Time Zone[],Elevation[m]
2,8,Day of Simulation[],Month[],Day of Month[],DST Indicator[1=yes 0=no],Hour[],StartMinute[],EndMinute[],DayType
3,5,Cumulative Day of Simulation[],Month[],Day of Month[],DST Indicator[1=yes 0=no],DayType  ! When Daily Meters Requested
4,2,Cumulative Days of Simulation[],Month[]  ! When Monthly Meters Requested
5,1,Cumulative Days of Simulation[] ! When Run Period Meters Requested
6,1,Calendar Year of Simulation[] ! When Annual Meters Requested
11,9,Electricity:Facility [J] !Monthly [Value,Min,Day,Hour,Minute,Max,Day,Hour,Minute]
23,9,Electricity:Building [J] !Monthly [Value,Min,Day,Hour,Minute,Max,Day,Hour,Minute]
59,9,InteriorLights:Electricity [J] !Monthly [Value,Min,Day,Hour,Minute,Max,Day,Hour,Minute]
521,9,Electricity:HVAC [J] !Monthly [Value,Min,Day,Hour,Minute,Max,Day,Hour,Minute]
637,9,NaturalGas:Facility [J] !Monthly [Value,Min,Day,Hour,Minute,Max,Day,Hour,Minute]
649,9,NaturalGas:HVAC [J] !Monthly [Value,Min,Day,Hour,Minute,Max,Day,Hour,Minute]
13,11,Electricity:Facility [J] !RunPeriod [Value,Min,Month,Day,Hour,Minute,Max,Month,Day,Hour,Minute]
25,11,Electricity:Building [J] !RunPeriod [Value,Min,Month,Day,Hour,Minute,Max,Month,Day,Hour,Minute]
61,11,InteriorLights:Electricity [J] !RunPeriod [Value,Min,Month,Day,Hour,Minute,Max,Month,Day,Hour,Minute]
523,11,Electricity:HVAC [J] !RunPeriod [Value,Min,Month,Day,Hour,Minute,Max,Month,Day,Hour,Minute]
639,11,NaturalGas:Facility [J] !RunPeriod [Value,Min,Month,Day,Hour,Minute,Max,Month,Day,Hour,Minute]
651,11,NaturalGas:HVAC [J] !RunPeriod [Value,Min,Month,Day,Hour,Minute,Max,Month,Day,Hour,Minute]
End of Data Dictionary
1,RUN PERIOD 1,  41.98, -87.92,  -6.00, 201.00
4,31, 1
11,9817514310.152046,408891.4285714286, 5, 6,50,2975461.7969706003,16,13,60
23,978464208.9210892,30000.0, 1, 1,10,605988.5571891755, 1, 9,10
59,970200000.0,30000.0, 1, 1,10,600000.0, 1, 8,10
521,8839050101.230986,378891.4285714286, 5, 6,50,2369473.239781425,16,13,60
637,179184054264.27472,28339638.34824068,21,16,10,41250000.0, 1, 1,10
649,179184054264.27472,28339638.34824068,21,16,10,41250000.0, 1, 1,10
4,59, 2
11,9351722389.690874,99999999999999.0, 5, 6,50,3016923.2372337226,22,15,30
23,855346268.6270293,99999999999999.0, 1, 1,10,-99999999999999.0, 1, 9,10
59,848160000.0,99999999999999.0, 1, 1,10,-99999999999999.0, 1, 8,10
521,8496376121.063895,99999999999999.0, 5, 6,50,2410934.680044547,22,15,30
637,158611796440.36795,26648068.74211848,23,12,10,-99999999999999.0, 1, 1,10
649,158611796440.36795,26648068.74211848,23,12,10,-99999999999999.0, 1, 1,10
4,90, 3
11,10955143594.252508,99999999999999.0, 5, 6,50,3207582.590047465,27,14,40
23,905025582.0583829,99999999999999.0, 1, 1,10,-99999999999999.0, 1, 9,10
59,897480000.0,99999999999999.0, 1, 1,10,-99999999999999.0, 1, 8,10
521,10050118012.194077,0.0,27,14,50,2601594.03285829,27,14,40
637,162780266216.45068,0.0,27,14,50,-99999999999999.0, 1, 1,10
649,162780266216.45068,0.0,27,14,50,-99999999999999.0, 1, 1,10
4,120, 4
11,9424349201.009586,30000.0,11,19,10,-99999999999999.0,27,14,40
23,937424895.4897356,99999999999999.0, 1, 1,10,-99999999999999.0, 1, 9,10
59,929520000.0,99999999999999.0, 1, 1,10,-99999999999999.0, 1, 8,10
521,8486924305.519933,99999999999999.0,27,14,50,-99999999999999.0,27,14,40
637,119558470314.26537,99999999999999.0,27,14,50,-99999999999999.0, 1, 1,10
649,119558470314.26537,99999999999999.0,27,14,50,-99999999999999.0, 1, 1,10
4,151, 5
11,8718957719.104172,99999999999999.0,11,19,10,-99999999999999.0,27,14,40
23,978725670.9063843,99999999999999.0, 1, 1,10,621919.0991092137,28,13,10
59,970200000.0,99999999999999.0, 1, 1,10,-99999999999999.0, 1, 8,10
521,7740232048.197856,99999999999999.0,27,14,50,-99999999999999.0,27,14,40
637,90243757307.32167,99999999999999.0,27,14,50,-99999999999999.0, 1, 1,10
649,90243757307.32167,99999999999999.0,27,14,50,-99999999999999.0, 1, 1,10
4,181, 6
11,6581990111.077079,99999999999999.0,11,19,10,-99999999999999.0,27,14,40
23,864025487.3021942,99999999999999.0, 1, 1,10,-99999999999999.0,28,13,10
59,856800000.0,99999999999999.0, 1, 1,10,-99999999999999.0, 1, 8,10
521,5717964623.774957,99999999999999.0,27,14,50,-99999999999999.0,27,14,40
637,39957144346.285545,99999999999999.0,27,14,50,-99999999999999.0, 1, 1,10
649,39957144346.285545,99999999999999.0,27,14,50,-99999999999999.0, 1, 1,10
4,212, 7
11,5954227868.074521,99999999999999.0,11,19,10,-99999999999999.0,27,14,40
23,978722316.2689714,99999999999999.0, 1, 1,10,-99999999999999.0,28,13,10
59,970200000.0,99999999999999.0, 1, 1,10,-99999999999999.0, 1, 8,10
521,4975505551.805577,99999999999999.0,27,14,50,-99999999999999.0,27,14,40
637,12388955859.797773,99999999999999.0,27,14,50,-99999999999999.0, 1, 1,10
649,12388955859.797773,99999999999999.0,27,14,50,-99999999999999.0, 1, 1,10
4,243, 8
11,5122968450.56976,99999999999999.0,11,19,10,-99999999999999.0,27,14,40
23,942023136.6845076,99999999999999.0, 1, 1,10,622017.4048843369,12,14,10
59,933840000.0,99999999999999.0, 1, 1,10,-99999999999999.0, 1, 8,10
521,4180945313.8853664,99999999999999.0,27,14,50,-99999999999999.0,27,14,40
637,25104445695.50829,99999999999999.0,27,14,50,-99999999999999.0, 1, 1,10
649,25104445695.50829,99999999999999.0,27,14,50,-99999999999999.0, 1, 1,10
4,273, 9
11,6653454298.20699,99999999999999.0,11,19,10,-99999999999999.0,27,14,40
23,900705582.0583824,99999999999999.0, 1, 1,10,-99999999999999.0,12,14,10
59,893160000.0,99999999999999.0, 1, 1,10,-99999999999999.0, 1, 8,10
521,5752748716.148701,99999999999999.0,27,14,50,-99999999999999.0,27,14,40
637,59559834977.43762,99999999999999.0,27,14,50,-99999999999999.0, 1, 1,10
649,59559834977.43762,99999999999999.0,27,14,50,-99999999999999.0, 1, 1,10
4,304,10
11,10462877601.572073,99999999999999.0,11,19,10,3207670.898635125,30,14,40
23,978464208.9210892,99999999999999.0, 1, 1,10,-99999999999999.0,12,14,10
59,970200000.0,99999999999999.0, 1, 1,10,-99999999999999.0, 1, 8,10
521,9484413392.651031,99999999999999.0,27,14,50,2601682.3414459494,30,14,40
637,128106461638.21602,99999999999999.0,27,14,50,-99999999999999.0, 1, 1,10
649,128106461638.21602,99999999999999.0,27,14,50,-99999999999999.0, 1, 1,10
4,334,11
11,10391143832.978199,99999999999999.0,11,19,10,-99999999999999.0,30,14,40
23,900705582.0583829,99999999999999.0, 1, 1,10,-99999999999999.0,12,14,10
59,893160000.0,99999999999999.0, 1, 1,10,-99999999999999.0, 1, 8,10
521,9490438250.919844,99999999999999.0,27,14,50,-99999999999999.0,30,14,40
637,147417396348.44583,99999999999999.0,27,14,50,-99999999999999.0, 1, 1,10
649,147417396348.44583,99999999999999.0,27,14,50,-99999999999999.0, 1, 1,10
4,365,12
11,10430695515.873526,99999999999999.0,11,19,10,-99999999999999.0,30,14,40
23,941744895.489736,99999999999999.0, 1, 1,10,-99999999999999.0,12,14,10
59,933840000.0,99999999999999.0, 1, 1,10,-99999999999999.0, 1, 8,10
521,9488950620.383821,99999999999999.0,27,14,50,-99999999999999.0,30,14,40
637,180038040286.3484,99999999999999.0,27,14,50,-99999999999999.0, 1, 1,10
649,180038040286.3484,99999999999999.0,27,14,50,-99999999999999.0, 1, 1,10
5,365
13,103865044892.57022,30000.0, 4,11,19,10,3207670.898635125,10,30,14,40
25,11161377834.786789,30000.0, 1, 1, 1,10,622017.4048843369, 8,12,14,10
61,11066760000.0,30000.0, 1, 1, 1,10,600000.0, 1, 1, 8,10
523,92703667057.78075,0.0, 3,27,14,50,2601682.3414459494,10,30,14,40
639,1302950623694.726,0.0, 3,27,14,50,41250000.0, 1, 1, 1,10
651,1302950623694.726,0.0, 3,27,14,50,41250000.0, 1, 1, 1,10
1,RUN PERIOD 2,  41.98, -87.92,  -6.00, 201.00
4,1, 7
11,113196525.19451295,99999999999999.0,11,19,10,-99999999999999.0,30,14,40
23,41039313.43135048,99999999999999.0, 1, 1,10,-99999999999999.0,12,14,10
59,40680000.0,99999999999999.0, 1, 1,10,-99999999999999.0, 1, 8,10
521,72157211.76316237,99999999999999.0,27,14,50,-99999999999999.0,30,14,40
637,0.0,99999999999999.0,27,14,50,-99999999999999.0, 1, 1,10
649,0.0,99999999999999.0,27,14,50,-99999999999999.0, 1, 1,10
5,1
13,113196525.19451295,99999999999999.0, 4,11,19,10,-99999999999999.0,10,30,14,40
25,41039313.43135048,99999999999999.0, 1, 1, 1,10,-99999999999999.0, 8,12,14,10
61,40680000.0,99999999999999.0, 1, 1, 1,10,-99999999999999.0, 1, 1, 8,10
523,72157211.76316237,99999999999999.0, 3,27,14,50,-99999999999999.0,10,30,14,40
639,0.0,99999999999999.0, 3,27,14,50,-99999999999999.0, 1, 1, 1,10
651,0.0,99999999999999.0, 3,27,14,50,-99999999999999.0, 1, 1, 1,10
End of Data
 Number of Records Written=          90
