Program Version,EnergyPlus, Version 24.1.0-9d7789a3ac, YMD=2024.10.18 13:35
1,5,Environment Title[],Latitude[deg],Longitude[deg],Time Zone[],Elevation[m]
2,8,Day of Simulation[],Month[],Day of Month[],DST Indicator[1=yes 0=no],Hour[],StartMinute[],EndMinute[],DayType
3,5,Cumulative Day of Simulation[],Month[],Day of Month[],DST Indicator[1=yes 0=no],DayType  ! When Daily Report Variables Requested
4,2,Cumulative Days of Simulation[],Month[]  ! When Monthly Report Variables Requested
5,1,Cumulative Days of Simulation[] ! When Run Period Report Variables Requested
6,1,Calendar Year of Simulation[] ! When Annual Report Variables Requested
250,1,LIVING ZONE,Zone Air Temperature [C] !TimeStep,REPORTSCH
251,1,LIVING ZONE,Zone Air System Sensible Heating Energy [J] !TimeStep,REPORTSCH
336,1,LIVING ZONE,Zone Air System Sensible Cooling Energy [J] !TimeStep,REPORTSCH
385,1,LIVING ZONE,Zone Thermostat Heating Setpoint Temperature [C] !TimeStep,REPORTSCH
386,1,LIVING ZONE,Zone Thermostat Cooling Setpoint Temperature [C] !TimeStep,REPORTSCH
387,1,GARAGE ZONE,Zone Air Temperature [C] !TimeStep,REPORTSCH
388,1,GARAGE ZONE,Zone Air System Sensible Heating Energy [J] !TimeStep,REPORTSCH
425,1,GARAGE ZONE,Zone Air System Sensible Cooling Energy [J] !TimeStep,REPORTSCH
450,1,GARAGE ZONE,Zone Thermostat Heating Setpoint Temperature [C] !TimeStep,REPORTSCH
451,1,GARAGE ZONE,Zone Thermostat Cooling Setpoint Temperature [C] !TimeStep,REPORTSCH
452,1,ATTIC ZONE,Zone Air Temperature [C] !TimeStep,REPORTSCH
453,1,ATTIC ZONE,Zone Air System Sensible Heating Energy [J] !TimeStep,REPORTSCH
490,1,ATTIC ZONE,Zone Air System Sensible Cooling Energy [J] !TimeStep,REPORTSCH
515,1,ATTIC ZONE,Zone Thermostat Heating Setpoint Temperature [C] !TimeStep,REPORTSCH
516,1,ATTIC ZONE,Zone Thermostat Cooling Setpoint Temperature [C] !TimeStep,REPORTSCH
542,1,ACDXCOIL 1,Cooling Coil Total Cooling Energy [J] !TimeStep,REPORTSCH
592,1,HEAT PUMP DX HEATING COIL 1,Heating Coil Heating Energy [J] !TimeStep,REPORTSCH
632,1,SUPP HEATING COIL 1,Heating Coil Heating Energy [J] !TimeStep,REPORTSCH
686,1,TWOSPEED HEAT PUMP 1,Unitary System DX Coil Cycling Ratio [] !TimeStep,REPORTSCH
687,1,TWOSPEED HEAT PUMP 1,Unitary System DX Coil Speed Ratio [] !TimeStep,REPORTSCH
688,1,TWOSPEED HEAT PUMP 1,Unitary System DX Coil Speed Level [] !TimeStep
End of Data Dictionary
1,CHICAGO_IL_USA ANNUAL HEATING 99% DESIGN CONDITIONS DB,  41.98, -87.92,  -6.00, 201.00
2,1, 1,21, 0, 1, 0.00,10.00,WinterDesignDay
250,19.39895104311505
251,14616424.94424414
336,0.0
385,19.64765396612372
386,26.41896829352759
387,-17.616098296249575
388,0.0
425,0.0
450,0.0
451,0.0
452,-18.300068145238804
453,0.0
490,0.0
515,0.0
516,0.0
542,0.0
592,0.0
632,14283543.43628447
686,1.0
687,1.0
688,2.0
2,1, 1,21, 0, 1,10.00,20.00,WinterDesignDay
250,19.686606613436307
251,13320983.9398649
336,0.0
385,19.64765396612372
386,26.41896829352759
387,-17.616110824292065
388,0.0
425,0.0
450,0.0
451,0.0
452,-18.300188176417862
453,0.0
490,0.0
515,0.0
516,0.0
542,0.0
592,0.0
632,12911411.339311965
686,1.0
687,1.0
688,2.0
2,1, 1,21, 0, 1,20.00,30.00,WinterDesignDay
250,19.92449569234325
251,14371828.168970458
336,0.0
385,20.314320632790388
386,26.41896829352759
387,-17.616015000646282
388,0.0
425,0.0
450,0.0
451,0.0
452,-18.30014961337169
453,0.0
490,0.0
515,0.0
516,0.0
542,0.0
592,0.0
632,14846753.981126498
686,1.0
687,1.0
688,2.0
2,1, 1,21, 0, 1,30.00,40.00,WinterDesignDay
250,20.279388874118503
251,15410229.115040872
336,0.0
385,20.314320632790388
386,26.41896829352759
387,-17.616004125437982
388,0.0
425,0.0
450,0.0
451,0.0
452,-18.30000460277595
453,0.0
490,0.0
515,0.0
516,0.0
542,0.0
592,0.0
632,15253325.132132854
686,1.0
687,1.0
688,2.0
2,1, 1,21, 0, 1,40.00,50.00,WinterDesignDay
250,19.398951041210417
251,14616424.976959871
336,0.0
385,19.64765396612369
386,26.418968293527552
387,-17.616103176159342
388,0.0
425,0.0
450,0.0
451,0.0
452,-18.300068606074166
453,0.0
490,0.0
515,0.0
516,0.0
542,0.0
592,0.0
632,14283543.468505418
686,0.9999999999999986
687,0.9999999999999986
688,1.9999999999999971
2,1, 1,21, 0, 1,50.00,60.00,WinterDesignDay
250,19.686606613338306
251,13320983.979925893
336,0.0
385,19.647653966123737
386,26.418968293527612
387,-17.61611564336705
388,0.0
425,0.0
450,0.0
451,0.0
452,-18.300188631321387
453,0.0
490,0.0
515,0.0
516,0.0
542,0.0
592,0.0
632,12911411.379699476
686,1.0000000000000009
687,1.0000000000000009
688,2.0000000000000018
2,1, 1,21, 0, 2, 0.00,10.00,WinterDesignDay
250,19.924495692605596
251,14371828.20875179
336,0.0
385,20.314320632790388
386,26.41896829352759
387,-17.61601974663188
388,0.0
425,0.0
450,0.0
451,0.0
452,-18.30015006129784
453,0.0
490,0.0
515,0.0
516,0.0
542,0.0
592,0.0
632,14846754.021090096
686,1.0
687,1.0
688,2.0
2,1, 1,21, 0, 2,10.00,20.00,WinterDesignDay
250,20.27938887415843
251,15410229.155328993
336,0.0
385,20.314320632790388
386,26.41896829352759
387,-17.61600880766538
388,0.0
425,0.0
450,0.0
451,0.0
452,-18.30000504486474
453,0.0
490,0.0
515,0.0
516,0.0
542,0.0
592,0.0
632,15253325.172354432
686,1.0
687,1.0
688,2.0
2,1, 1,21, 0, 2,20.00,30.00,WinterDesignDay
250,19.39895103940415
251,14616425.007987164
336,0.0
385,19.647653966123737
386,26.418968293527612
387,-17.61610780424023
388,0.0
425,0.0
450,0.0
451,0.0
452,-18.30006904314172
453,0.0
490,0.0
515,0.0
516,0.0
542,0.0
592,0.0
632,14283543.499063471
686,1.0000000000000007
687,1.0000000000000007
688,2.0000000000000013
2,1, 1,21, 0, 2,30.00,40.00,WinterDesignDay
250,19.686606613245342
251,13320984.017919326
336,0.0
385,19.647653966123737
386,26.418968293527612
387,-17.61612021375213
388,0.0
425,0.0
450,0.0
451,0.0
452,-18.300189062762833
453,0.0
490,0.0
515,0.0
516,0.0
542,0.0
592,0.0
632,12911411.418002577
686,1.0000000000000009
687,1.0000000000000009
688,2.0000000000000018
2,1, 1,21, 0, 2,40.00,50.00,WinterDesignDay
250,19.924495692854396
251,14371828.24648016
336,0.0
385,20.314320632790388
386,26.41896829352759
387,-17.616024247698743
388,0.0
425,0.0
450,0.0
451,0.0
452,-18.300150486121666
453,0.0
490,0.0
515,0.0
516,0.0
542,0.0
592,0.0
632,14846754.058991324
686,1.0
687,1.0
688,2.0
2,1, 1,21, 0, 2,50.00,60.00,WinterDesignDay
250,20.279388874196293
251,15410229.193538006
336,0.0
385,20.314320632790388
386,26.41896829352759
387,-17.616013248263876
388,0.0
425,0.0
450,0.0
451,0.0
452,-18.300005464152015
453,0.0
490,0.0
515,0.0
516,0.0
542,0.0
592,0.0
632,15253325.21050033
686,1.0
687,1.0
688,2.0
2,1, 1,21, 0, 3, 0.00,10.00,WinterDesignDay
250,19.398951037691045
251,14616425.03741328
336,0.0
385,19.64765396612372
386,26.41896829352759
387,-17.61611219348609
388,0.0
425,0.0
450,0.0
451,0.0
452,-18.300069457666435
453,0.0
490,0.0
515,0.0
516,0.0
542,0.0
592,0.0
632,14283543.528044563
686,1.0
687,1.0
688,2.0
2,1, 1,21, 0, 3,10.00,20.00,WinterDesignDay
250,19.686606613157164
251,13320984.053952146
336,0.0
385,19.64765396612372
386,26.41896829352759
387,-17.616124548279277
388,0.0
425,0.0
450,0.0
451,0.0
452,-18.300189471951523
453,0.0
490,0.0
515,0.0
516,0.0
542,0.0
592,0.0
632,12911411.454329086
686,1.0
687,1.0
688,2.0
2,1, 1,21, 0, 3,20.00,30.00,WinterDesignDay
250,19.924495693090364
251,14371828.282261463
336,0.0
385,20.314320632790388
386,26.41896829352759
387,-17.616028516484874
388,0.0
425,0.0
450,0.0
451,0.0
452,-18.30015088903395
453,0.0
490,0.0
515,0.0
516,0.0
542,0.0
592,0.0
632,14846754.09493657
686,1.0
687,1.0
688,2.0
2,1, 1,21, 0, 3,30.00,40.00,WinterDesignDay
250,20.27938887423221
251,15410229.229775058
336,0.0
385,20.314320632790388
386,26.41896829352759
387,-17.616017459702256
388,0.0
425,0.0
450,0.0
451,0.0
452,-18.300005861813094
453,0.0
490,0.0
515,0.0
516,0.0
542,0.0
592,0.0
632,15253325.246677522
686,1.0
687,1.0
688,2.0
2,1, 1,21, 0, 3,40.00,50.00,WinterDesignDay
250,19.398951036066332
251,14616425.065320771
336,0.0
385,19.64765396612369
386,26.418968293527552
387,-17.616116356222314
388,0.0
425,0.0
450,0.0
451,0.0
452,-18.300069850810356
453,0.0
490,0.0
515,0.0
516,0.0
542,0.0
592,0.0
632,14283543.555529986
686,0.9999999999999986
687,0.9999999999999986
688,1.9999999999999971
2,1, 1,21, 0, 3,50.00,60.00,WinterDesignDay
250,19.686606613073568
251,13320984.088125413
336,0.0
385,19.647653966123737
386,26.418968293527612
387,-17.616128659120974
388,0.0
425,0.0
450,0.0
451,0.0
452,-18.30018986003458
453,0.0
490,0.0
515,0.0
516,0.0
542,0.0
592,0.0
632,12911411.488780882
686,1.0000000000000009
687,1.0000000000000009
688,2.0000000000000018
2,1, 1,21, 0, 4, 0.00,10.00,WinterDesignDay
250,19.92449569331415
251,14371828.316196224
336,0.0
385,20.314320632790388
386,26.41896829352759
387,-17.616032564978028
388,0.0
425,0.0
450,0.0
451,0.0
452,-18.300151271164214
453,0.0
490,0.0
515,0.0
516,0.0
542,0.0
592,0.0
632,14846754.129026802
686,1.0
687,1.0
688,2.0
2,1, 1,21, 0, 4,10.00,20.00,WinterDesignDay
250,20.27938887426627
251,15410229.264142111
336,0.0
385,20.314320632790388
386,26.41896829352759
387,-17.616021453806717
388,0.0
425,0.0
450,0.0
451,0.0
452,-18.300006238962798
453,0.0
490,0.0
515,0.0
516,0.0
542,0.0
592,0.0
632,15253325.280987807
686,1.0
687,1.0
688,2.0
2,1, 1,21, 0, 4,20.00,30.00,WinterDesignDay
250,19.39895103452553
251,14616425.091788068
336,0.0
385,19.647653966123737
386,26.418968293527612
387,-17.616120304137702
388,0.0
425,0.0
450,0.0
451,0.0
452,-18.30007022367576
453,0.0
490,0.0
515,0.0
516,0.0
542,0.0
592,0.0
632,14283543.581597004
686,1.0000000000000007
687,1.0000000000000007
688,2.0000000000000013
2,1, 1,21, 0, 4,30.00,40.00,WinterDesignDay
250,19.68660661299427
251,13320984.120535087
336,0.0
385,19.647653966123737
386,26.418968293527612
387,-17.616132557819295
388,0.0
425,0.0
450,0.0
451,0.0
452,-18.30019022809998
453,0.0
490,0.0
515,0.0
516,0.0
542,0.0
592,0.0
632,12911411.52145471
686,1.0000000000000009
687,1.0000000000000009
688,2.0000000000000018
2,1, 1,21, 0, 4,40.00,50.00,WinterDesignDay
250,19.92449569352638
251,14371828.348379672
336,0.0
385,20.314320632790388
386,26.41896829352759
387,-17.61603640454497
388,0.0
425,0.0
450,0.0
451,0.0
452,-18.300151633583805
453,0.0
490,0.0
515,0.0
516,0.0
542,0.0
592,0.0
632,14846754.161357705
686,1.0
687,1.0
688,2.0
2,1, 1,21, 0, 4,50.00,60.00,WinterDesignDay
250,20.279388874298572
251,15410229.29673554
336,0.0
385,20.314320632790388
386,26.41896829352759
387,-17.61602524179157
388,0.0
425,0.0
450,0.0
451,0.0
452,-18.30000659665856
453,0.0
490,0.0
515,0.0
516,0.0
542,0.0
592,0.0
632,15253325.313527402
686,1.0
687,1.0
688,2.0
2,1, 1,21, 0, 5, 0.00,10.00,WinterDesignDay
250,19.398951033064197
251,14616425.116889361
336,0.0
385,19.64765396612372
386,26.41896829352759
387,-17.616124048316603
388,0.0
425,0.0
450,0.0
451,0.0
452,-18.300070577307963
453,0.0
490,0.0
515,0.0
516,0.0
542,0.0
592,0.0
632,14283543.606318677
686,1.0
687,1.0
688,2.0
2,1, 1,21, 0, 5,10.00,20.00,WinterDesignDay
250,19.68660661291905
251,13320984.151272215
336,0.0
385,19.64765396612372
386,26.41896829352759
387,-17.616136255321077
388,0.0
425,0.0
450,0.0
451,0.0
452,-18.30019057717972
453,0.0
490,0.0
515,0.0
516,0.0
542,0.0
592,0.0
632,12911411.552442364
686,1.0
687,1.0
688,2.0
2,1, 1,21, 0, 5,20.00,30.00,WinterDesignDay
250,19.924495693727664
251,14371828.378902264
336,0.0
385,20.314320632790388
386,26.41896829352759
387,-17.616040045967036
388,0.0
425,0.0
450,0.0
451,0.0
452,-18.30015197730889
453,0.0
490,0.0
515,0.0
516,0.0
542,0.0
592,0.0
632,14846754.192020142
686,1.0
687,1.0
688,2.0
2,1, 1,21, 0, 5,30.00,40.00,WinterDesignDay
250,20.279388874329207
251,15410229.32764693
336,0.0
385,20.314320632790388
386,26.41896829352759
387,-17.616028834293513
388,0.0
425,0.0
450,0.0
451,0.0
452,-18.300006935903305
453,0.0
490,0.0
515,0.0
516,0.0
542,0.0
592,0.0
632,15253325.344387729
686,1.0
687,1.0
688,2.0
2,1, 1,21, 0, 5,40.00,50.00,WinterDesignDay
250,19.398951031678262
251,14616425.140695354
336,0.0
385,19.64765396612369
386,26.418968293527552
387,-17.616127599273245
388,0.0
425,0.0
450,0.0
451,0.0
452,-18.300070912698594
453,0.0
490,0.0
515,0.0
516,0.0
542,0.0
592,0.0
632,14283543.629764643
686,0.9999999999999986
687,0.9999999999999986
688,1.9999999999999971
2,1, 1,21, 0, 5,50.00,60.00,WinterDesignDay
250,19.686606612847736
251,13320984.180423029
336,0.0
385,19.647653966123737
386,26.418968293527612
387,-17.61613976200912
388,0.0
425,0.0
450,0.0
451,0.0
452,-18.300190908252677
453,0.0
490,0.0
515,0.0
516,0.0
542,0.0
592,0.0
632,12911411.58183077
686,1.0000000000000009
687,1.0000000000000009
688,2.0000000000000018
2,1, 1,21, 0, 6, 0.00,10.00,WinterDesignDay
250,19.924495693918566
251,14371828.407849628
336,0.0
385,20.314320632790388
386,26.41896829352759
387,-17.616043499469196
388,0.0
425,0.0
450,0.0
451,0.0
452,-18.300152303303296
453,0.0
490,0.0
515,0.0
516,0.0
542,0.0
592,0.0
632,14846754.221100135
686,1.0
687,1.0
688,2.0
2,1, 1,21, 0, 6,10.00,20.00,WinterDesignDay
250,20.27938887435826
251,15410229.356963087
336,0.0
385,20.314320632790388
386,26.41896829352759
387,-17.616032241399985
388,0.0
425,0.0
450,0.0
451,0.0
452,-18.30000725764834
453,0.0
490,0.0
515,0.0
516,0.0
542,0.0
592,0.0
632,15253325.373655455
686,1.0
687,1.0
688,2.0
2,1, 1,21, 0, 6,20.00,30.00,WinterDesignDay
250,19.398951030363925
251,14616425.16327277
336,0.0
385,19.647653966123737
386,26.418968293527612
387,-17.61613096697832
388,0.0
425,0.0
450,0.0
451,0.0
452,-18.300071230788244
453,0.0
490,0.0
515,0.0
516,0.0
542,0.0
592,0.0
632,14283543.652000606
686,1.0000000000000007
687,1.0000000000000007
688,2.0000000000000013
2,1, 1,21, 0, 6,30.00,40.00,WinterDesignDay
250,19.686606612780096
251,13320984.208069533
336,0.0
385,19.647653966123737
386,26.418968293527612
387,-17.616143087730137
388,0.0
425,0.0
450,0.0
451,0.0
452,-18.300191222247225
453,0.0
490,0.0
515,0.0
516,0.0
542,0.0
592,0.0
632,12911411.609702604
686,1.0000000000000009
687,1.0000000000000009
688,2.0000000000000018
2,1, 1,21, 0, 6,40.00,50.00,WinterDesignDay
250,19.924495694099612
251,14371828.435303168
336,0.0
385,20.314320632790388
386,26.41896829352759
387,-17.616046774748746
388,0.0
425,0.0
450,0.0
451,0.0
452,-18.300152612481227
453,0.0
490,0.0
515,0.0
516,0.0
542,0.0
592,0.0
632,14846754.248679455
686,1.0
687,1.0
688,2.0
2,1, 1,21, 0, 6,50.00,60.00,WinterDesignDay
250,20.27938887438582
251,15410229.384766366
336,0.0
385,20.314320632790388
386,26.41896829352759
387,-17.616035472677623
388,0.0
425,0.0
450,0.0
451,0.0
452,-18.300007562795976
453,0.0
490,0.0
515,0.0
516,0.0
542,0.0
592,0.0
632,15253325.401412807
686,1.0
687,1.0
688,2.0
2,1, 1,21, 0, 7, 0.00,10.00,WinterDesignDay
250,19.398951029117352
251,14616425.184685035
336,0.0
385,19.64765396612372
386,26.41896829352759
387,-17.616134160887896
388,0.0
425,0.0
450,0.0
451,0.0
452,-18.300071532468856
453,0.0
490,0.0
515,0.0
516,0.0
542,0.0
592,0.0
632,14283543.673089042
686,1.0
687,1.0
688,2.0
2,1, 1,21, 0, 7,10.00,20.00,WinterDesignDay
250,19.686606612715927
251,13320984.234289248
336,0.0
385,19.64765396612372
386,26.41896829352759
387,-17.616146241822413
388,0.0
425,0.0
450,0.0
451,0.0
452,-18.30019152004396
453,0.0
490,0.0
515,0.0
516,0.0
542,0.0
592,0.0
632,12911411.636136027
686,1.0
687,1.0
688,2.0
2,1, 1,21, 0, 7,20.00,30.00,WinterDesignDay
250,19.924495694271315
251,14371828.46133988
336,0.0
385,20.314320632790388
386,26.41896829352759
387,-17.61604988100292
388,0.0
425,0.0
450,0.0
451,0.0
452,-18.30015290570977
453,0.0
490,0.0
515,0.0
516,0.0
542,0.0
592,0.0
632,14846754.27483546
686,1.0
687,1.0
688,2.0
2,1, 1,21, 0, 7,30.00,40.00,WinterDesignDay
250,20.279388874411953
251,15410229.41113478
336,0.0
385,20.314320632790388
386,26.41896829352759
387,-17.616038537200986
388,0.0
425,0.0
450,0.0
451,0.0
452,-18.300007852202008
453,0.0
490,0.0
515,0.0
516,0.0
542,0.0
592,0.0
632,15253325.427737668
686,1.0
687,1.0
688,2.0
2,1, 1,21, 0, 7,40.00,50.00,WinterDesignDay
250,19.398951027935098
251,14616425.204992305
336,0.0
385,19.64765396612369
386,26.418968293527552
387,-17.616137189971457
388,0.0
425,0.0
450,0.0
451,0.0
452,-18.300071818586595
453,0.0
490,0.0
515,0.0
516,0.0
542,0.0
592,0.0
632,14283543.693089195
686,0.9999999999999986
687,0.9999999999999986
688,1.9999999999999971
2,1, 1,21, 0, 7,50.00,60.00,WinterDesignDay
250,19.6866066126551
251,13320984.259155795
336,0.0
385,19.647653966123737
386,26.418968293527612
387,-17.616149233143286
388,0.0
425,0.0
450,0.0
451,0.0
452,-18.30019180247816
453,0.0
490,0.0
515,0.0
516,0.0
542,0.0
592,0.0
632,12911411.661205253
686,1.0000000000000009
687,1.0000000000000009
688,2.0000000000000018
2,1, 1,21, 0, 8, 0.00,10.00,WinterDesignDay
250,19.924495694434157
251,14371828.48603299
336,0.0
385,20.314320632790388
386,26.41896829352759
387,-17.616052826954057
388,0.0
425,0.0
450,0.0
451,0.0
452,-18.30015318381137
453,0.0
490,0.0
515,0.0
516,0.0
542,0.0
592,0.0
632,14846754.299641706
686,1.0
687,1.0
688,2.0
2,1, 1,21, 0, 8,10.00,20.00,WinterDesignDay
250,20.279388874436734
251,15410229.436142318
336,0.0
385,20.314320632790388
386,26.41896829352759
387,-17.616041443574538
388,0.0
425,0.0
450,0.0
451,0.0
452,-18.300008126678197
453,0.0
490,0.0
515,0.0
516,0.0
542,0.0
592,0.0
632,15253325.452703897
686,1.0
687,1.0
688,2.0
2,1, 1,21, 0, 8,20.00,30.00,WinterDesignDay
250,19.39895102681393
251,14616425.224251516
336,0.0
385,19.647653966123737
386,26.418968293527612
387,-17.61614006273418
388,0.0
425,0.0
450,0.0
451,0.0
452,-18.300072089944084
453,0.0
490,0.0
515,0.0
516,0.0
542,0.0
592,0.0
632,14283543.712057136
686,1.0000000000000007
687,1.0000000000000007
688,2.0000000000000013
2,1, 1,21, 0, 8,30.00,40.00,WinterDesignDay
250,19.686606612597398
251,13320984.282739077
336,0.0
385,19.647653966123737
386,26.418968293527612
387,-17.6161520700919
388,0.0
425,0.0
450,0.0
451,0.0
452,-18.300192070342
453,0.0
490,0.0
515,0.0
516,0.0
542,0.0
592,0.0
632,12911411.684980748
686,1.0000000000000009
687,1.0000000000000009
688,2.0000000000000018
2,1, 1,21, 0, 8,40.00,50.00,WinterDesignDay
250,19.924495694588597
251,14371828.509451669
336,0.0
385,20.314320632790388
386,26.41896829352759
387,-17.61605562087425
388,0.0
425,0.0
450,0.0
451,0.0
452,-18.30015344756607
453,0.0
490,0.0
515,0.0
516,0.0
542,0.0
592,0.0
632,14846754.32316768
686,1.0
687,1.0
688,2.0
2,1, 1,21, 0, 8,50.00,60.00,WinterDesignDay
250,20.27938887446024
251,15410229.459859397
336,0.0
385,20.314320632790388
386,26.41896829352759
387,-17.616044199959788
388,0.0
425,0.0
450,0.0
451,0.0
452,-18.300008386994403
453,0.0
490,0.0
515,0.0
516,0.0
542,0.0
592,0.0
632,15253325.4763818
686,1.0
687,1.0
688,2.0
2,1, 1,21, 0, 9, 0.00,10.00,WinterDesignDay
250,19.398951025750566
251,14616425.242516845
336,0.0
385,19.64765396612372
386,26.41896829352759
387,-17.616142787243067
388,0.0
425,0.0
450,0.0
451,0.0
452,-18.300072347302336
453,0.0
490,0.0
515,0.0
516,0.0
542,0.0
592,0.0
632,14283543.730046235
686,1.0
687,1.0
688,2.0
2,1, 1,21, 0, 9,10.00,20.00,WinterDesignDay
250,19.686606612542658
251,13320984.305105278
336,0.0
385,19.64765396612372
386,26.41896829352759
387,-17.61615476063511
388,0.0
425,0.0
450,0.0
451,0.0
452,-18.30019232438684
453,0.0
490,0.0
515,0.0
516,0.0
542,0.0
592,0.0
632,12911411.707529247
686,1.0
687,1.0
688,2.0
2,1, 1,21, 0, 9,20.00,30.00,WinterDesignDay
250,19.92449569473506
251,14371828.531661803
336,0.0
385,20.314320632790388
386,26.41896829352759
387,-17.616058270609578
388,0.0
425,0.0
450,0.0
451,0.0
452,-18.300153697713746
453,0.0
490,0.0
515,0.0
516,0.0
542,0.0
592,0.0
632,14846754.345479574
686,1.0
687,1.0
688,2.0
2,1, 1,21, 0, 9,30.00,40.00,WinterDesignDay
250,20.279388874482535
251,15410229.482352454
336,0.0
385,20.314320632790388
386,26.41896829352759
387,-17.61604681409721
388,0.0
425,0.0
450,0.0
451,0.0
452,-18.3000086338809
453,0.0
490,0.0
515,0.0
516,0.0
542,0.0
592,0.0
632,15253325.498837702
686,1.0
687,1.0
688,2.0
2,1, 1,21, 0, 9,40.00,50.00,WinterDesignDay
250,19.39895102474207
251,14616425.259839559
336,0.0
385,19.64765396612369
386,26.418968293527552
387,-17.616145371149106
388,0.0
425,0.0
450,0.0
451,0.0
452,-18.300072591383383
453,0.0
490,0.0
515,0.0
516,0.0
542,0.0
592,0.0
632,14283543.747106964
686,0.9999999999999986
687,0.9999999999999986
688,1.9999999999999971
2,1, 1,21, 0, 9,50.00,60.00,WinterDesignDay
250,19.686606612490774
251,13320984.326317292
336,0.0
385,19.647653966123737
386,26.418968293527612
387,-17.616157312328227
388,0.0
425,0.0
450,0.0
451,0.0
452,-18.300192565325396
453,0.0
490,0.0
515,0.0
516,0.0
542,0.0
592,0.0
632,12911411.728914153
686,1.0000000000000009
687,1.0000000000000009
688,2.0000000000000018
2,1, 1,21, 0,10, 0.00,10.00,WinterDesignDay
250,19.92449569487397
251,14371828.552725736
336,0.0
385,20.314320632790388
386,26.41896829352759
387,-17.616060783600737
388,0.0
425,0.0
450,0.0
451,0.0
452,-18.30015393495613
453,0.0
490,0.0
515,0.0
516,0.0
542,0.0
592,0.0
632,14846754.366640024
686,1.0
687,1.0
688,2.0
2,1, 1,21, 0,10,10.00,20.00,WinterDesignDay
250,20.279388874503674
251,15410229.503684731
336,0.0
385,20.314320632790388
386,26.41896829352759
387,-17.61604929332701
388,0.0
425,0.0
450,0.0
451,0.0
452,-18.300008868030275
453,0.0
490,0.0
515,0.0
516,0.0
542,0.0
592,0.0
632,15253325.520134741
686,1.0
687,1.0
688,2.0
2,1, 1,21, 0,10,20.00,30.00,WinterDesignDay
250,19.398951023785678
251,14616425.27626829
336,0.0
385,19.647653966123737
386,26.418968293527612
387,-17.616147821707166
388,0.0
425,0.0
450,0.0
451,0.0
452,-18.30007282287202
453,0.0
490,0.0
515,0.0
516,0.0
542,0.0
592,0.0
632,14283543.763287233
686,1.0000000000000007
687,1.0000000000000007
688,2.0000000000000013
2,1, 1,21, 0,10,30.00,40.00,WinterDesignDay
250,19.68660661244155
251,13320984.346434655
336,0.0
385,19.647653966123737
386,26.418968293527612
387,-17.616159732335294
388,0.0
425,0.0
450,0.0
451,0.0
452,-18.300192793833567
453,0.0
490,0.0
515,0.0
516,0.0
542,0.0
592,0.0
632,12911411.74919548
686,1.0000000000000009
687,1.0000000000000009
688,2.0000000000000018
2,1, 1,21, 0,10,40.00,50.00,WinterDesignDay
250,19.92449569500571
251,14371828.57270263
336,0.0
385,20.314320632790388
386,26.41896829352759
387,-17.616063166902816
388,0.0
425,0.0
450,0.0
451,0.0
452,-18.30015415995878
453,0.0
490,0.0
515,0.0
516,0.0
542,0.0
592,0.0
632,14846754.386708437
686,1.0
687,1.0
688,2.0
2,1, 1,21, 0,10,50.00,60.00,WinterDesignDay
250,20.279388874523725
251,15410229.523916118
336,0.0
385,20.314320632790388
386,26.41896829352759
387,-17.61605164461035
388,0.0
425,0.0
450,0.0
451,0.0
452,-18.300009090099408
453,0.0
490,0.0
515,0.0
516,0.0
542,0.0
592,0.0
632,15253325.54033271
686,1.0
687,1.0
688,2.0
2,1, 1,21, 0,11, 0.00,10.00,WinterDesignDay
250,19.39895102287859
251,14616425.291849228
336,0.0
385,19.64765396612372
386,26.41896829352759
387,-17.61615014579911
388,0.0
425,0.0
450,0.0
451,0.0
452,-18.300073042417566
453,0.0
490,0.0
515,0.0
516,0.0
542,0.0
592,0.0
632,14283543.778632533
686,1.0
687,1.0
688,2.0
2,1, 1,21, 0,11,10.00,20.00,WinterDesignDay
250,19.68660661239485
251,13320984.365513707
336,0.0
385,19.64765396612372
386,26.41896829352759
387,-17.616162027453434
388,0.0
425,0.0
450,0.0
451,0.0
452,-18.300193010552405
453,0.0
490,0.0
515,0.0
516,0.0
542,0.0
592,0.0
632,12911411.768430036
686,1.0
687,1.0
688,2.0
2,1, 1,21, 0,11,20.00,30.00,WinterDesignDay
250,19.924495695130652
251,14371828.591648595
336,0.0
385,20.314320632790388
386,26.41896829352759
387,-17.616065427210536
388,0.0
425,0.0
450,0.0
451,0.0
452,-18.300154373352964
453,0.0
490,0.0
515,0.0
516,0.0
542,0.0
592,0.0
632,14846754.405741211
686,1.0
687,1.0
688,2.0
2,1, 1,21, 0,11,30.00,40.00,WinterDesignDay
250,20.279388874542743
251,15410229.543103408
336,0.0
385,20.314320632790388
386,26.41896829352759
387,-17.616053874551568
388,0.0
425,0.0
450,0.0
451,0.0
452,-18.300009300711366
453,0.0
490,0.0
515,0.0
516,0.0
542,0.0
592,0.0
632,15253325.559488308
686,1.0
687,1.0
688,2.0
2,1, 1,21, 0,11,40.00,50.00,WinterDesignDay
250,19.398951022018313
251,14616425.306625998
336,0.0
385,19.64765396612369
386,26.418968293527552
387,-17.616152349951726
388,0.0
425,0.0
450,0.0
451,0.0
452,-18.300073250636068
453,0.0
490,0.0
515,0.0
516,0.0
542,0.0
592,0.0
632,14283543.793185825
686,0.9999999999999986
687,0.9999999999999986
688,1.9999999999999971
2,1, 1,21, 0,11,50.00,60.00,WinterDesignDay
250,19.686606612350598
251,13320984.383608181
336,0.0
385,19.647653966123737
386,26.418968293527612
387,-17.616164204127145
388,0.0
425,0.0
450,0.0
451,0.0
452,-18.300193216090058
453,0.0
490,0.0
515,0.0
516,0.0
542,0.0
592,0.0
632,12911411.786671989
686,1.0000000000000009
687,1.0000000000000009
688,2.0000000000000018
2,1, 1,21, 0,12, 0.00,10.00,WinterDesignDay
250,19.924495695249142
251,14371828.609616771
336,0.0
385,20.314320632790388
386,26.41896829352759
387,-17.61606757086988
388,0.0
425,0.0
450,0.0
451,0.0
452,-18.300154575737423
453,0.0
490,0.0
515,0.0
516,0.0
542,0.0
592,0.0
632,14846754.423791708
686,1.0
687,1.0
688,2.0
2,1, 1,21, 0,12,10.00,20.00,WinterDesignDay
250,20.279388874560777
251,15410229.561300483
336,0.0
385,20.314320632790388
386,26.41896829352759
387,-17.61605598941123
388,0.0
425,0.0
450,0.0
451,0.0
452,-18.30000950045709
453,0.0
490,0.0
515,0.0
516,0.0
542,0.0
592,0.0
632,15253325.577655323
686,1.0
687,1.0
688,2.0
2,1, 1,21, 0,12,20.00,30.00,WinterDesignDay
250,19.39895102120249
251,14616425.320640218
336,0.0
385,19.647653966123737
386,26.418968293527612
387,-17.616154440353718
388,0.0
425,0.0
450,0.0
451,0.0
452,-18.30007344811183
453,0.0
490,0.0
515,0.0
516,0.0
542,0.0
592,0.0
632,14283543.806988101
686,1.0000000000000007
687,1.0000000000000007
688,2.0000000000000013
2,1, 1,21, 0,12,30.00,40.00,WinterDesignDay
250,19.686606612308612
251,13320984.400768818
336,0.0
385,19.647653966123737
386,26.418968293527612
387,-17.616166268468398
388,0.0
425,0.0
450,0.0
451,0.0
452,-18.300193411023166
453,0.0
490,0.0
515,0.0
516,0.0
542,0.0
592,0.0
632,12911411.803972498
686,1.0000000000000009
687,1.0000000000000009
688,2.0000000000000018
2,1, 1,21, 0,12,40.00,50.00,WinterDesignDay
250,19.924495695361525
251,14371828.626657702
336,0.0
385,20.314320632790388
386,26.41896829352759
387,-17.61606960390091
388,0.0
425,0.0
450,0.0
451,0.0
452,-18.30015476768001
453,0.0
490,0.0
515,0.0
516,0.0
542,0.0
592,0.0
632,14846754.440910714
686,1.0
687,1.0
688,2.0
2,1, 1,21, 0,12,50.00,60.00,WinterDesignDay
250,20.27938887457788
251,15410229.578558356
336,0.0
385,20.314320632790388
386,26.41896829352759
387,-17.61605799512949
388,0.0
425,0.0
450,0.0
451,0.0
452,-18.300009689897035
453,0.0
490,0.0
515,0.0
516,0.0
542,0.0
592,0.0
632,15253325.594884682
686,1.0
687,1.0
688,2.0
2,1, 1,21, 0,13, 0.00,10.00,WinterDesignDay
250,19.398951020428715
251,14616425.333931156
336,0.0
385,19.64765396612372
386,26.41896829352759
387,-17.61615642287656
388,0.0
425,0.0
450,0.0
451,0.0
452,-18.30007363539882
453,0.0
490,0.0
515,0.0
516,0.0
542,0.0
592,0.0
632,14283543.820078028
686,1.0
687,1.0
688,2.0
2,1, 1,21, 0,13,10.00,20.00,WinterDesignDay
250,19.686606612268772
251,13320984.417043833
336,0.0
385,19.64765396612372
386,26.41896829352759
387,-17.616168226275423
388,0.0
425,0.0
450,0.0
451,0.0
452,-18.30019359589872
453,0.0
490,0.0
515,0.0
516,0.0
542,0.0
592,0.0
632,12911411.820380166
686,1.0
687,1.0
688,2.0
2,1, 1,21, 0,13,20.00,30.00,WinterDesignDay
250,19.924495695468103
251,14371828.64281908
336,0.0
385,20.314320632790388
386,26.41896829352759
387,-17.61607153201318
388,0.0
425,0.0
450,0.0
451,0.0
452,-18.300154949719342
453,0.0
490,0.0
515,0.0
516,0.0
542,0.0
592,0.0
632,14846754.457146138
686,1.0
687,1.0
688,2.0
2,1, 1,21, 0,13,30.00,40.00,WinterDesignDay
250,20.279388874594098
251,15410229.594925664
336,0.0
385,20.314320632790388
386,26.41896829352759
387,-17.61605989733787
388,0.0
425,0.0
450,0.0
451,0.0
452,-18.3000098695628
453,0.0
490,0.0
515,0.0
516,0.0
542,0.0
592,0.0
632,15253325.611224957
686,1.0
687,1.0
688,2.0
2,1, 1,21, 0,13,40.00,50.00,WinterDesignDay
250,19.398951019694866
251,14616425.346536214
336,0.0
385,19.64765396612369
386,26.418968293527552
387,-17.616158303086348
388,0.0
425,0.0
450,0.0
451,0.0
452,-18.30007381302266
453,0.0
490,0.0
515,0.0
516,0.0
542,0.0
592,0.0
632,14283543.83249246
686,0.9999999999999986
687,0.9999999999999986
688,1.9999999999999971
2,1, 1,21, 0,13,50.00,60.00,WinterDesignDay
250,19.686606612231024
251,13320984.432478957
336,0.0
385,19.647653966123737
386,26.418968293527612
387,-17.61617008304477
388,0.0
425,0.0
450,0.0
451,0.0
452,-18.300193771235556
453,0.0
490,0.0
515,0.0
516,0.0
542,0.0
592,0.0
632,12911411.835941091
686,1.0000000000000009
687,1.0000000000000009
688,2.0000000000000018
2,1, 1,21, 0,14, 0.00,10.00,WinterDesignDay
250,19.92449569556918
251,14371828.658146508
336,0.0
385,20.314320632790388
386,26.41896829352759
387,-17.616073360620334
388,0.0
425,0.0
450,0.0
451,0.0
452,-18.300155122366238
453,0.0
490,0.0
515,0.0
516,0.0
542,0.0
592,0.0
632,14846754.47254379
686,1.0
687,1.0
688,2.0
2,1, 1,21, 0,14,10.00,20.00,WinterDesignDay
250,20.279388874609488
251,15410229.61044837
336,0.0
385,20.314320632790388
386,26.41896829352759
387,-17.616061701378207
388,0.0
425,0.0
450,0.0
451,0.0
452,-18.300010039958558
453,0.0
490,0.0
515,0.0
516,0.0
542,0.0
592,0.0
632,15253325.626722025
686,1.0
687,1.0
688,2.0
2,1, 1,21, 0,14,20.00,30.00,WinterDesignDay
250,19.398951018998954
251,14616425.358490752
336,0.0
385,19.647653966123737
386,26.418968293527612
387,-17.6161600862635
388,0.0
425,0.0
450,0.0
451,0.0
452,-18.300073981481873
453,0.0
490,0.0
515,0.0
516,0.0
542,0.0
592,0.0
632,14283543.8442662
686,1.0000000000000007
687,1.0000000000000007
688,2.0000000000000013
2,1, 1,21, 0,14,30.00,40.00,WinterDesignDay
250,19.686606612195206
251,13320984.447117481
336,0.0
385,19.647653966123737
386,26.418968293527612
387,-17.61617184399108
388,0.0
425,0.0
450,0.0
451,0.0
452,-18.300193937525655
453,0.0
490,0.0
515,0.0
516,0.0
542,0.0
592,0.0
632,12911411.850698927
686,1.0000000000000009
687,1.0000000000000009
688,2.0000000000000018
2,1, 1,21, 0,14,40.00,50.00,WinterDesignDay
250,19.92449569566504
251,14371828.672682893
336,0.0
385,20.314320632790388
386,26.41896829352759
387,-17.61607509485767
388,0.0
425,0.0
450,0.0
451,0.0
452,-18.300155286105188
453,0.0
490,0.0
515,0.0
516,0.0
542,0.0
592,0.0
632,14846754.48714678
686,1.0
687,1.0
688,2.0