Program Version,EnergyPlus, Version 24.2.0-94a887817b, YMD=2025.01.22 00:05
1,5,Environment Title[],Latitude[deg],Longitude[deg],Time Zone[],Elevation[m]
2,8,Day of Simulation[],Month[],Day of Month[],DST Indicator[1=yes 0=no],Hour[],StartMinute[],EndMinute[],DayType
3,5,Cumulative Day of Simulation[],Month[],Day of Month[],DST Indicator[1=yes 0=no],DayType  ! When Daily Meters Requested
4,2,Cumulative Days of Simulation[],Month[]  ! When Monthly Meters Requested
5,1,Cumulative Days of Simulation[] ! When Run Period Meters Requested
6,1,Calendar Year of Simulation[] ! When Annual Meters Requested
11,9,Electricity:Facility [J] !Monthly [Value,Min,Day,Hour,Minute,Max,Day,Hour,Minute]
23,9,Electricity:Building [J] !Monthly [Value,Min,Day,Hour,Minute,Max,Day,Hour,Minute]
59,9,InteriorLights:Electricity [J] !Monthly [Value,Min,Day,Hour,Minute,Max,Day,Hour,Minute]
521,9,Electricity:HVAC [J] !Monthly [Value,Min,Day,Hour,Minute,Max,Day,Hour,Minute]
637,9,NaturalGas:Facility [J] !Monthly [Value,Min,Day,Hour,Minute,Max,Day,Hour,Minute]
649,9,NaturalGas:HVAC [J] !Monthly [Value,Min,Day,Hour,Minute,Max,Day,Hour,Minute]
13,11,Electricity:Facility [J] !RunPeriod [Value,Min,Month,Day,Hour,Minute,Max,Month,Day,Hour,Minute]
25,11,Electricity:Building [J] !RunPeriod [Value,Min,Month,Day,Hour,Minute,Max,Month,Day,Hour,Minute]
61,11,InteriorLights:Electricity [J] !RunPeriod [Value,Min,Month,Day,Hour,Minute,Max,Month,Day,Hour,Minute]
523,11,Electricity:HVAC [J] !RunPeriod [Value,Min,Month,Day,Hour,Minute,Max,Month,Day,Hour,Minute]
639,11,NaturalGas:Facility [J] !RunPeriod [Value,Min,Month,Day,Hour,Minute,Max,Month,Day,Hour,Minute]
651,11,NaturalGas:HVAC [J] !RunPeriod [Value,Min,Month,Day,Hour,Minute,Max,Month,Day,Hour,Minute]
End of Data Dictionary
1,RUN PERIOD 1,  41.98, -87.92,  -6.00, 201.00
4,31, 1
11,9826686319.655329,408891.4285714286, 5, 6,50,2982108.1806686134,16,13,60
23,987636218.4243432,30000.0, 1, 1,10,612634.940887189, 1, 9,10
59,970200000.0,30000.0, 1, 1,10,600000.0, 1, 8,10
521,8839050101.230986,378891.4285714286, 5, 6,50,2369473.239781425,16,13,60
637,178652936300.76065,28075517.57422854,21,16,10,41250000.0, 1, 1,20
649,178652936300.76065,28075517.57422854,21,16,10,41250000.0, 1, 1,20
4,59, 2
11,9359698050.128471,99999999999999.0, 5, 6,50,3023569.6209317357,22,15,30
23,863321929.064645,99999999999999.0, 1, 1,10,-99999999999999.0, 1, 9,10
59,848160000.0,99999999999999.0, 1, 1,10,-99999999999999.0, 1, 8,10
521,8496376121.063895,99999999999999.0, 5, 6,50,2410934.680044547,22,15,30
637,157951373364.8666,26393109.69432302,23,12,10,-99999999999999.0, 1, 1,20
649,157951373364.8666,26393109.69432302,23,12,10,-99999999999999.0, 1, 1,20
4,90, 3
11,10981410426.621918,99999999999999.0, 5, 6,50,3246241.2517041857,27,15,20
23,913462767.9797409,99999999999999.0, 1, 1,10,-99999999999999.0, 1, 9,10
59,897480000.0,99999999999999.0, 1, 1,10,-99999999999999.0, 1, 8,10
521,10067947658.64217,0.0,27,15,30,2633606.3108169967,27,15,20
637,161743552091.9944,0.0,27,15,30,-99999999999999.0, 1, 1,20
649,161743552091.9944,0.0,27,15,30,-99999999999999.0, 1, 1,20
4,120, 4
11,9672037806.53671,30000.0,11,19,10,-99999999999999.0,27,15,20
23,946233490.8929633,99999999999999.0, 1, 1,10,632536.1089951913,24,16,40
59,929520000.0,99999999999999.0, 1, 1,10,-99999999999999.0, 1, 8,10
521,8725804315.643787,99999999999999.0,27,15,30,-99999999999999.0,27,15,20
637,119925348517.08875,99999999999999.0,27,15,30,-99999999999999.0, 1, 1,20
649,119925348517.08875,99999999999999.0,27,15,30,-99999999999999.0, 1, 1,20
4,151, 5
11,9265414785.72073,99999999999999.0,11,19,10,3275363.4327702597,13,14,10
23,988457625.1474625,99999999999999.0, 1, 1,10,657882.5433401181,13,14,10
59,970200000.0,99999999999999.0, 1, 1,10,-99999999999999.0, 1, 8,10
521,8276957160.573188,99999999999999.0,27,15,30,-99999999999999.0,27,15,20
637,92789788943.10605,99999999999999.0,27,15,30,-99999999999999.0, 1, 1,20
649,92789788943.10605,99999999999999.0,27,15,30,-99999999999999.0, 1, 1,20
4,181, 6
11,7461432337.189474,99999999999999.0,11,19,10,-99999999999999.0,13,14,10
23,872343738.7280655,99999999999999.0, 1, 1,10,-99999999999999.0,13,14,10
59,856800000.0,99999999999999.0, 1, 1,10,-99999999999999.0, 1, 8,10
521,6589088598.461469,99999999999999.0,27,15,30,2634023.5860913945,24,12,50
637,42176737369.40406,99999999999999.0,27,15,30,-99999999999999.0, 1, 1,20
649,42176737369.40406,99999999999999.0,27,15,30,-99999999999999.0, 1, 1,20
4,212, 7
11,6993077438.294558,99999999999999.0,11,19,10,-99999999999999.0,13,14,10
23,987903277.0967896,99999999999999.0, 1, 1,10,-99999999999999.0,13,14,10
59,970200000.0,99999999999999.0, 1, 1,10,-99999999999999.0, 1, 8,10
521,6005174161.197807,99999999999999.0,27,15,30,-99999999999999.0,24,12,50
637,15503824955.245165,99999999999999.0,27,15,30,-99999999999999.0, 1, 1,20
649,15503824955.245165,99999999999999.0,27,15,30,-99999999999999.0, 1, 1,20
4,243, 8
11,6198961823.077405,99999999999999.0,11,19,10,-99999999999999.0,13,14,10
23,950827149.509333,99999999999999.0, 1, 1,10,-99999999999999.0,13,14,10
59,933840000.0,99999999999999.0, 1, 1,10,-99999999999999.0, 1, 8,10
521,5248134673.568131,99999999999999.0,27,15,30,-99999999999999.0,24,12,50
637,28779221490.66879,99999999999999.0,27,15,30,-99999999999999.0, 1, 1,20
649,28779221490.66879,99999999999999.0,27,15,30,-99999999999999.0, 1, 1,20
4,273, 9
11,7642696811.376937,99999999999999.0,11,19,10,-99999999999999.0,13,14,10
23,909257063.4416441,99999999999999.0, 1, 1,10,-99999999999999.0,13,14,10
59,893160000.0,99999999999999.0, 1, 1,10,-99999999999999.0, 1, 8,10
521,6733439747.935323,99999999999999.0,27,15,30,2634516.2684302847,19,12,50
637,64387899449.63721,99999999999999.0,27,15,30,-99999999999999.0, 1, 1,20
649,64387899449.63721,99999999999999.0,27,15,30,-99999999999999.0, 1, 1,20
4,304,10
11,10597459731.149393,99999999999999.0,11,19,10,-99999999999999.0,13,14,10
23,987776469.3064963,99999999999999.0, 1, 1,10,-99999999999999.0,13,14,10
59,970200000.0,99999999999999.0, 1, 1,10,-99999999999999.0, 1, 8,10
521,9609683261.842918,99999999999999.0,27,15,30,2634676.335294281,30,15,30
637,127737355742.29913,99999999999999.0,27,15,30,-99999999999999.0, 1, 1,20
649,127737355742.29913,99999999999999.0,27,15,30,-99999999999999.0, 1, 1,20
4,334,11
11,10467819966.2582,99999999999999.0,11,19,10,-99999999999999.0,13,14,10
23,909080025.5178778,99999999999999.0, 1, 1,10,-99999999999999.0,13,14,10
59,893160000.0,99999999999999.0, 1, 1,10,-99999999999999.0, 1, 8,10
521,9558739940.74033,99999999999999.0,27,15,30,-99999999999999.0,30,15,30
637,147096916665.70172,99999999999999.0,27,15,30,-99999999999999.0, 1, 1,20
649,147096916665.70172,99999999999999.0,27,15,30,-99999999999999.0, 1, 1,20
4,365,12
11,10439468742.354908,99999999999999.0,11,19,10,-99999999999999.0,13,14,10
23,950518121.9711106,99999999999999.0, 1, 1,10,-99999999999999.0,13,14,10
59,933840000.0,99999999999999.0, 1, 1,10,-99999999999999.0, 1, 8,10
521,9488950620.383821,99999999999999.0,27,15,30,-99999999999999.0,30,15,30
637,179462742210.04318,99999999999999.0,27,15,30,-99999999999999.0, 1, 1,20
649,179462742210.04318,99999999999999.0,27,15,30,-99999999999999.0, 1, 1,20
5,365
13,108906164238.37137,30000.0, 4,11,19,10,3275363.4327702597, 5,13,14,10
25,11266817877.082184,30000.0, 1, 1, 1,10,657882.5433401181, 5,13,14,10
61,11066760000.0,30000.0, 1, 1, 1,10,600000.0, 1, 1, 8,10
523,97639346361.28877,0.0, 3,27,15,30,2634676.335294281,10,30,15,30
639,1316207697100.809,0.0, 3,27,15,30,41250000.0, 1, 1, 1,20
651,1316207697100.809,0.0, 3,27,15,30,41250000.0, 1, 1, 1,20
1,RUN PERIOD 2,  41.98, -87.92,  -6.00, 201.00
4,1, 7
11,128761904.74624278,99999999999999.0,11,19,10,-99999999999999.0,13,14,10
23,41438096.45323139,99999999999999.0, 1, 1,10,-99999999999999.0,13,14,10
59,40680000.0,99999999999999.0, 1, 1,10,-99999999999999.0, 1, 8,10
521,87323808.29301146,99999999999999.0,27,15,30,-99999999999999.0,30,15,30
637,0.0,99999999999999.0,27,15,30,-99999999999999.0, 1, 1,20
649,0.0,99999999999999.0,27,15,30,-99999999999999.0, 1, 1,20
5,1
13,128761904.74624278,99999999999999.0, 4,11,19,10,-99999999999999.0, 5,13,14,10
25,41438096.45323139,99999999999999.0, 1, 1, 1,10,-99999999999999.0, 5,13,14,10
61,40680000.0,99999999999999.0, 1, 1, 1,10,-99999999999999.0, 1, 1, 8,10
523,87323808.29301146,99999999999999.0, 3,27,15,30,-99999999999999.0,10,30,15,30
639,0.0,99999999999999.0, 3,27,15,30,-99999999999999.0, 1, 1, 1,20
651,0.0,99999999999999.0, 3,27,15,30,-99999999999999.0, 1, 1, 1,20
End of Data
 Number of Records Written=          90
