Program Version,EnergyPlus, Version 24.2.0-94a887817b, YMD=2025.01.30 19:35
1,5,Environment Title[],Latitude[deg],Longitude[deg],Time Zone[],Elevation[m]
2,8,Day of Simulation[],Month[],Day of Month[],DST Indicator[1=yes 0=no],Hour[],StartMinute[],EndMinute[],DayType
3,5,Cumulative Day of Simulation[],Month[],Day of Month[],DST Indicator[1=yes 0=no],DayType  ! When Daily Report Variables Requested
4,2,Cumulative Days of Simulation[],Month[]  ! When Monthly Report Variables Requested
5,1,Cumulative Days of Simulation[] ! When Run Period Report Variables Requested
6,1,Calendar Year of Simulation[] ! When Annual Report Variables Requested
250,1,LIVING ZONE,Zone Air Temperature [C] !TimeStep,REPORTSCH
251,1,LIVING ZONE,Zone Air System Sensible Heating Energy [J] !TimeStep,REPORTSCH
336,1,LIVING ZONE,Zone Air System Sensible Cooling Energy [J] !TimeStep,REPORTSCH
385,1,LIVING ZONE,Zone Thermostat Heating Setpoint Temperature [C] !TimeStep,REPORTSCH
386,1,LIVING ZONE,Zone Thermostat Cooling Setpoint Temperature [C] !TimeStep,REPORTSCH
387,1,GARAGE ZONE,Zone Air Temperature [C] !TimeStep,REPORTSCH
388,1,GARAGE ZONE,Zone Air System Sensible Heating Energy [J] !TimeStep,REPORTSCH
425,1,GARAGE ZONE,Zone Air System Sensible Cooling Energy [J] !TimeStep,REPORTSCH
450,1,GARAGE ZONE,Zone Thermostat Heating Setpoint Temperature [C] !TimeStep,REPORTSCH
451,1,GARAGE ZONE,Zone Thermostat Cooling Setpoint Temperature [C] !TimeStep,REPORTSCH
452,1,ATTIC ZONE,Zone Air Temperature [C] !TimeStep,REPORTSCH
453,1,ATTIC ZONE,Zone Air System Sensible Heating Energy [J] !TimeStep,REPORTSCH
490,1,ATTIC ZONE,Zone Air System Sensible Cooling Energy [J] !TimeStep,REPORTSCH
515,1,ATTIC ZONE,Zone Thermostat Heating Setpoint Temperature [C] !TimeStep,REPORTSCH
516,1,ATTIC ZONE,Zone Thermostat Cooling Setpoint Temperature [C] !TimeStep,REPORTSCH
542,1,ACDXCOIL 1,Cooling Coil Total Cooling Energy [J] !TimeStep,REPORTSCH
592,1,HEAT PUMP DX HEATING COIL 1,Heating Coil Heating Energy [J] !TimeStep,REPORTSCH
632,1,SUPP HEATING COIL 1,Heating Coil Heating Energy [J] !TimeStep,REPORTSCH
686,1,TWOSPEED HEAT PUMP 1,Unitary System DX Coil Cycling Ratio [] !TimeStep,REPORTSCH
687,1,TWOSPEED HEAT PUMP 1,Unitary System DX Coil Speed Ratio [] !TimeStep,REPORTSCH
688,1,TWOSPEED HEAT PUMP 1,Unitary System DX Coil Speed Level [] !TimeStep,REPORTSCH
End of Data Dictionary
1,RUN PERIOD 1,  41.98, -87.92,  -6.00, 201.00
2,21, 1,21, 0, 1, 0.00,10.00,Monday
250,-0.8358361000376431
251,38098117.333075844
336,0.0
385,19.293450630208635
386,26.672634489941597
387,-0.9476909293398792
388,0.0
425,0.0
450,0.0
451,0.0
452,-1.9750765524271374
453,0.0
490,0.0
515,0.0
516,0.0
542,0.0
592,4839743.985079642
632,33000000.0
686,1.0
687,1.0
688,2.0
2,21, 1,21, 0, 1,10.00,20.00,Monday
250,-0.8359875450020806
251,38082774.62942725
336,0.0
385,19.293450630208635
386,26.672634489941597
387,-0.9560512326993296
388,0.0
425,0.0
450,0.0
451,0.0
452,-1.9569307121095783
453,0.0
490,0.0
515,0.0
516,0.0
542,0.0
592,4823801.676011796
632,33000000.0
686,1.0
687,1.0
688,2.0
2,21, 1,21, 0, 1,20.00,30.00,Monday
250,-0.8361783035239826
251,38066852.283810854
336,0.0
385,19.293450630208635
386,26.672634489941597
387,-0.9656471835759268
388,0.0
425,0.0
450,0.0
451,0.0
452,-1.9538523924715556
453,0.0
490,0.0
515,0.0
516,0.0
542,0.0
592,4807858.162905219
632,33000000.0
686,1.0
687,1.0
688,2.0
2,21, 1,21, 0, 1,30.00,40.00,Monday
250,-0.836364552847954
251,38050905.14341035
336,0.0
385,19.293450630208635
386,26.672634489941597
387,-0.9766834979247896
388,0.0
425,0.0
450,0.0
451,0.0
452,-1.966727206877676
453,0.0
490,0.0
515,0.0
516,0.0
542,0.0
592,4791913.445623511
632,33000000.0
686,1.0
687,1.0
688,2.0
2,21, 1,21, 0, 1,40.00,50.00,Monday
250,-0.8365522244652007
251,38034959.99190991
336,0.0
385,19.293450630208635
386,26.672634489941597
387,-0.9893174506352227
388,0.0
425,0.0
450,0.0
451,0.0
452,-1.9939339368734632
453,0.0
490,0.0
515,0.0
516,0.0
542,0.0
592,4775967.524030239
632,33000000.0
686,1.0
687,1.0
688,2.0
2,21, 1,21, 0, 1,50.00,60.00,Monday
250,-0.8367404750115691
251,38019013.18195552
336,0.0
385,19.293450630208635
386,26.672634489941597
387,-1.003737817992189
388,0.0
425,0.0
450,0.0
451,0.0
452,-2.0339437481397007
453,0.0
490,0.0
515,0.0
516,0.0
542,0.0
592,4760020.397988958
632,33000000.0
686,1.0
687,1.0
688,2.0
2,21, 1,21, 0, 2, 0.00,10.00,Monday
250,-0.8368181016103179
251,38018953.62307251
336,0.0
385,19.293450630208635
386,26.672634489941597
387,-1.019261945187078
388,0.0
425,0.0
450,0.0
451,0.0
452,-2.0807109604954546
453,0.0
490,0.0
515,0.0
516,0.0
542,0.0
592,4760020.397988958
632,33000000.0
686,1.0
687,1.0
688,2.0
2,21, 1,21, 0, 2,10.00,20.00,Monday
250,-0.8368931258732377
251,38018952.22191483
336,0.0
385,19.293450630208635
386,26.672634489941597
387,-1.0349466678100185
388,0.0
425,0.0
450,0.0
451,0.0
452,-2.1234446630070565
453,0.0
490,0.0
515,0.0
516,0.0
542,0.0
592,4760020.397988958
632,33000000.0
686,1.0
687,1.0
688,2.0
2,21, 1,21, 0, 2,20.00,30.00,Monday
250,-0.8369679492106984
251,38018952.11372282
336,0.0
385,19.293450630208635
386,26.672634489941597
387,-1.0502381765916564
388,0.0
425,0.0
450,0.0
451,0.0
452,-2.1549148330152788
453,0.0
490,0.0
515,0.0
516,0.0
542,0.0
592,4760020.397988958
632,33000000.0
686,1.0
687,1.0
688,2.0
2,21, 1,21, 0, 2,30.00,40.00,Monday
250,-0.8370413284946995
251,38018951.33620248
336,0.0
385,19.293450630208635
386,26.672634489941597
387,-1.064815085592678
388,0.0
425,0.0
450,0.0
451,0.0
452,-2.174297941195108
453,0.0
490,0.0
515,0.0
516,0.0
542,0.0
592,4760020.397988959
632,33000000.0
686,1.0
687,1.0
688,2.0
2,21, 1,21, 0, 2,40.00,50.00,Monday
250,-0.8371136109498863
251,38018950.745636515
336,0.0
385,19.293450630208635
386,26.672634489941597
387,-1.0785369644449232
388,0.0
425,0.0
450,0.0
451,0.0
452,-2.1844385374571336
453,0.0
490,0.0
515,0.0
516,0.0
542,0.0
592,4760020.397988958
632,33000000.0
686,1.0
687,1.0
688,2.0
2,21, 1,21, 0, 2,50.00,60.00,Monday
250,-0.8371846111666423
251,38018950.055240266
336,0.0
385,19.293450630208635
386,26.672634489941597
387,-1.0913664440597972
388,0.0
425,0.0
450,0.0
451,0.0
452,-2.188485359008928
453,0.0
490,0.0
515,0.0
516,0.0
542,0.0
592,4760020.397988959
632,33000000.0
686,1.0
687,1.0
688,2.0
2,21, 1,21, 0, 3, 0.00,10.00,Monday
250,-0.7548590289897652
251,37977123.72101455
336,0.0
385,19.293450630208635
386,26.672634489941597
387,-1.0929141147920909
388,0.0
425,0.0
450,0.0
451,0.0
452,-2.181005878867296
453,0.0
490,0.0
515,0.0
516,0.0
542,0.0
592,4762558.894114006
632,33000000.0
686,1.0
687,1.0
688,2.0
2,21, 1,21, 0, 3,10.00,20.00,Monday
250,-0.6713005767678827
251,37978887.613290414
336,0.0
385,19.293450630208635
386,26.672634489941597
387,-1.0818666186404944
388,0.0
425,0.0
450,0.0
451,0.0
452,-2.1560241521984844
453,0.0
490,0.0
515,0.0
516,0.0
542,0.0
592,4764988.435730969
632,33000000.0
686,1.0
687,1.0
688,2.0
2,21, 1,21, 0, 3,20.00,30.00,Monday
250,-0.5881746461427287
251,37981438.4557999
336,0.0
385,19.293450630208635
386,26.672634489941597
387,-1.0626315504445203
388,0.0
425,0.0
450,0.0
451,0.0
452,-2.1120922407063603
453,0.0
490,0.0
515,0.0
516,0.0
542,0.0
592,4767308.250738333
632,33000000.0
686,1.0
687,1.0
688,2.0
2,21, 1,21, 0, 3,30.00,40.00,Monday
250,-0.5050526213341857
251,37966781.4933737
336,0.0
385,19.293450630208635
386,26.672634489941597
387,-1.0390040904605335
388,0.0
425,0.0
450,0.0
451,0.0
452,-2.052343196094301
453,0.0
490,0.0
515,0.0
516,0.0
542,0.0
592,4769517.689516207
632,32983133.36241904
686,1.0
687,1.0
688,2.0
2,21, 1,21, 0, 3,40.00,50.00,Monday
250,-0.42210188297166384
251,37923706.443613715
336,0.0
385,19.293450630208635
386,26.672634489941597
387,-1.0122894014278254
388,0.0
425,0.0
450,0.0
451,0.0
452,-1.9812617973175959
453,0.0
490,0.0
515,0.0
516,0.0
542,0.0
592,4771616.115684973
632,32937869.526430745
686,1.0
687,1.0
688,2.0
2,21, 1,21, 0, 3,50.00,60.00,Monday
250,-0.3391386355531619
251,37880631.46073137
336,0.0
385,19.293450630208635
386,26.672634489941597
387,-0.982238597498353
388,0.0
425,0.0
450,0.0
451,0.0
452,-1.902466251160013
453,0.0
490,0.0
515,0.0
516,0.0
542,0.0
592,4773602.736238394
632,32892816.549338754
686,1.0
687,1.0
688,2.0
2,21, 1,21, 0, 4, 0.00,10.00,Monday
250,-0.33853584529027864
251,37881919.69437268
336,0.0
385,19.293450630208635
386,26.672634489941597
387,-0.9595075625401365
388,0.0
425,0.0
450,0.0
451,0.0
452,-1.8262453685100386
453,0.0
490,0.0
515,0.0
516,0.0
542,0.0
592,4773428.98237163
632,32849923.925562933
686,1.0
687,1.0
688,2.0
2,21, 1,21, 0, 4,10.00,20.00,Monday
250,-0.33886812500575736
251,37882154.16130979
336,0.0
385,19.293450630208635
386,26.672634489941597
387,-0.9469138509711027
388,0.0
425,0.0
450,0.0
451,0.0
452,-1.7616394336664136
453,0.0
490,0.0
515,0.0
516,0.0
542,0.0
592,4773255.169447958
632,32849828.608585246
686,1.0
687,1.0
688,2.0
2,21, 1,21, 0, 4,20.00,30.00,Monday
250,-0.33874244428945477
251,37882118.25648155
336,0.0
385,19.293450630208635
386,26.672634489941597
387,-0.9409360257960694
388,0.0
425,0.0
450,0.0
451,0.0
452,-1.712252539750159
453,0.0
490,0.0
515,0.0
516,0.0
542,0.0
592,4773081.29743726
632,32850213.21794625
686,1.0
687,1.0
688,2.0
2,21, 1,21, 0, 4,30.00,40.00,Monday
250,-0.3387138779841524
251,37882143.35021076
336,0.0
385,19.293450630208635
386,26.672634489941597
387,-0.9376965291378727
388,0.0
425,0.0
450,0.0
451,0.0
452,-1.6764245256235613
453,0.0
490,0.0
515,0.0
516,0.0
542,0.0
592,4772907.366309401
632,32850359.940212782
686,1.0
687,1.0
688,2.0
2,21, 1,21, 0, 4,40.00,50.00,Monday
250,-0.3386912251556236
251,37882169.90480572
336,0.0
385,19.293450630208635
386,26.672634489941597
387,-0.9354087700056698
388,0.0
425,0.0
450,0.0
451,0.0
452,-1.650484576245875
453,0.0
490,0.0
515,0.0
516,0.0
542,0.0
592,4772733.376034232
632,32850557.300289143
686,1.0
687,1.0
688,2.0
2,21, 1,21, 0, 4,50.00,60.00,Monday
250,-0.3386681074581574
251,37882196.11474663
336,0.0
385,19.293450630208635
386,26.672634489941597
387,-0.9338962891382016
388,0.0
425,0.0
450,0.0
451,0.0
452,-1.6313748509313646
453,0.0
490,0.0
515,0.0
516,0.0
542,0.0
592,4772559.326581575
632,32850757.810058963
686,1.0
687,1.0
688,2.0
2,21, 1,21, 0, 5, 0.00,10.00,Monday
250,-0.3386464043474392
251,37882223.119260095
336,0.0
385,19.293450630208635
386,26.672634489941597
387,-0.9332164671173641
388,0.0
425,0.0
450,0.0
451,0.0
452,-1.616480041933754
453,0.0
490,0.0
515,0.0
516,0.0
542,0.0
592,4759720.858689581
632,32863622.520624395
686,1.0
687,1.0
688,2.0
2,21, 1,21, 0, 5,10.00,20.00,Monday
250,-0.3386164028279622
251,37883520.90145636
336,0.0
385,19.293450630208635
386,26.672634489941597
387,-0.9332340080524253
388,0.0
425,0.0
450,0.0
451,0.0
452,-1.6034892580138533
453,0.0
490,0.0
515,0.0
516,0.0
542,0.0
592,4746877.262331866
632,32877768.369005546
686,1.0
687,1.0
688,2.0
2,21, 1,21, 0, 5,20.00,30.00,Monday
250,-0.33858634526339143
251,37884838.58266505
336,0.0
385,19.293450630208635
386,26.672634489941597
387,-0.9337191496639725
388,0.0
425,0.0
450,0.0
451,0.0
452,-1.5910009852751414
453,0.0
490,0.0
515,0.0
516,0.0
542,0.0
592,4734028.534436011
632,32891934.808865283
686,1.0
687,1.0
688,2.0
2,21, 1,21, 0, 5,30.00,40.00,Monday
250,-0.33855644749404146
251,37886149.7809819
336,0.0
385,19.293450630208635
386,26.672634489941597
387,-0.9344678669770343
388,0.0
425,0.0
450,0.0
451,0.0
452,-1.5785823028897756
453,0.0
490,0.0
515,0.0
516,0.0
542,0.0
592,4721174.671927154
632,32906099.78418839
686,1.0
687,1.0
688,2.0
2,21, 1,21, 0, 5,40.00,50.00,Monday
250,-0.338526492300439
251,37887462.89908193
336,0.0
385,19.293450630208635
386,26.672634489941597
387,-0.9353440045178739
388,0.0
425,0.0
450,0.0
451,0.0
452,-1.5663024513730388
453,0.0
490,0.0
515,0.0
516,0.0
542,0.0
592,4708315.671727969
632,32920271.933983862
686,1.0
687,1.0
688,2.0
2,21, 1,21, 0, 5,50.00,60.00,Monday
250,-0.3384964075816473
251,37888776.56412841
336,0.0
385,19.293450630208635
386,26.672634489941597
387,-0.936268409832552
388,0.0
425,0.0
450,0.0
451,0.0
452,-1.554312620407703
453,0.0
490,0.0
515,0.0
516,0.0
542,0.0
592,4695451.530758675
632,32934449.81033647
686,1.0
687,1.0
688,2.0
2,21, 1,21, 0, 6, 0.00,10.00,Monday
250,-0.3384649555756633
251,37890090.00581208
336,0.0
385,19.293450630208635
386,26.672634489941597
387,-0.9373279070818897
388,0.0
425,0.0
450,0.0
451,0.0
452,-1.5433099668841657
453,0.0
490,0.0
515,0.0
516,0.0
542,0.0
592,4695264.08225586
632,32935951.43762547
686,1.0
687,1.0
688,2.0
2,21, 1,21, 0, 6,10.00,20.00,Monday
250,-0.3384420387087997
251,37890131.589512296
336,0.0
385,19.293450630208635
386,26.672634489941597
387,-0.9386058876753424
388,0.0
425,0.0
450,0.0
451,0.0
452,-1.5341086513565587
453,0.0
490,0.0
515,0.0
516,0.0
542,0.0
592,4695076.569900009
632,32936175.935970265
686,1.0
687,1.0
688,2.0
2,21, 1,21, 0, 6,20.00,30.00,Monday
250,-0.33841916878675765
251,37890153.77902114
336,0.0
385,19.293450630208635
386,26.672634489941597
387,-0.9400964350118902
388,0.0
425,0.0
450,0.0
451,0.0
452,-1.5270332388739012
453,0.0
490,0.0
515,0.0
516,0.0
542,0.0
592,4694888.993658493
632,32936385.676443446
686,1.0
687,1.0
688,2.0
2,21, 1,21, 0, 6,30.00,40.00,Monday
250,-0.3383958342117042
251,37890182.83841953
336,0.0
385,19.293450630208635
386,26.672634489941597
387,-0.9417572962723351
388,0.0
425,0.0
450,0.0
451,0.0
452,-1.5218753830379221
453,0.0
490,0.0
515,0.0
516,0.0
542,0.0
592,4694701.353498662
632,32936602.626316447
686,1.0
687,1.0
688,2.0
2,21, 1,21, 0, 6,40.00,50.00,Monday
250,-0.3383723849952748
251,37890210.42570869
336,0.0
385,19.293450630208635
386,26.672634489941597
387,-0.9435564323893196
388,0.0
425,0.0
450,0.0
451,0.0
452,-1.5181862995187974
453,0.0
490,0.0
515,0.0
516,0.0
542,0.0
592,4694513.649387832
632,32936817.979485348
686,1.0
687,1.0
688,2.0
2,21, 1,21, 0, 6,50.00,60.00,Monday
250,-0.3383486587255312
251,37890237.789442085
336,0.0
385,19.293450630208635
386,26.672634489941597
387,-0.9454766520675527
388,0.0
425,0.0
450,0.0
451,0.0
452,-1.5155466344444162
453,0.0
490,0.0
515,0.0
516,0.0
542,0.0
592,4694325.881293308
632,32937033.260571215
686,1.0
687,1.0
688,2.0
2,21, 1,21, 0, 7, 0.00,10.00,Monday
250,-0.3389479720209111
251,37890600.80551525
336,0.0
385,19.293450630208635
386,26.672634489941597
387,-0.9499392208284174
388,0.0
425,0.0
450,0.0
451,0.0
452,-1.5188243887953883
453,0.0
490,0.0
515,0.0
516,0.0
542,0.0
592,4723573.583255435
632,32907812.95205531
686,1.0
687,1.0
688,2.0
2,21, 1,21, 0, 7,10.00,20.00,Monday
250,-0.3389263881026176
251,37887686.19926127
336,0.0
385,19.293450630208635
386,26.672634489941597
387,-0.9591170498830924
388,0.0
425,0.0
450,0.0
451,0.0
452,-1.537494350691682
453,0.0
490,0.0
515,0.0
516,0.0
542,0.0
592,4752837.186047653
632,32875969.21070425
686,1.0
687,1.0
688,2.0
2,21, 1,21, 0, 7,20.00,30.00,Monday
250,-0.3388898316359081
251,37884717.16818503
336,0.0
385,19.293450630208635
386,26.672634489941597
387,-0.9732511965726649
388,0.0
425,0.0
450,0.0
451,0.0
452,-1.5769252836412877
453,0.0
490,0.0
515,0.0
516,0.0
542,0.0
592,4782116.702651945
632,32843728.72637395
686,1.0
687,1.0
688,2.0
2,21, 1,21, 0, 7,30.00,40.00,Monday
250,-0.33885640633279884
251,37881764.611556634
336,0.0
385,19.293450630208635
386,26.672634489941597
387,-0.991387205318726
388,0.0
425,0.0
450,0.0
451,0.0
452,-1.6347306192031654
453,0.0
490,0.0
515,0.0
516,0.0
542,0.0
592,4811412.146064443
632,32811479.038485315
686,1.0
687,1.0
688,2.0
2,21, 1,21, 0, 7,40.00,50.00,Monday
250,-0.3388217298345368
251,37878806.51026377
336,0.0
385,19.293450630208635
386,26.672634489941597
387,-1.012446679178511
388,0.0
425,0.0
450,0.0
451,0.0
452,-1.7046555171450286
453,0.0
490,0.0
515,0.0
516,0.0
542,0.0
592,4840723.529295459
632,32779210.22635724
686,1.0
687,1.0
688,2.0
2,21, 1,21, 0, 7,50.00,60.00,Monday
250,-0.33878657941213447
251,37875846.360327676
336,0.0
385,19.293450630208635
386,26.672634489941597
387,-1.0356828346186342
388,0.0
425,0.0
450,0.0
451,0.0
452,-1.7810083750716672
453,0.0
490,0.0
515,0.0
516,0.0
542,0.0
592,4870050.865369484
632,32746922.994094554
686,1.0
687,1.0
688,2.0
2,21, 1,21, 0, 8, 0.00,10.00,Monday
250,-0.13853355810497983
251,37765080.234931864
336,0.0
385,19.293450630208635
386,26.672634489941597
387,-1.0318027831333911
388,0.0
425,0.0
450,0.0
451,0.0
452,-1.8399563379529866
453,0.0
490,0.0
515,0.0
516,0.0
542,0.0
592,4889730.300311493
632,32724281.852693155
686,1.0
687,1.0
688,2.0
2,21, 1,21, 0, 8,10.00,20.00,Monday
250,0.061805644263634454
251,37659527.86977971
336,0.0
385,19.293450630208635
386,26.672634489941597
387,-0.9902903812277326
388,0.0
425,0.0
450,0.0
451,0.0
452,-1.8310992954439407
453,0.0
490,0.0
515,0.0
516,0.0
542,0.0
592,4909380.719869504
632,32599132.10911961
686,1.0
687,1.0
688,2.0
2,21, 1,21, 0, 8,20.00,30.00,Monday
250,0.26088297873817506
251,37554733.97566312
336,0.0
385,19.293450630208635
386,26.672634489941597
387,-0.9192972461204618
388,0.0
425,0.0
450,0.0
451,0.0
452,-1.7236660531359418
453,0.0
490,0.0
515,0.0
516,0.0
542,0.0
592,4929009.6156952735
632,32474036.702480808
686,1.0
687,1.0
688,2.0
2,21, 1,21, 0, 8,30.00,40.00,Monday
250,0.4603056973049459
251,37449723.85630094
336,0.0
385,19.293450630208635
386,26.672634489941597
387,-0.8290440827944502
388,0.0
425,0.0
450,0.0
451,0.0
452,-1.5280280010750755
453,0.0
490,0.0
515,0.0
516,0.0
542,0.0
592,4952863.6467726575
632,32345365.366689466
686,1.0
687,1.0
688,2.0
2,21, 1,21, 0, 8,40.00,50.00,Monday
250,0.659791735157064
251,37344271.6471683
336,0.0
385,19.293450630208635
386,26.672634489941597
387,-0.7274836431762159
388,0.0
425,0.0
450,0.0
451,0.0
452,-1.2525586995268019
453,0.0
490,0.0
515,0.0
516,0.0
542,0.0
592,4977062.298687916
632,32215754.297355544
686,1.0
687,1.0
688,2.0
2,21, 1,21, 0, 8,50.00,60.00,Monday
250,0.8597637293398642
251,37239492.72684391
336,0.0
385,19.293450630208635
386,26.672634489941597
387,-0.631626895429368
388,0.0
425,0.0
450,0.0
451,0.0
452,-0.9396495696434211
453,0.0
490,0.0
515,0.0
516,0.0
542,0.0
592,5001395.306277513
632,32033553.365796506
686,1.0
687,1.0
688,2.0
2,21, 1,21, 0, 9, 0.00,10.00,Monday
250,1.1256960578390536
251,37100232.850693464
336,0.0
385,19.293450630208635
386,26.672634489941597
387,-0.4932688477105406
388,0.0
425,0.0
450,0.0
451,0.0
452,-0.4602752985824531
453,0.0
490,0.0
515,0.0
516,0.0
542,0.0
592,5029363.153609448
632,31882966.502134334
686,1.0
687,1.0
688,2.0
2,21, 1,21, 0, 9,10.00,20.00,Monday
250,1.3915169677154569
251,36960075.58086489
336,0.0
385,19.293450630208635
386,26.672634489941597
387,-0.3425132543543469
388,0.0
425,0.0
450,0.0
451,0.0
452,0.06394790717354734
453,0.0
490,0.0
515,0.0
516,0.0
542,0.0
592,5057356.862312016
632,31714792.140620984
686,1.0
687,1.0
688,2.0
2,21, 1,21, 0, 9,20.00,30.00,Monday
250,1.6574329238493135
251,36819862.96672107
336,0.0
385,19.293450630208635
386,26.672634489941597
387,-0.18260781285825584
388,0.0
425,0.0
450,0.0
451,0.0
452,0.6286506087470133
453,0.0
490,0.0
515,0.0
516,0.0
542,0.0
592,5085392.284952975
632,31546570.281514302
686,1.0
687,1.0
688,2.0
2,21, 1,21, 0, 9,30.00,40.00,Monday
250,1.9232995215441073
251,36679674.81186665
336,0.0
385,19.293450630208635
386,26.672634489941597
387,-0.012842884131864725
388,0.0
425,0.0
450,0.0
451,0.0
452,1.2232863732416677
453,0.0
490,0.0
515,0.0
516,0.0
542,0.0
592,5113485.892141593
632,31378276.467787806
686,1.0
687,1.0
688,2.0
2,21, 1,21, 0, 9,40.00,50.00,Monday
250,2.189354081183284
251,36538388.44908258
336,0.0
385,19.29345063020865
386,26.672634489941622
387,0.13234945160478773
388,0.0
425,0.0
450,0.0
451,0.0
452,1.7249725993624077
453,0.0
490,0.0
515,0.0
516,0.0
542,0.0
592,5141654.529350725
632,31185629.264106154
686,1.0000000000000009
687,1.0000000000000009
688,2.0000000000000018
2,21, 1,21, 0, 9,50.00,60.00,Monday
250,2.4555252580989673
251,36397502.6004626
336,0.0
385,19.293450630208635
386,26.672634489941597
387,0.2845153444801115
388,0.0
425,0.0
450,0.0
451,0.0
452,2.2654610508980513
453,0.0
490,0.0
515,0.0
516,0.0
542,0.0
592,5169915.672059795
632,31041067.91091954
686,1.0
687,1.0
688,2.0
2,21, 1,21, 0,10, 0.00,10.00,Monday
250,2.919365005305627
251,36151389.061449364
336,0.0
385,19.293450630208635
386,26.672634489941593
387,0.4750057005468644
388,0.0
425,0.0
450,0.0
451,0.0
452,2.8247458913381234
453,0.0
490,0.0
515,0.0
516,0.0
542,0.0
592,5241404.10703412
632,30734444.635778684
686,1.0
687,1.0
688,2.0
2,21, 1,21, 0,10,10.00,20.00,Monday
250,3.383957083181651
251,35905495.33553997
336,0.0
385,19.293450630208632
386,26.672634489941593
387,0.7660546122389009
388,0.0
425,0.0
450,0.0
451,0.0
452,3.5796398151018964
453,0.0
490,0.0
515,0.0
516,0.0
542,0.0
592,5315291.857316207
632,30413732.866992004
686,1.0
687,1.0
688,2.0
2,21, 1,21, 0,10,20.00,30.00,Monday
250,3.84874967923402
251,35658223.29053431
336,0.0
385,19.29345063020863
386,26.672634489941586
387,1.0464299114452458
388,0.0
425,0.0
450,0.0
451,0.0
452,4.26853704560665
453,0.0
490,0.0
515,0.0
516,0.0
542,0.0
592,5391793.298050372
632,30090037.77401101
686,0.9999999999999996
687,0.9999999999999996
688,1.9999999999999991
2,21, 1,21, 0,10,30.00,40.00,Monday
250,4.3136649347914595
251,35410751.25947029
336,0.0
385,19.293450630208643
386,26.672634489941608
387,1.3281850516960614
388,0.0
425,0.0
450,0.0
451,0.0
452,4.970472979717324
453,0.0
490,0.0
515,0.0
516,0.0
542,0.0
592,5471132.199313744
632,29763293.480031975
686,1.0000000000000004
687,1.0000000000000004
688,2.000000000000001
2,21, 1,21, 0,10,40.00,50.00,Monday
250,4.7787543374352195
251,35163044.56999793
336,0.0
385,19.29345063020865
386,26.672634489941622
387,1.61831311840642
388,0.0
425,0.0
450,0.0
451,0.0
452,5.7345813534372585
453,0.0
490,0.0
515,0.0
516,0.0
542,0.0
592,5553542.375759333
632,29433254.753340457
686,1.0000000000000009
687,1.0000000000000009
688,2.0000000000000018
2,21, 1,21, 0,10,50.00,60.00,Monday
250,5.24385309357961
251,34915185.27212474
336,0.0
385,19.29345063020865
386,26.672634489941622
387,1.9185274770541234
388,0.0
425,0.0
450,0.0
451,0.0
452,6.5636261878770465
453,0.0
490,0.0
515,0.0
516,0.0
542,0.0
592,5639267.778995938
632,29099720.82043047
686,1.0000000000000009
687,1.0000000000000009
688,2.0000000000000018
2,21, 1,21, 0,11, 0.00,10.00,Monday
250,5.527317968251209
251,34764345.28747177
336,0.0
385,19.293450630208635
386,26.672634489941593
387,2.205027672221716
388,0.0
425,0.0
450,0.0
451,0.0
452,7.4188426698515
453,0.0
490,0.0
515,0.0
516,0.0
542,0.0
592,5689519.861596226
632,28866263.010007888
686,1.0
687,1.0
688,2.0
2,21, 1,21, 0,11,10.00,20.00,Monday
250,5.810216415654681
251,34613753.36654935
336,0.0
385,19.293450630208632
386,26.672634489941593
387,2.4747925050109165
388,0.0
425,0.0
450,0.0
451,0.0
452,8.269358210915303
453,0.0
490,0.0
515,0.0
516,0.0
542,0.0
592,5740969.350869595
632,28664135.66241911
686,1.0
687,1.0
688,2.0
2,21, 1,21, 0,11,20.00,30.00,Monday
250,6.093162155720016
251,34463086.373318
336,0.0
385,19.29345063020863
386,26.672634489941586
387,2.7469508861032703
388,0.0
425,0.0
450,0.0
451,0.0
452,9.115956223390713
453,0.0
490,0.0
515,0.0
516,0.0
542,0.0
592,5793671.095282218
632,28460792.074746862
686,0.9999999999999996
687,0.9999999999999996
688,1.9999999999999991
2,21, 1,21, 0,11,30.00,40.00,Monday
250,6.375906167944515
251,34312475.28886211
336,0.0
385,19.293450630208643
386,26.672634489941608
387,3.024284902721365
388,0.0
425,0.0
450,0.0
451,0.0
452,9.937771699461033
453,0.0
490,0.0
515,0.0
516,0.0
542,0.0
592,5847681.427966584
632,28256151.850944135
686,1.0000000000000004
687,1.0000000000000004
688,2.000000000000001
2,21, 1,21, 0,11,40.00,50.00,Monday
250,6.658563394514312
251,34161857.019538485
336,0.0
385,19.29345063020865
386,26.672634489941622
387,3.3033931275700863
388,0.0
425,0.0
450,0.0
451,0.0
452,10.683326508860372
453,0.0
490,0.0
515,0.0
516,0.0
542,0.0
592,5903058.082199926
632,28050159.27701035
686,1.0000000000000009
687,1.0000000000000009
688,2.0000000000000018
2,21, 1,21, 0,11,50.00,60.00,Monday
250,6.94110320239199
251,34011246.60589488
336,0.0
385,19.29345063020865
386,26.672634489941622
387,3.5804232300610725
388,0.0
425,0.0
450,0.0
451,0.0
452,11.319155345862088
453,0.0
490,0.0
515,0.0
516,0.0
542,0.0
592,5959860.237244541
632,27842744.040536188
686,1.0000000000000009
687,1.0000000000000009
688,2.0000000000000018
2,21, 1,21, 0,12, 0.00,10.00,Monday
250,7.207777801218349
251,33869128.09357184
336,0.0
385,19.293450630208635
386,26.672634489941597
387,3.8204308343410958
388,0.0
425,0.0
450,0.0
451,0.0
452,11.818265919496948
453,0.0
490,0.0
515,0.0
516,0.0
542,0.0
592,5991096.197635707
632,27691709.091861866
686,1.0
687,1.0
688,2.0
2,21, 1,21, 0,12,10.00,20.00,Monday
250,7.473242561633717
251,33731140.09877436
336,0.0
385,19.293450630208635
386,26.672634489941597
387,4.112825780716782
388,0.0
425,0.0
450,0.0
451,0.0
452,12.382257092399175
453,0.0
490,0.0
515,0.0
516,0.0
542,0.0
592,7572016.881221028
632,25970979.71770055
686,1.0
687,1.0
688,2.0
2,21, 1,21, 0,12,20.00,30.00,Monday
250,7.739308519881211
251,33591106.47376534
336,0.0
385,19.293450630208635
386,26.672634489941597
387,4.381951026195356
388,0.0
425,0.0
450,0.0
451,0.0
452,12.89719727118555
453,0.0
490,0.0
515,0.0
516,0.0
542,0.0
592,7609409.155487606
632,25793708.885947213
686,1.0
687,1.0
688,2.0
2,21, 1,21, 0,12,30.00,40.00,Monday
250,8.005302440336965
251,33451112.882952474
336,0.0
385,19.293450630208635
386,26.672634489941597
387,4.640773702718496
388,0.0
425,0.0
450,0.0
451,0.0
452,13.389051445237069
453,0.0
490,0.0
515,0.0
516,0.0
542,0.0
592,7646583.592010484
632,25616521.33326208
686,1.0
687,1.0
688,2.0
2,21, 1,21, 0,12,40.00,50.00,Monday
250,8.271270202289077
251,33311133.098650232
336,0.0
385,19.293450630208635
386,26.672634489941597
387,4.895207030993289
388,0.0
425,0.0
450,0.0
451,0.0
452,13.83114582720279
453,0.0
490,0.0
515,0.0
516,0.0
542,0.0
592,7683540.190789654
632,25439578.077594068
686,1.0
687,1.0
688,2.0
2,21, 1,21, 0,12,50.00,60.00,Monday
250,8.537230261268203
251,33171156.686047588
336,0.0
385,19.293450630208635
386,26.672634489941597
387,5.144159621977936
388,0.0
425,0.0
450,0.0
451,0.0
452,14.198919927774657
453,0.0
490,0.0
515,0.0
516,0.0
542,0.0
592,7720278.951825123
632,25262861.30640825
686,1.0
687,1.0
688,2.0
2,21, 1,21, 0,13, 0.00,10.00,Monday
250,8.720235655312633
251,33072467.65566548
336,0.0
385,19.293450630208635
386,26.672634489941597
387,5.37655408065336
388,0.0
425,0.0
450,0.0
451,0.0
452,14.490152237002938
453,0.0
490,0.0
515,0.0
516,0.0
542,0.0
592,7745410.487127082
632,25165165.880291294
686,1.0
687,1.0
688,2.0
2,21, 1,21, 0,13,10.00,20.00,Monday
250,8.902893494915125
251,32977958.56279872
336,0.0
385,19.293450630208635
386,26.672634489941597
387,5.595351037213988
388,0.0
425,0.0
450,0.0
451,0.0
452,14.719414189667816
453,0.0
490,0.0
515,0.0
516,0.0
542,0.0
592,7770439.060057996
632,25047220.020828508
686,1.0
687,1.0
688,2.0
2,21, 1,21, 0,13,20.00,30.00,Monday
250,9.086008928319728
251,32883300.854184918
336,0.0
385,19.293450630208635
386,26.672634489941597
387,5.800263103639296
388,0.0
425,0.0
450,0.0
451,0.0
452,14.902603616810708
453,0.0
490,0.0
515,0.0
516,0.0
542,0.0
592,7795364.670617863
632,24927896.26319187
686,1.0
687,1.0
688,2.0
2,21, 1,21, 0,13,30.00,40.00,Monday
250,9.26898744759884
251,32788747.07080725
336,0.0
385,19.293450630208635
386,26.672634489941597
387,5.995310086480311
388,0.0
425,0.0
450,0.0
451,0.0
452,15.051476784347365
453,0.0
490,0.0
515,0.0
516,0.0
542,0.0
592,7820187.318806683
632,24808458.647118486
686,1.0
687,1.0
688,2.0
2,21, 1,21, 0,13,40.00,50.00,Monday
250,9.451971078843181
251,32694224.025794543
336,0.0
385,19.293450630208635
386,26.672634489941597
387,6.184242429602571
388,0.0
425,0.0
450,0.0
451,0.0
452,15.17081213106693
453,0.0
490,0.0
515,0.0
516,0.0
542,0.0
592,7844907.0046244515
632,24689231.58082904
686,1.0
687,1.0
688,2.0
2,21, 1,21, 0,13,50.00,60.00,Monday
250,9.634948810619727
251,32599737.333348498
336,0.0
385,19.293450630208635
386,26.672634489941597
387,6.3683600931159585
388,0.0
425,0.0
450,0.0
451,0.0
452,15.26424097267939
453,0.0
490,0.0
515,0.0
516,0.0
542,0.0
592,7869523.728071173
632,24570138.06232577
686,1.0
687,1.0
688,2.0
2,21, 1,21, 0,14, 0.00,10.00,Monday
250,9.834877120477572
251,32496128.69373592
336,0.0
385,19.293450630208635
386,26.672634489941597
387,6.550502106280294
388,0.0
425,0.0
450,0.0
451,0.0
452,15.320360305487915
453,0.0
490,0.0
515,0.0
516,0.0
542,0.0
592,7896260.907308879
632,24448960.780985128
686,1.0
687,1.0
688,2.0
2,21, 1,21, 0,14,10.00,20.00,Monday
250,10.034468350863982
251,32392304.513690118
336,0.0
385,19.293450630208635
386,26.672634489941597
387,6.730800213798255
388,0.0
425,0.0
450,0.0
451,0.0
452,15.320849769535467
453,0.0
490,0.0
515,0.0
516,0.0
542,0.0
592,7922875.552815756
632,24318353.13461873
686,1.0
687,1.0
688,2.0
2,21, 1,21, 0,14,20.00,30.00,Monday
250,10.233954944074926
251,32288551.21215875
336,0.0
385,19.293450630208635
386,26.672634489941597
387,6.907096562722812
388,0.0
425,0.0
450,0.0
451,0.0
452,15.265241615145406
453,0.0
490,0.0
515,0.0
516,0.0
542,0.0
592,7949367.664591794
632,24188064.56863651
686,1.0
687,1.0
688,2.0
2,21, 1,21, 0,14,30.00,40.00,Monday
250,10.43337101940974
251,32184860.75457642
336,0.0
385,19.293450630208635
386,26.672634489941597
387,7.07343874402822
388,0.0
425,0.0
450,0.0
451,0.0
452,15.143010496878393
453,0.0
490,0.0
515,0.0
516,0.0
542,0.0
592,7975737.242637003
632,24057979.973868333
686,1.0
687,1.0
688,2.0
2,21, 1,21, 0,14,40.00,50.00,Monday
250,10.63272432227368
251,32081226.22779984
336,0.0
385,19.293450630208635
386,26.672634489941597
387,7.226133017537551
388,0.0
425,0.0
450,0.0
451,0.0
452,14.934435209995653
453,0.0
490,0.0
515,0.0
516,0.0
542,0.0
592,8001984.286951375
632,23928078.18438979
686,1.0
687,1.0
688,2.0
2,21, 1,21, 0,14,50.00,60.00,Monday
250,10.832033033314744
251,31977638.287114486
336,0.0
385,19.293450630208635
386,26.672634489941597
387,7.365469626306433
388,0.0
425,0.0
450,0.0
451,0.0
452,14.642553589512648
453,0.0
490,0.0
515,0.0
516,0.0
542,0.0
592,8028108.797534912
632,23798355.499951605
686,1.0
687,1.0
688,2.0
2,21, 1,21, 0,15, 0.00,10.00,Monday
250,11.097831720147443
251,31838864.015343536
336,0.0
385,19.293450630208635
386,26.672634489941597
387,7.486450587567024
388,0.0
425,0.0
450,0.0
451,0.0