Program Version,EnergyPlus, Version 24.2.0-94a887817b, YMD=2025.02.04 15:40
1,5,Environment Title[],Latitude[deg],Longitude[deg],Time Zone[],Elevation[m]
2,8,Day of Simulation[],Month[],Day of Month[],DST Indicator[1=yes 0=no],Hour[],StartMinute[],EndMinute[],DayType
3,5,Cumulative Day of Simulation[],Month[],Day of Month[],DST Indicator[1=yes 0=no],DayType  ! When Daily Report Variables Requested
4,2,Cumulative Days of Simulation[],Month[]  ! When Monthly Report Variables Requested
5,1,Cumulative Days of Simulation[] ! When Run Period Report Variables Requested
6,1,Calendar Year of Simulation[] ! When Annual Report Variables Requested
250,1,LIVING ZONE,Zone Air Temperature [C] !TimeStep,REPORTSCH
251,1,LIVING ZONE,Zone Air System Sensible Heating Energy [J] !TimeStep,REPORTSCH
336,1,LIVING ZONE,Zone Air System Sensible Cooling Energy [J] !TimeStep,REPORTSCH
385,1,LIVING ZONE,Zone Thermostat Heating Setpoint Temperature [C] !TimeStep,REPORTSCH
386,1,LIVING ZONE,Zone Thermostat Cooling Setpoint Temperature [C] !TimeStep,REPORTSCH
387,1,GARAGE ZONE,Zone Air Temperature [C] !TimeStep,REPORTSCH
388,1,GARAGE ZONE,Zone Air System Sensible Heating Energy [J] !TimeStep,REPORTSCH
425,1,GARAGE ZONE,Zone Air System Sensible Cooling Energy [J] !TimeStep,REPORTSCH
450,1,GARAGE ZONE,Zone Thermostat Heating Setpoint Temperature [C] !TimeStep,REPORTSCH
451,1,GARAGE ZONE,Zone Thermostat Cooling Setpoint Temperature [C] !TimeStep,REPORTSCH
452,1,ATTIC ZONE,Zone Air Temperature [C] !TimeStep,REPORTSCH
453,1,ATTIC ZONE,Zone Air System Sensible Heating Energy [J] !TimeStep,REPORTSCH
490,1,ATTIC ZONE,Zone Air System Sensible Cooling Energy [J] !TimeStep,REPORTSCH
515,1,ATTIC ZONE,Zone Thermostat Heating Setpoint Temperature [C] !TimeStep,REPORTSCH
516,1,ATTIC ZONE,Zone Thermostat Cooling Setpoint Temperature [C] !TimeStep,REPORTSCH
542,1,ACDXCOIL 1,Cooling Coil Total Cooling Energy [J] !TimeStep,REPORTSCH
592,1,HEAT PUMP DX HEATING COIL 1,Heating Coil Heating Energy [J] !TimeStep,REPORTSCH
632,1,SUPP HEATING COIL 1,Heating Coil Heating Energy [J] !TimeStep,REPORTSCH
686,1,TWOSPEED HEAT PUMP 1,Unitary System DX Coil Cycling Ratio [] !TimeStep,REPORTSCH
687,1,TWOSPEED HEAT PUMP 1,Unitary System DX Coil Speed Ratio [] !TimeStep,REPORTSCH
688,1,TWOSPEED HEAT PUMP 1,Unitary System DX Coil Speed Level [] !TimeStep,REPORTSCH
End of Data Dictionary
1,RUN PERIOD 1,  41.98, -87.92,  -6.00, 201.00
2,21, 1,21, 0, 1, 0.00,10.00,Monday
250,-0.84402958850276
251,38098133.306685336
336,0.0
385,22.84488603674627
386,26.074120385526857
387,-0.9478666319182452
388,0.0
425,0.0
450,0.0
451,0.0
452,-1.9752674963401147
453,0.0
490,0.0
515,0.0
516,0.0
542,0.0
592,4839743.985079641
632,33000000.0
686,1.0
687,1.0
688,2.0
2,21, 1,21, 0, 1,10.00,20.00,Monday
250,-0.8441767816747148
251,38082772.340631776
336,0.0
385,22.84488603674627
386,26.074120385526857
387,-0.9562264855983555
388,0.0
425,0.0
450,0.0
451,0.0
452,-1.9571207947255345
453,0.0
490,0.0
515,0.0
516,0.0
542,0.0
592,4823801.676011793
632,33000000.0
686,1.0
687,1.0
688,2.0
2,21, 1,21, 0, 1,20.00,30.00,Monday
250,-0.8443614082250949
251,38066848.98274573
336,0.0
385,22.84488603674627
386,26.074120385526857
387,-0.9658221413742115
388,0.0
425,0.0
450,0.0
451,0.0
452,-1.95404262875664
453,0.0
490,0.0
515,0.0
516,0.0
542,0.0
592,4807858.16290522
632,33000000.0
686,1.0
687,1.0
688,2.0
2,21, 1,21, 0, 1,30.00,40.00,Monday
250,-0.8445418698806273
251,38050902.02756125
336,0.0
385,22.84488603674627
386,26.074120385526857
387,-0.9768583140976526
388,0.0
425,0.0
450,0.0
451,0.0
452,-1.9669179158893073
453,0.0
490,0.0
515,0.0
516,0.0
542,0.0
592,4791913.445623511
632,33000000.0
686,1.0
687,1.0
688,2.0
2,21, 1,21, 0, 1,40.00,50.00,Monday
250,-0.844723690403335
251,38034956.84177797
336,0.0
385,22.84488603674627
386,26.074120385526857
387,-0.9894922722841538
388,0.0
425,0.0
450,0.0
451,0.0
452,-1.9941253321874977
453,0.0
490,0.0
515,0.0
516,0.0
542,0.0
592,4775967.524030239
632,33000000.0
686,1.0
687,1.0
688,2.0
2,21, 1,21, 0, 1,50.00,60.00,Monday
250,-0.8449060718037892
251,38019010.021967806
336,0.0
385,22.84488603674627
386,26.074120385526857
387,-1.003912787138309
388,0.0
425,0.0
450,0.0
451,0.0
452,-2.0341361224700725
453,0.0
490,0.0
515,0.0
516,0.0
542,0.0
592,4760020.397988958
632,33000000.0
686,1.0
687,1.0
688,2.0
2,21, 1,21, 0, 2, 0.00,10.00,Monday
250,-0.8449812527135506
251,38018952.30623989
336,0.0
385,22.84488603674627
386,26.074120385526857
387,-1.019437113696455
388,0.0
425,0.0
450,0.0
451,0.0
452,-2.080904442866003
453,0.0
490,0.0
515,0.0
516,0.0
542,0.0
592,4760020.397988958
632,33000000.0
686,1.0
687,1.0
688,2.0
2,21, 1,21, 0, 2,10.00,20.00,Monday
250,-0.845053959188244
251,38018950.9739467
336,0.0
385,22.84488603674627
386,26.074120385526857
387,-1.0351219848729838
388,0.0
425,0.0
450,0.0
451,0.0
452,-2.12363902162946
453,0.0
490,0.0
515,0.0
516,0.0
542,0.0
592,4760020.397988958
632,33000000.0
686,1.0
687,1.0
688,2.0
2,21, 1,21, 0, 2,20.00,30.00,Monday
250,-0.8451264541934617
251,38018950.860077925
336,0.0
385,22.84488603674627
386,26.074120385526857
387,-1.0504135389271922
388,0.0
425,0.0
450,0.0
451,0.0
452,-2.1551097564124917
453,0.0
490,0.0
515,0.0
516,0.0
542,0.0
592,4760020.397988958
632,33000000.0
686,1.0
687,1.0
688,2.0
2,21, 1,21, 0, 2,30.00,40.00,Monday
250,-0.845197553393158
251,38018950.10853562
336,0.0
385,22.84488603674627
386,26.074120385526857
387,-1.0649903808137677
388,0.0
425,0.0
450,0.0
451,0.0
452,-2.174492994487443
453,0.0
490,0.0
515,0.0
516,0.0
542,0.0
592,4760020.397988958
632,33000000.0
686,1.0
687,1.0
688,2.0
2,21, 1,21, 0, 2,40.00,50.00,Monday
250,-0.8452675908417738
251,38018949.53685658
336,0.0
385,22.84488603674627
386,26.074120385526857
387,-1.0787120886991397
388,0.0
425,0.0
450,0.0
451,0.0
452,-2.1846335484375667
453,0.0
490,0.0
515,0.0
516,0.0
542,0.0
592,4760020.397988958
632,33000000.0
686,1.0
687,1.0
688,2.0
2,21, 1,21, 0, 2,50.00,60.00,Monday
250,-0.8453363861213737
251,38018948.86803492
336,0.0
385,22.84488603674627
386,26.074120385526857
387,-1.0915413053098595
388,0.0
425,0.0
450,0.0
451,0.0
452,-2.188680181989788
453,0.0
490,0.0
515,0.0
516,0.0
542,0.0
592,4760020.397988958
632,33000000.0
686,1.0
687,1.0
688,2.0
2,21, 1,21, 0, 3, 0.00,10.00,Monday
250,-0.762979781093452
251,37977107.01736706
336,0.0
385,22.84488603674627
386,26.074120385526857
387,-1.0930884411434605
388,0.0
425,0.0
450,0.0
451,0.0
452,-2.1812001530745104
453,0.0
490,0.0
515,0.0
516,0.0
542,0.0
592,4762558.894114006
632,33000000.0
686,1.0
687,1.0
688,2.0
2,21, 1,21, 0, 3,10.00,20.00,Monday
250,-0.6794279629834462
251,37978891.18483165
336,0.0
385,22.84488603674627
386,26.074120385526857
387,-1.0820397718139068
388,0.0
425,0.0
450,0.0
451,0.0
452,-2.156217549138809
453,0.0
490,0.0
515,0.0
516,0.0
542,0.0
592,4764988.4357309695
632,33000000.0
686,1.0
687,1.0
688,2.0
2,21, 1,21, 0, 3,20.00,30.00,Monday
250,-0.5962960291918326
251,37981435.222871184
336,0.0
385,22.84488603674627
386,26.074120385526857
387,-1.062802597757586
388,0.0
425,0.0
450,0.0
451,0.0
452,-2.1122845979513842
453,0.0
490,0.0
515,0.0
516,0.0
542,0.0
592,4767308.250738335
632,33000000.0
686,1.0
687,1.0
688,2.0
2,21, 1,21, 0, 3,30.00,40.00,Monday
250,-0.5131390822579375
251,37971136.40093091
336,0.0
385,22.84488603674627
386,26.074120385526857
387,-1.0391719222706317
388,0.0
425,0.0
450,0.0
451,0.0
452,-2.052534529089099
453,0.0
490,0.0
515,0.0
516,0.0
542,0.0
592,4769517.689516207
632,32987507.075883385
686,1.0
687,1.0
688,2.0
2,21, 1,21, 0, 3,40.00,50.00,Monday
250,-0.43017633568422675
251,37928055.07482797
336,0.0
385,22.84488603674627
386,26.074120385526857
387,-1.0124524508860686
388,0.0
425,0.0
450,0.0
451,0.0
452,-1.981452185848145
453,0.0
490,0.0
515,0.0
516,0.0
542,0.0
592,4771616.115684973
632,32942224.624750756
686,1.0
687,1.0
688,2.0
2,21, 1,21, 0, 3,50.00,60.00,Monday
250,-0.34720188505903443
251,37884974.243552946
336,0.0
385,22.84488603674627
386,26.074120385526857
387,-0.9823914609039179
388,0.0
425,0.0
450,0.0
451,0.0
452,-1.9026557252009375
453,0.0
490,0.0
515,0.0
516,0.0
542,0.0
592,4773602.736238394
632,32897165.36601218
686,1.0
687,1.0
688,2.0
2,21, 1,21, 0, 4, 0.00,10.00,Monday
250,-0.3466175951108424
251,37886272.62830142
336,0.0
385,22.84488603674627
386,26.074120385526857
387,-0.959660087995506
388,0.0
425,0.0
450,0.0
451,0.0
452,-1.8264340276525046
453,0.0
490,0.0
515,0.0
516,0.0
542,0.0
592,4773428.982371631
632,32854266.895860724
686,1.0
687,1.0
688,2.0
2,21, 1,21, 0, 4,10.00,20.00,Monday
250,-0.34693982682816005
251,37886501.168008424
336,0.0
385,22.84488603674627
386,26.074120385526857
387,-0.9470710389695703
388,0.0
425,0.0
450,0.0
451,0.0
452,-1.7618275020919405
453,0.0
490,0.0
515,0.0
516,0.0
542,0.0
592,4773255.169447956
632,32854181.026799183
686,1.0
687,1.0
688,2.0
2,21, 1,21, 0, 4,20.00,30.00,Monday
250,-0.34681776874359105
251,37886467.4220744
336,0.0
385,22.84488603674627
386,26.074120385526857
387,-0.9410966947692353
388,0.0
425,0.0
450,0.0
451,0.0
452,-1.712440149122933
453,0.0
490,0.0
515,0.0
516,0.0
542,0.0
592,4773081.29743726
632,32854560.432509683
686,1.0
687,1.0
688,2.0
2,21, 1,21, 0, 4,30.00,40.00,Monday
250,-0.3467901813231274
251,37886492.997150496
336,0.0
385,22.84488603674627
386,26.074120385526857
387,-0.9378577970855964
388,0.0
425,0.0
450,0.0
451,0.0
452,-1.6766115916036957
453,0.0
490,0.0
515,0.0
516,0.0
542,0.0
592,4772907.3663094025
632,32854709.059956983
686,1.0
687,1.0
688,2.0
2,21, 1,21, 0, 4,40.00,50.00,Monday
250,-0.3467681902344229
251,37886519.90728591
336,0.0
385,22.84488603674627
386,26.074120385526857
387,-0.9355688965732605
388,0.0
425,0.0
450,0.0
451,0.0
452,-1.650670926955122
453,0.0
490,0.0
515,0.0
516,0.0
542,0.0
592,4772733.376034234
632,32854906.946377423
686,1.0
687,1.0
688,2.0
2,21, 1,21, 0, 4,50.00,60.00,Monday
250,-0.3467457817496419
251,37886546.50464847
336,0.0
385,22.84488603674627
386,26.074120385526857
387,-0.9340549289368434
388,0.0
425,0.0
450,0.0
451,0.0
452,-1.6315603930999862
453,0.0
490,0.0
515,0.0
516,0.0
542,0.0
592,4772559.326581573
632,32855107.818001144
686,1.0
687,1.0
688,2.0
2,21, 1,21, 0, 5, 0.00,10.00,Monday
250,-0.3467247470495032
251,37886573.87352796
336,0.0
385,22.84488603674627
386,26.074120385526857
387,-0.9333738735793942
388,0.0
425,0.0
450,0.0
451,0.0
452,-1.6166647217845058
453,0.0
490,0.0
515,0.0
516,0.0
542,0.0
592,4759720.858689582
632,32867972.914906964
686,1.0
687,1.0
688,2.0
2,21, 1,21, 0, 5,10.00,20.00,Monday
250,-0.34669566893711246
251,37887872.730747186
336,0.0
385,22.84488603674627
386,26.074120385526857
387,-0.9333904348820895
388,0.0
425,0.0
450,0.0
451,0.0
452,-1.6036730050927392
453,0.0
490,0.0
515,0.0
516,0.0
542,0.0
592,4746877.262331865
632,32882119.70096075
686,1.0
687,1.0
688,2.0
2,21, 1,21, 0, 5,20.00,30.00,Monday
250,-0.3466665468500363
251,37889190.9023215
336,0.0
385,22.84488603674627
386,26.074120385526857
387,-0.9338747040293934
388,0.0
425,0.0
450,0.0
451,0.0
452,-1.5911837398217887
453,0.0
490,0.0
515,0.0
516,0.0
542,0.0
592,4734028.534436011
632,32896286.624667343
686,1.0
687,1.0
688,2.0
2,21, 1,21, 0, 5,30.00,40.00,Monday
250,-0.34663758032933
251,37890502.79621561
336,0.0
385,22.84488603674627
386,26.074120385526857
387,-0.9346225820841529
388,0.0
425,0.0
450,0.0
451,0.0
452,-1.578764051008998
453,0.0
490,0.0
515,0.0
516,0.0
542,0.0
592,4721174.671927155
632,32910452.29782782
686,1.0
687,1.0
688,2.0
2,21, 1,21, 0, 5,40.00,50.00,Monday
250,-0.3466085621463275
251,37891816.57624085
336,0.0
385,22.84488603674627
386,26.074120385526857
387,-0.9354979169517386
388,0.0
425,0.0
450,0.0
451,0.0
452,-1.5664832204710484
453,0.0
490,0.0
515,0.0
516,0.0
542,0.0
592,4708315.671727968
632,32924625.10642728
686,1.0
687,1.0
688,2.0
2,21, 1,21, 0, 5,50.00,60.00,Monday
250,-0.3465794225767601
251,37893130.90253194
336,0.0
385,22.84488603674627
386,26.074120385526857
387,-0.9364215786921534
388,0.0
425,0.0
450,0.0
451,0.0
452,-1.5544924542456153
453,0.0
490,0.0
515,0.0
516,0.0
542,0.0
592,4695451.530758674
632,32938803.639622804
686,1.0
687,1.0
688,2.0
2,21, 1,21, 0, 6, 0.00,10.00,Monday
250,-0.34654896307642113
251,37894445.031953245
336,0.0
385,22.84488603674627
386,26.074120385526857
387,-0.9374804138885363
388,0.0
425,0.0
450,0.0
451,0.0
452,-1.5434889854399803
453,0.0
490,0.0
515,0.0
516,0.0
542,0.0
592,4695264.08225586
632,32940305.929121487
686,1.0
687,1.0
688,2.0
2,21, 1,21, 0, 6,10.00,20.00,Monday
250,-0.3465267867257177
251,37894486.59337489
336,0.0
385,22.84488603674627
386,26.074120385526857
387,-0.9387578071264915
388,0.0
425,0.0
450,0.0
451,0.0
452,-1.5342870279606808
453,0.0
490,0.0
515,0.0
516,0.0
542,0.0
592,4695076.569900009
632,32940530.54092926
686,1.0
687,1.0
688,2.0
2,21, 1,21, 0, 6,20.00,30.00,Monday
250,-0.3465046634155194
251,37894509.3561124
336,0.0
385,22.84488603674627
386,26.074120385526857
387,-0.9402478168317634
388,0.0
425,0.0
450,0.0
451,0.0
452,-1.5272110443130973
453,0.0
490,0.0
515,0.0
516,0.0
542,0.0
592,4694888.993658494
632,32940740.851347167
686,1.0
687,1.0
688,2.0
2,21, 1,21, 0, 6,30.00,40.00,Monday
250,-0.3464821381975119
251,37894538.81488264
336,0.0
385,22.84488603674627
386,26.074120385526857
387,-0.9419081707130434
388,0.0
425,0.0
450,0.0
451,0.0
452,-1.522052537547888
453,0.0
490,0.0
515,0.0
516,0.0
542,0.0
592,4694701.35349866
632,32940958.166791707
686,1.0
687,1.0
688,2.0
2,21, 1,21, 0, 6,40.00,50.00,Monday
250,-0.3464593414245954
251,37894566.75391676
336,0.0
385,22.84488603674627
386,26.074120385526857
387,-0.943706821762152
388,0.0
425,0.0
450,0.0
451,0.0
452,-1.5183627804972095
453,0.0
490,0.0
515,0.0
516,0.0
542,0.0
592,4694513.649387831
632,32941173.95623204
686,1.0
687,1.0
688,2.0
2,21, 1,21, 0, 6,50.00,60.00,Monday
250,-0.3464362975770767
251,37894594.490714885
336,0.0
385,22.84488603674627
386,26.074120385526857
387,-0.94562657610013
388,0.0
425,0.0
450,0.0
451,0.0
452,-1.5157224864679326
453,0.0
490,0.0
515,0.0
516,0.0
542,0.0
592,4694325.881293308
632,32941389.594233163
686,1.0
687,1.0
688,2.0
2,21, 1,21, 0, 7, 0.00,10.00,Monday
250,-0.34701703941620926
251,37894947.5071748
336,0.0
385,22.84488603674627
386,26.074120385526857
387,-0.9500885757784392
388,0.0
425,0.0
450,0.0
451,0.0
452,-1.5189997084329225
453,0.0
490,0.0
515,0.0
516,0.0
542,0.0
592,4723573.583255435
632,32912169.65789675
686,1.0
687,1.0
688,2.0
2,21, 1,21, 0, 7,10.00,20.00,Monday
250,-0.3469958957344191
251,37892031.82005399
336,0.0
385,22.84488603674627
386,26.074120385526857
387,-0.9592656680917646
388,0.0
425,0.0
450,0.0
451,0.0
452,-1.537669405130483
453,0.0
490,0.0
515,0.0
516,0.0
542,0.0
592,4752837.186047653
632,32880314.594365638
686,1.0
687,1.0
688,2.0
2,21, 1,21, 0, 7,20.00,30.00,Monday
250,-0.34696054650475117
251,37889063.485376075
336,0.0
385,22.84488603674627
386,26.074120385526857
387,-0.9733989658302555
388,0.0
425,0.0
450,0.0
451,0.0
452,-1.5771001741481447
453,0.0
490,0.0
515,0.0
516,0.0
542,0.0
592,4782116.702651945
632,32848074.39334354
686,1.0
687,1.0
688,2.0
2,21, 1,21, 0, 7,30.00,40.00,Monday
250,-0.34692812079023794
251,37886111.03449761
336,0.0
385,22.84488603674627
386,26.074120385526857
387,-0.9915340949138755
388,0.0
425,0.0
450,0.0
451,0.0
452,-1.6349050359636215
453,0.0
490,0.0
515,0.0
516,0.0
542,0.0
592,4811412.146064445
632,32815824.923086546
686,1.0
687,1.0
688,2.0
2,21, 1,21, 0, 7,40.00,50.00,Monday
250,-0.3468945049388413
251,37883153.1565927
336,0.0
385,22.84488603674627
386,26.074120385526857
387,-1.0125927100729275
388,0.0
425,0.0
450,0.0
451,0.0
452,-1.7048291421977
453,0.0
490,0.0
515,0.0
516,0.0
542,0.0
592,4840723.52929546
632,32783556.301507115
686,1.0
687,1.0
688,2.0
2,21, 1,21, 0, 7,50.00,60.00,Monday
250,-0.3468604376533454
251,37880193.25379193
336,0.0
385,22.84488603674627
386,26.074120385526857
387,-1.0358280539985099
388,0.0
425,0.0
450,0.0
451,0.0
452,-1.7811810805490278
453,0.0
490,0.0
515,0.0
516,0.0
542,0.0
592,4870050.865369482
632,32751269.30431373
686,1.0
687,1.0
688,2.0
2,21, 1,21, 0, 8, 0.00,10.00,Monday
250,-0.14661547728137525
251,37769431.13229222
336,0.0
385,22.84488603674627
386,26.074120385526857
387,-1.0319488273798771
388,0.0
425,0.0
450,0.0
451,0.0
452,-1.840128590156423
453,0.0
490,0.0
515,0.0
516,0.0
542,0.0
592,4889730.300311493
632,32728628.407774616
686,1.0
687,1.0
688,2.0
2,21, 1,21, 0, 8,10.00,20.00,Monday
250,0.05371240368159388
251,37663886.890174076
336,0.0
385,22.84488603674627
386,26.074120385526857
387,-0.9904396138536742
388,0.0
425,0.0
450,0.0
451,0.0
452,-1.831269201820353
453,0.0
490,0.0
515,0.0
516,0.0
542,0.0
592,4909380.719869504
632,32603485.036338102
686,1.0
687,1.0
688,2.0
2,21, 1,21, 0, 8,20.00,30.00,Monday
250,0.2528202205578408
251,37559076.17713553
336,0.0
385,22.84488603674627
386,26.074120385526857
387,-0.9194480042111869
388,0.0
425,0.0
450,0.0
451,0.0
452,-1.7238324764549686
453,0.0
490,0.0
515,0.0
516,0.0
542,0.0
592,4929009.615695275
632,32478395.319909595
686,1.0
687,1.0
688,2.0
2,21, 1,21, 0, 8,30.00,40.00,Monday
250,0.45225963264671715
251,37454057.514179125
336,0.0
385,22.84488603674627
386,26.074120385526857
387,-0.8291993991632312
388,0.0
425,0.0
450,0.0
451,0.0
452,-1.5281875317168783
453,0.0
490,0.0
515,0.0
516,0.0
542,0.0
592,4952863.646772657
632,32349708.01623432
686,1.0
687,1.0
688,2.0
2,21, 1,21, 0, 8,40.00,50.00,Monday
250,0.6517616492862284
251,37348596.8096632
336,0.0
385,22.84488603674627
386,26.074120385526857
387,-0.727644596234325
388,0.0
425,0.0
450,0.0
451,0.0
452,-1.2527277407732416
453,0.0
490,0.0
515,0.0
516,0.0
542,0.0
592,4977062.298687914
632,32220088.06672345
686,1.0
687,1.0
688,2.0
2,21, 1,21, 0, 8,50.00,60.00,Monday
250,0.8517355936408375
251,37243817.42660399
336,0.0
385,22.84488603674627
386,26.074120385526857
387,-0.631791000060458
388,0.0
425,0.0
450,0.0
451,0.0
452,-0.9398260999827877
453,0.0
490,0.0
515,0.0
516,0.0
542,0.0
592,5001395.306277511
632,32037863.5713228
686,1.0
687,1.0
688,2.0
2,21, 1,21, 0, 9, 0.00,10.00,Monday
250,1.1176943013365572
251,37104544.403224245
336,0.0
385,22.84488603674627
386,26.074120385526857
387,-0.4934362915015301
388,0.0
425,0.0
450,0.0
451,0.0
452,-0.4604571435912098
453,0.0
490,0.0
515,0.0
516,0.0
542,0.0
592,5029363.153609448
632,31887258.734469846
686,1.0
687,1.0
688,2.0
2,21, 1,21, 0, 9,10.00,20.00,Monday
250,1.3835410751735153
251,36964373.510134414
336,0.0
385,22.84488603674627
386,26.074120385526857
387,-0.3426841251294541
388,0.0
425,0.0
450,0.0
451,0.0
452,0.06376612734777092
453,0.0
490,0.0
515,0.0
516,0.0
542,0.0
592,5057356.862312016
632,31719070.705626227
686,1.0
687,1.0
688,2.0
2,21, 1,21, 0, 9,20.00,30.00,Monday
250,1.6494810610363306
251,36824148.326016985
336,0.0
385,22.84488603674627
386,26.074120385526857
387,-0.18277853615190723
388,0.0
425,0.0
450,0.0
451,0.0
452,0.6284697932730038
453,0.0
490,0.0
515,0.0
516,0.0
542,0.0
592,5085392.284952975
632,31550835.826249056
686,1.0
687,1.0
688,2.0
2,21, 1,21, 0, 9,30.00,40.00,Monday
250,1.9153720648424797
251,36683947.38029507
336,0.0
385,22.84488603674627
386,26.074120385526857
387,-0.013011959133767369
388,0.0
425,0.0
450,0.0
451,0.0
452,1.223105820397267
453,0.0
490,0.0
515,0.0
516,0.0
542,0.0
592,5113485.892141593
632,31382529.330652222
686,1.0
687,1.0
688,2.0
2,21, 1,21, 0, 9,40.00,50.00,Monday
250,2.1814457518807178
251,36542650.214055665
336,0.0
385,22.84488603674629
386,26.07412038552688
387,0.13218242168895386
388,0.0
425,0.0
450,0.0
451,0.0
452,1.7247874000961627
453,0.0
490,0.0
515,0.0
516,0.0
542,0.0
592,5141654.529350725
632,31189893.428343996
686,1.0000000000000009
687,1.0000000000000009
688,2.0000000000000018
2,21, 1,21, 0, 9,50.00,60.00,Monday
250,2.4476339743287205
251,36401755.84603219
336,0.0
385,22.84488603674627
386,26.074120385526857
387,0.2843492631501559
388,0.0
425,0.0
450,0.0
451,0.0
452,2.2652717084137444
453,0.0
490,0.0
515,0.0
516,0.0
542,0.0
592,5169915.672059795
632,31045305.79211591
686,1.0
687,1.0
688,2.0
2,21, 1,21, 0,10, 0.00,10.00,Monday
250,2.9115607520894
251,36155595.47199553
336,0.0
385,22.84488603674627
386,26.07412038552686
387,0.47484098224787386
388,0.0
425,0.0
450,0.0
451,0.0
452,2.824551683160153
453,0.0
490,0.0
515,0.0
516,0.0
542,0.0
592,5241404.10703412
632,30738664.004941206
686,1.0
687,1.0
688,2.0
2,21, 1,21, 0,10,10.00,20.00,Monday
250,3.3762189155964313
251,35909666.85325053
336,0.0
385,22.84488603674627
386,26.074120385526857
387,0.7658901473036436
388,0.0
425,0.0
450,0.0
451,0.0
452,3.5794451514210777
453,0.0
490,0.0
515,0.0
516,0.0
542,0.0
592,5315291.857316207
632,30417911.746476986
686,1.0
687,1.0
688,2.0
2,21, 1,21, 0,10,20.00,30.00,Monday
250,3.8410702643605337
251,35662363.49993993
336,0.0
385,22.844886036746264
386,26.074120385526847
387,1.0462648052078918
388,0.0
425,0.0
450,0.0
451,0.0
452,4.268336286482261
453,0.0
490,0.0
515,0.0
516,0.0
542,0.0
592,5391793.298050373
632,30094184.026441764
686,0.9999999999999996
687,0.9999999999999996
688,1.9999999999999991
2,21, 1,21, 0,10,30.00,40.00,Monday
250,4.306040199166622
251,35414862.330321
336,0.0
385,22.84488603674628
386,26.074120385526868
387,1.3280194560836247
388,0.0
425,0.0
450,0.0
451,0.0
452,4.970281049731393
453,0.0
490,0.0
515,0.0
516,0.0
542,0.0
592,5471132.199313744
632,29767409.871504035
686,1.0000000000000004
687,1.0000000000000004
688,2.000000000000001
2,21, 1,21, 0,10,40.00,50.00,Monday
250,4.771178824195758
251,35167129.426036276
336,0.0
385,22.84488603674629
386,26.07412038552688
387,1.6181471290958997
388,0.0
425,0.0
450,0.0
451,0.0
452,5.734392358419384
453,0.0
490,0.0
515,0.0
516,0.0
542,0.0
592,5553542.375759332
632,29437343.957128696
686,1.0000000000000009
687,1.0000000000000009
688,2.0000000000000018
2,21, 1,21, 0,10,50.00,60.00,Monday
250,5.236326467448694
251,34919244.07529578
336,0.0
385,22.84488603674629
386,26.07412038552688
387,1.9183611167894674
388,0.0
425,0.0
450,0.0
451,0.0
452,6.563435907976863
453,0.0
490,0.0
515,0.0
516,0.0
542,0.0
592,5639267.778995938
632,29103783.92057582
686,1.0000000000000009
687,1.0000000000000009
688,2.0000000000000018
2,21, 1,21, 0,11, 0.00,10.00,Monday
250,5.519787764186836
251,34768406.03092696
336,0.0
385,22.84488603674627
386,26.07412038552686
387,2.2048609722282064
388,0.0
425,0.0
450,0.0
451,0.0
452,7.418652222560105
453,0.0
490,0.0
515,0.0
516,0.0
542,0.0
592,5689519.861596228
632,28870320.227087744
686,1.0
687,1.0
688,2.0
2,21, 1,21, 0,11,10.00,20.00,Monday
250,5.802699144957093
251,34617807.38408096
336,0.0
385,22.84488603674627
386,26.074120385526857
387,2.474625680999325
388,0.0
425,0.0
450,0.0
451,0.0
452,8.269167187576135
453,0.0
490,0.0
515,0.0
516,0.0
542,0.0
592,5740969.350869595
632,28668189.244402446
686,1.0
687,1.0
688,2.0
2,21, 1,21, 0,11,20.00,30.00,Monday
250,6.085656792272385
251,34467134.17051873
336,0.0
385,22.844886036746264
386,26.074120385526847
387,2.7467841063027993
388,0.0
425,0.0
450,0.0
451,0.0
452,9.11576441168695
453,0.0
490,0.0
515,0.0
516,0.0
542,0.0
592,5793671.0952822175
632,28464839.2646917
686,0.9999999999999996
687,0.9999999999999996
688,1.9999999999999991
2,21, 1,21, 0,11,30.00,40.00,Monday
250,6.368419009105447
251,34316513.47494728
336,0.0
385,22.84488603674628
386,26.074120385526868
387,3.0241182262065935
388,0.0
425,0.0
450,0.0
451,0.0
452,9.937576297355141
453,0.0
490,0.0
515,0.0
516,0.0
542,0.0
592,5847681.4279665835
632,28260190.566174082
686,1.0000000000000004
687,1.0000000000000004
688,2.000000000000001
2,21, 1,21, 0,11,40.00,50.00,Monday
250,6.65109720118668
251,34165884.09959292
336,0.0
385,22.84488603674629
386,26.07412038552688
387,3.3032266226344245
388,0.0
425,0.0
450,0.0
451,0.0
452,10.683131689105739
453,0.0
490,0.0
515,0.0
516,0.0
542,0.0
592,5903058.082199926
632,28054187.386479966
686,1.0000000000000009
687,1.0000000000000009
688,2.0000000000000018
2,21, 1,21, 0,11,50.00,60.00,Monday
250,6.93366169751509
251,34015260.56558952
336,0.0
385,22.84488603674629
386,26.07412038552688
387,3.580256984059445
388,0.0
425,0.0
450,0.0
451,0.0
452,11.318963951429563
453,0.0
490,0.0
515,0.0
516,0.0
542,0.0
592,5959860.237244541
632,27846759.703328647
686,1.0000000000000009
687,1.0000000000000009
688,2.0000000000000018
2,21, 1,21, 0,12, 0.00,10.00,Monday
250,7.200337027748958
251,33873142.48220618
336,0.0
385,22.84488603674627
386,26.074120385526857
387,3.820265170079521
388,0.0
425,0.0
450,0.0
451,0.0
452,11.818073334118967
453,0.0
490,0.0
515,0.0
516,0.0
542,0.0
592,5991096.197635707
632,27695703.913825437
686,1.0
687,1.0
688,2.0
2,21, 1,21, 0,12,10.00,20.00,Monday
250,7.465838580783368
251,33735135.672475025
336,0.0
385,22.84488603674627
386,26.074120385526857
387,4.1126605019141405
388,0.0
425,0.0
450,0.0
451,0.0
452,12.382064721238173
453,0.0
490,0.0
515,0.0
516,0.0
542,0.0
592,7572016.881221028
632,25974958.524982363
686,1.0
687,1.0
688,2.0
2,21, 1,21, 0,12,20.00,30.00,Monday
250,7.731922839731337
251,33595092.62007445
336,0.0
385,22.84488603674627
386,26.074120385526857
387,4.3817862597799095
388,0.0
425,0.0
450,0.0
451,0.0
452,12.896977801216078
453,0.0
490,0.0
515,0.0
516,0.0
542,0.0
592,7609409.155487607
632,25797673.61146882
686,1.0
687,1.0
688,2.0
2,21, 1,21, 0,12,30.00,40.00,Monday
250,7.997937693242756
251,33455088.15504644
336,0.0
385,22.84488603674627
386,26.074120385526857
387,4.640609597569129
388,0.0
425,0.0
450,0.0
451,0.0
452,13.388851008922746
453,0.0
490,0.0
515,0.0
516,0.0
542,0.0
592,7646583.592010484
632,25620475.895235952
686,1.0
687,1.0
688,2.0
2,21, 1,21, 0,12,40.00,50.00,Monday
250,8.263927247038858
251,33315097.03503999
336,0.0
385,22.84488603674627
386,26.074120385526857
387,4.895043333150962
388,0.0
425,0.0
450,0.0
451,0.0
452,13.830961380500153
453,0.0
490,0.0
515,0.0
516,0.0
542,0.0
592,7683540.190789656
632,25443521.536499083
686,1.0
687,1.0
688,2.0
2,21, 1,21, 0,12,50.00,60.00,Monday
250,8.529909376741804
251,33175109.136745732
336,0.0
385,22.84488603674627
386,26.074120385526857
387,5.143996209345671
388,0.0
425,0.0
450,0.0
451,0.0
452,14.198733705675576
453,0.0
490,0.0
515,0.0
516,0.0
542,0.0
592,7720278.951825122
632,25266793.352941148
686,1.0
687,1.0
688,2.0
2,21, 1,21, 0,13, 0.00,10.00,Monday
250,8.712924814481536
251,33076412.38030573
336,0.0
385,22.84488603674627
386,26.074120385526857
387,5.376391036171456
388,0.0
425,0.0
450,0.0
451,0.0
452,14.489963781362293
453,0.0
490,0.0
515,0.0
516,0.0
542,0.0
592,7745410.487127085
632,25169168.128534902
686,1.0
687,1.0
688,2.0
2,21, 1,21, 0,13,10.00,20.00,Monday
250,8.895603158596403
251,32981894.61303518
336,0.0
385,22.84488603674627
386,26.074120385526857
387,5.595188521643152
388,0.0
425,0.0
450,0.0
451,0.0
452,14.7192262820365
453,0.0
490,0.0
515,0.0
516,0.0
542,0.0
592,7770439.060057994
632,25051167.14162101
686,1.0
687,1.0
688,2.0
2,21, 1,21, 0,13,20.00,30.00,Monday
250,9.078724792016656
251,32887234.013710085
336,0.0
385,22.84488603674627
386,26.074120385526857
387,5.800101156594116
388,0.0
425,0.0
450,0.0
451,0.0
452,14.902417070082638
453,0.0
490,0.0
515,0.0
516,0.0
542,0.0
592,7795364.67061786
632,24931832.772543788
686,1.0
687,1.0
688,2.0
2,21, 1,21, 0,13,30.00,40.00,Monday
250,9.261714601939081
251,32792674.666287135
336,0.0
385,22.84488603674627
386,26.074120385526857
387,5.995148761800302
388,0.0
425,0.0
450,0.0
451,0.0
452,15.051290755776352
453,0.0
490,0.0
515,0.0
516,0.0
542,0.0
592,7820187.318806681
632,24812392.341374774
686,1.0
687,1.0
688,2.0
2,21, 1,21, 0,13,40.00,50.00,Monday
250,9.444709212185796
251,32698146.2180074
336,0.0
385,22.84488603674627
386,26.074120385526857
387,6.184081814855929
388,0.0
425,0.0
450,0.0
451,0.0
452,15.170627435827527
453,0.0
490,0.0
515,0.0
516,0.0
542,0.0
592,7844907.0046244515
632,24693159.70438302
686,1.0
687,1.0
688,2.0
2,21, 1,21, 0,13,50.00,60.00,Monday
250,9.627698068667309
251,32603654.046673752
336,0.0
385,22.84488603674627
386,26.074120385526857
387,6.368200256457475
388,0.0
425,0.0
450,0.0
451,0.0
452,15.264058066662047
453,0.0
490,0.0
515,0.0
516,0.0
542,0.0
592,7869523.728071173
632,24574060.786501247
686,1.0
687,1.0
688,2.0
2,21, 1,21, 0,14, 0.00,10.00,Monday
250,9.827628786411935
251,32500044.641937103
336,0.0
385,22.84488603674627
386,26.074120385526857
387,6.5503431392661735
388,0.0
425,0.0
450,0.0
451,0.0
452,15.320179256558312
453,0.0
490,0.0
515,0.0
516,0.0
542,0.0
592,7896260.907308882
632,24452878.03307643
686,1.0
687,1.0
688,2.0
2,21, 1,21, 0,14,10.00,20.00,Monday
250,10.027232663065776
251,32396213.923393395
336,0.0
385,22.84488603674627
386,26.074120385526857
387,6.730642207331385
388,0.0
425,0.0
450,0.0
451,0.0
452,15.32067045411121
453,0.0
490,0.0
515,0.0
516,0.0
542,0.0
592,7922875.552815757
632,24322269.378341142
686,1.0
687,1.0
688,2.0
2,21, 1,21, 0,14,20.00,30.00,Monday
250,10.226735276362493
251,32292452.5109025
336,0.0
385,22.84488603674627
386,26.074120385526857
387,6.906939567964135
388,0.0
425,0.0
450,0.0
451,0.0
452,15.26506381403858
453,0.0
490,0.0
515,0.0
516,0.0
542,0.0
592,7949367.664591796
632,24191974.52515364
686,1.0
687,1.0
688,2.0
2,21, 1,21, 0,14,30.00,40.00,Monday
250,10.426169493199417
251,32188752.733709365
336,0.0
385,22.84488603674627
386,26.074120385526857
387,7.073282751036142
388,0.0
425,0.0
450,0.0
451,0.0
452,15.142833963814741
453,0.0
490,0.0
515,0.0
516,0.0
542,0.0
592,7975737.242637001
632,24061881.758082923
686,1.0
687,1.0
688,2.0
2,21, 1,21, 0,14,40.00,50.00,Monday
250,10.625542834000797
251,32085107.877414763
336,0.0
385,22.84488603674627
386,26.074120385526857
387,7.225978008381987
388,0.0
425,0.0
450,0.0
451,0.0
452,14.934259682484871
453,0.0
490,0.0
515,0.0
516,0.0
542,0.0
592,8001984.286951375
632,23931970.66516128
686,1.0
687,1.0
688,2.0
2,21, 1,21, 0,14,50.00,60.00,Monday
250,10.82487281059465
251,31981508.94882756
336,0.0
385,22.84488603674627
386,26.074120385526857
387,7.365315598109291
388,0.0
425,0.0
450,0.0
451,0.0
452,14.64237867150504
453,0.0
490,0.0
515,0.0
516,0.0
542,0.0
592,8028108.797534912
632,23802237.65771449
686,1.0
687,1.0
688,2.0
2,21, 1,21, 0,15, 0.00,10.00,Monday
250,11.09069922566816
251,31842719.98947446
336,0.0
385,22.84488603674627
386,26.074120385526857
387,7.486297461875516
388,0.0
425,0.0
450,0.0
451,0.0
452,14.34707041391256
453,0.0
490,0.0
515,0.0
516,0.0
542,0.0
592,8062750.870287224
632,23593598.875851527