Program Version,EnergyPlus, Version 24.2.0-94a887817b, YMD=2025.02.04 15:39
1,5,Environment Title[],Latitude[deg],Longitude[deg],Time Zone[],Elevation[m]
2,8,Day of Simulation[],Month[],Day of Month[],DST Indicator[1=yes 0=no],Hour[],StartMinute[],EndMinute[],DayType
3,5,Cumulative Day of Simulation[],Month[],Day of Month[],DST Indicator[1=yes 0=no],DayType  ! When Daily Meters Requested
4,2,Cumulative Days of Simulation[],Month[]  ! When Monthly Meters Requested
5,1,Cumulative Days of Simulation[] ! When Run Period Meters Requested
6,1,Calendar Year of Simulation[] ! When Annual Meters Requested
11,9,Electricity:Facility [J] !Monthly [Value,Min,Day,Hour,Minute,Max,Day,Hour,Minute]
23,9,Electricity:Building [J] !Monthly [Value,Min,Day,Hour,Minute,Max,Day,Hour,Minute]
59,9,InteriorLights:Electricity [J] !Monthly [Value,Min,Day,Hour,Minute,Max,Day,Hour,Minute]
521,9,Electricity:HVAC [J] !Monthly [Value,Min,Day,Hour,Minute,Max,Day,Hour,Minute]
637,9,NaturalGas:Facility [J] !Monthly [Value,Min,Day,Hour,Minute,Max,Day,Hour,Minute]
649,9,NaturalGas:HVAC [J] !Monthly [Value,Min,Day,Hour,Minute,Max,Day,Hour,Minute]
13,11,Electricity:Facility [J] !RunPeriod [Value,Min,Month,Day,Hour,Minute,Max,Month,Day,Hour,Minute]
25,11,Electricity:Building [J] !RunPeriod [Value,Min,Month,Day,Hour,Minute,Max,Month,Day,Hour,Minute]
61,11,InteriorLights:Electricity [J] !RunPeriod [Value,Min,Month,Day,Hour,Minute,Max,Month,Day,Hour,Minute]
523,11,Electricity:HVAC [J] !RunPeriod [Value,Min,Month,Day,Hour,Minute,Max,Month,Day,Hour,Minute]
639,11,NaturalGas:Facility [J] !RunPeriod [Value,Min,Month,Day,Hour,Minute,Max,Month,Day,Hour,Minute]
651,11,NaturalGas:HVAC [J] !RunPeriod [Value,Min,Month,Day,Hour,Minute,Max,Month,Day,Hour,Minute]
End of Data Dictionary
1,RUN PERIOD 1,  41.98, -87.92,  -6.00, 201.00
4,31, 1
11,9817186864.508114,408891.4285714286, 5, 6,50,2975224.517518466,16,13,60
23,978136763.2770985,30000.0, 1, 1,10,605751.2777370416, 1, 9,10
59,970200000.0,30000.0, 1, 1,10,600000.0, 1, 8,10
521,8839050101.230986,378891.4285714286, 5, 6,50,2369473.239781425,16,13,60
637,177084332435.87732,27373987.425723784,21,16,10,41250000.0, 1, 1,20
649,177084332435.87732,27373987.425723784,21,16,10,41250000.0, 1, 1,20
4,59, 2
11,9351437654.348305,99999999999999.0, 5, 6,50,3016685.9577815887,22,15,30
23,855061533.2844342,99999999999999.0, 1, 1,10,-99999999999999.0, 1, 9,10
59,848160000.0,99999999999999.0, 1, 1,10,-99999999999999.0, 1, 8,10
521,8496376121.063895,99999999999999.0, 5, 6,50,2410934.680044547,22,15,30
637,155993083579.42044,25715387.8706298,23,12,10,-99999999999999.0, 1, 1,20
649,155993083579.42044,25715387.8706298,23,12,10,-99999999999999.0, 1, 1,20
4,90, 3
11,10979047001.10689,99999999999999.0, 5, 6,50,3344672.0541753066,27,14,50
23,909574672.3217767,99999999999999.0, 1, 1,10,690618.9523054549,26,14,60
59,897480000.0,99999999999999.0, 1, 1,10,-99999999999999.0, 1, 8,10
521,10069472328.78513,0.0,27,14,60,2656063.693962442,27,14,50
637,158473750661.54907,0.0,27,14,60,-99999999999999.0, 1, 1,20
649,158473750661.54907,0.0,27,14,60,-99999999999999.0, 1, 1,20
4,120, 4
11,9489752964.829777,30000.0,11,19,10,-99999999999999.0,27,14,50
23,953149304.5380385,99999999999999.0, 1, 1,10,-99999999999999.0,26,14,60
59,929520000.0,99999999999999.0, 1, 1,10,-99999999999999.0, 1, 8,10
521,8536603660.291775,99999999999999.0,27,14,60,-99999999999999.0,27,14,50
637,118170209685.92722,99999999999999.0,27,14,60,-99999999999999.0, 1, 1,20
649,118170209685.92722,99999999999999.0,27,14,60,-99999999999999.0, 1, 1,20
4,151, 5
11,8784577613.693651,99999999999999.0,11,19,10,-99999999999999.0,27,14,50
23,1013132070.4728041,99999999999999.0, 1, 1,10,699675.453077974,13,13,60
59,970200000.0,99999999999999.0, 1, 1,10,-99999999999999.0, 1, 8,10
521,7771445543.220992,99999999999999.0,27,14,60,2656068.93847582,31, 8,50
637,90618733936.55768,99999999999999.0,27,14,60,-99999999999999.0, 1, 1,20
649,90618733936.55768,99999999999999.0,27,14,60,-99999999999999.0, 1, 1,20
4,181, 6
11,6085479968.925122,99999999999999.0,11,19,10,-99999999999999.0,27,14,50
23,909488632.9339219,99999999999999.0, 1, 1,10,-99999999999999.0,13,13,60
59,856800000.0,99999999999999.0, 1, 1,10,-99999999999999.0, 1, 8,10
521,5175991335.991227,99999999999999.0,27,14,60,-99999999999999.0,31, 8,50
637,41561400635.236275,99999999999999.0,27,14,60,-99999999999999.0, 1, 1,20
649,41561400635.236275,99999999999999.0,27,14,60,-99999999999999.0, 1, 1,20
4,212, 7
11,4918528597.585112,99999999999999.0,11,19,10,-99999999999999.0,27,14,50
23,1009226169.8703451,99999999999999.0, 1, 1,10,-99999999999999.0,13,13,60
59,970200000.0,99999999999999.0, 1, 1,10,-99999999999999.0, 1, 8,10
521,3909302427.7147374,99999999999999.0,27,14,60,2657669.884022125,31, 6,30
637,17030883442.716604,99999999999999.0,27,14,60,-99999999999999.0, 1, 1,20
649,17030883442.716604,99999999999999.0,27,14,60,-99999999999999.0, 1, 1,20
4,243, 8
11,4659621915.17368,99999999999999.0,11,19,10,-99999999999999.0,27,14,50
23,988515093.6442889,99999999999999.0, 1, 1,10,-99999999999999.0,13,13,60
59,933840000.0,99999999999999.0, 1, 1,10,-99999999999999.0, 1, 8,10
521,3671106821.5293126,99999999999999.0,27,14,60,-99999999999999.0,31, 6,30
637,29782933221.476173,99999999999999.0,27,14,60,-99999999999999.0, 1, 1,20
649,29782933221.476173,99999999999999.0,27,14,60,-99999999999999.0, 1, 1,20
4,273, 9
11,7175044083.871049,99999999999999.0,11,19,10,-99999999999999.0,27,14,50
23,959658353.6182417,99999999999999.0, 1, 1,10,-99999999999999.0,13,13,60
59,893160000.0,99999999999999.0, 1, 1,10,-99999999999999.0, 1, 8,10
521,6215385730.252822,99999999999999.0,27,14,60,-99999999999999.0,31, 6,30
637,64056068773.158966,99999999999999.0,27,14,60,-99999999999999.0, 1, 1,20
649,64056068773.158966,99999999999999.0,27,14,60,-99999999999999.0, 1, 1,20
4,304,10
11,10618192166.337664,99999999999999.0,11,19,10,-99999999999999.0,27,14,50
23,999101909.521529,99999999999999.0, 1, 1,10,-99999999999999.0,13,13,60
59,970200000.0,99999999999999.0, 1, 1,10,-99999999999999.0, 1, 8,10
521,9619090256.816153,99999999999999.0,27,14,60,-99999999999999.0,31, 6,30
637,124857281334.77113,99999999999999.0,27,14,60,-99999999999999.0, 1, 1,20
649,124857281334.77113,99999999999999.0,27,14,60,-99999999999999.0, 1, 1,20
4,334,11
11,10483280297.697302,99999999999999.0,11,19,10,-99999999999999.0,27,14,50
23,913060793.8431599,99999999999999.0, 1, 1,10,-99999999999999.0,13,13,60
59,893160000.0,99999999999999.0, 1, 1,10,-99999999999999.0, 1, 8,10
521,9570219503.854122,99999999999999.0,27,14,60,-99999999999999.0,31, 6,30
637,144573958495.5177,99999999999999.0,27,14,60,-99999999999999.0, 1, 1,20
649,144573958495.5177,99999999999999.0,27,14,60,-99999999999999.0, 1, 1,20
4,365,12
11,10430382306.99669,99999999999999.0,11,19,10,-99999999999999.0,27,14,50
23,941431686.612877,99999999999999.0, 1, 1,10,-99999999999999.0,13,13,60
59,933840000.0,99999999999999.0, 1, 1,10,-99999999999999.0, 1, 8,10
521,9488950620.383821,99999999999999.0,27,14,60,-99999999999999.0,31, 6,30
637,177743372003.62656,99999999999999.0,27,14,60,-99999999999999.0, 1, 1,20
649,177743372003.62656,99999999999999.0,27,14,60,-99999999999999.0, 1, 1,20
5,365
13,102792531435.09149,30000.0, 4,11,19,10,3344672.0541753066, 3,27,14,50
25,11429536983.935808,30000.0, 1, 1, 1,10,699675.453077974, 5,13,13,60
61,11066760000.0,30000.0, 1, 1, 1,10,600000.0, 1, 1, 8,10
523,91362994451.13942,0.0, 3,27,14,60,2657669.884022125, 7,31, 6,30
639,1299946008205.8298,0.0, 3,27,14,60,41250000.0, 1, 1, 1,20
651,1299946008205.8298,0.0, 3,27,14,60,41250000.0, 1, 1, 1,20
1,RUN PERIOD 2,  41.98, -87.92,  -6.00, 201.00
4,1, 7
11,41025076.66422249,99999999999999.0,11,19,10,-99999999999999.0,27,14,50
23,41025076.66422249,99999999999999.0, 1, 1,10,-99999999999999.0,13,13,60
59,40680000.0,99999999999999.0, 1, 1,10,-99999999999999.0, 1, 8,10
521,0.0,99999999999999.0,27,14,60,-99999999999999.0,31, 6,30
637,0.0,99999999999999.0,27,14,60,-99999999999999.0, 1, 1,20
649,0.0,99999999999999.0,27,14,60,-99999999999999.0, 1, 1,20
5,1
13,41025076.66422249,99999999999999.0, 4,11,19,10,-99999999999999.0, 3,27,14,50
25,41025076.66422249,99999999999999.0, 1, 1, 1,10,-99999999999999.0, 5,13,13,60
61,40680000.0,99999999999999.0, 1, 1, 1,10,-99999999999999.0, 1, 1, 8,10
523,0.0,99999999999999.0, 3,27,14,60,-99999999999999.0, 7,31, 6,30
639,0.0,99999999999999.0, 3,27,14,60,-99999999999999.0, 1, 1, 1,20
651,0.0,99999999999999.0, 3,27,14,60,-99999999999999.0, 1, 1, 1,20
End of Data
 Number of Records Written=          90
