Program Version,EnergyPlus, Version 24.1.0-9d7789a3ac, YMD=2024.06.19 21:16
1,5,Environment Title[],Latitude[deg],Longitude[deg],Time Zone[],Elevation[m]
2,8,Day of Simulation[],Month[],Day of Month[],DST Indicator[1=yes 0=no],Hour[],StartMinute[],EndMinute[],DayType
3,5,Cumulative Day of Simulation[],Month[],Day of Month[],DST Indicator[1=yes 0=no],DayType  ! When Daily Report Variables Requested
4,2,Cumulative Days of Simulation[],Month[]  ! When Monthly Report Variables Requested
5,1,Cumulative Days of Simulation[] ! When Run Period Report Variables Requested
6,1,Calendar Year of Simulation[] ! When Annual Report Variables Requested
250,1,LIVING ZONE,Zone Air Temperature [C] !TimeStep,REPORTSCH
251,1,LIVING ZONE,Zone Air System Sensible Heating Energy [J] !TimeStep,REPORTSCH
336,1,LIVING ZONE,Zone Air System Sensible Cooling Energy [J] !TimeStep,REPORTSCH
385,1,LIVING ZONE,Zone Thermostat Heating Setpoint Temperature [C] !TimeStep,REPORTSCH
386,1,LIVING ZONE,Zone Thermostat Cooling Setpoint Temperature [C] !TimeStep,REPORTSCH
387,1,GARAGE ZONE,Zone Air Temperature [C] !TimeStep,REPORTSCH
388,1,GARAGE ZONE,Zone Air System Sensible Heating Energy [J] !TimeStep,REPORTSCH
425,1,GARAGE ZONE,Zone Air System Sensible Cooling Energy [J] !TimeStep,REPORTSCH
450,1,GARAGE ZONE,Zone Thermostat Heating Setpoint Temperature [C] !TimeStep,REPORTSCH
451,1,GARAGE ZONE,Zone Thermostat Cooling Setpoint Temperature [C] !TimeStep,REPORTSCH
452,1,ATTIC ZONE,Zone Air Temperature [C] !TimeStep,REPORTSCH
453,1,ATTIC ZONE,Zone Air System Sensible Heating Energy [J] !TimeStep,REPORTSCH
490,1,ATTIC ZONE,Zone Air System Sensible Cooling Energy [J] !TimeStep,REPORTSCH
515,1,ATTIC ZONE,Zone Thermostat Heating Setpoint Temperature [C] !TimeStep,REPORTSCH
516,1,ATTIC ZONE,Zone Thermostat Cooling Setpoint Temperature [C] !TimeStep,REPORTSCH
542,1,ACDXCOIL 1,Cooling Coil Total Cooling Energy [J] !TimeStep,REPORTSCH
592,1,HEAT PUMP DX HEATING COIL 1,Heating Coil Heating Energy [J] !TimeStep,REPORTSCH
632,1,SUPP HEATING COIL 1,Heating Coil Heating Energy [J] !TimeStep,REPORTSCH
686,1,TWOSPEED HEAT PUMP 1,Unitary System DX Coil Cycling Ratio [] !TimeStep,REPORTSCH
687,1,TWOSPEED HEAT PUMP 1,Unitary System DX Coil Speed Ratio [] !TimeStep,REPORTSCH
688,1,TWOSPEED HEAT PUMP 1,Unitary System DX Coil Speed Level [] !TimeStep
End of Data Dictionary
1,CHICAGO_IL_USA ANNUAL HEATING 99% DESIGN CONDITIONS DB,  41.98, -87.92,  -6.00, 201.00
2,1, 1,21, 0, 1, 0.00,10.00,WinterDesignDay
250,16.470435301344157
251,4158310.516885436
336,0.0
385,16.246858173253703
386,28.059949012546173
387,-17.69502438834037
388,0.0
425,0.0
450,0.0
451,0.0
452,-18.39689718744027
453,0.0
490,0.0
515,0.0
516,0.0
542,0.0
592,0.0
632,4162829.952279906
686,0.6000000000000001
687,0.6000000000000001
688,1.2000000000000002
2,1, 1,21, 0, 1,10.00,20.00,WinterDesignDay
250,16.73418066589924
251,5778770.843188599
336,0.0
385,16.780191506587034
386,28.05994901254617
387,-17.69500148671991
388,0.0
425,0.0
450,0.0
451,0.0
452,-18.396868510905115
453,0.0
490,0.0
515,0.0
516,0.0
542,0.0
592,0.0
632,5688932.343587233
686,1.0
687,1.0
688,2.0
2,1, 1,21, 0, 1,20.00,30.00,WinterDesignDay
250,16.88407831987505
251,4232796.795245003
336,0.0
385,16.780191506587027
386,28.059949012546156
387,-17.695027240761746
388,0.0
425,0.0
450,0.0
451,0.0
452,-18.396846390268877
453,0.0
490,0.0
515,0.0
516,0.0
542,0.0
592,0.0
632,4185520.4278787463
686,0.6666666666666664
687,0.6666666666666664
688,1.3333333333333328
2,1, 1,21, 0, 1,30.00,40.00,WinterDesignDay
250,16.470435298413022
251,4158310.5424417374
336,0.0
385,16.246858173253695
386,28.059949012546163
387,-17.69502788812556
388,0.0
425,0.0
450,0.0
451,0.0
452,-18.39689756965312
453,0.0
490,0.0
515,0.0
516,0.0
542,0.0
592,0.0
632,4162829.9787237826
686,0.5999999999999996
687,0.5999999999999996
688,1.1999999999999993
2,1, 1,21, 0, 1,40.00,50.00,WinterDesignDay
250,16.734180665770488
251,5778770.877203745
336,0.0
385,16.780191506587048
386,28.05994901254619
387,-17.695004944501605
388,0.0
425,0.0
450,0.0
451,0.0
452,-18.39686888848273
453,0.0
490,0.0
515,0.0
516,0.0
542,0.0
592,0.0
632,5688932.37812816
686,1.0000000000000009
687,1.0000000000000009
688,2.0000000000000018
2,1, 1,21, 0, 1,50.00,60.00,WinterDesignDay
250,16.884078317050246
251,4232796.817436322
336,0.0
385,16.780191506587048
386,28.05994901254619
387,-17.6950306414446
388,0.0
425,0.0
450,0.0
451,0.0
452,-18.396846761787366
453,0.0
490,0.0
515,0.0
516,0.0
542,0.0
592,0.0
632,4185520.4500938784
686,0.6666666666666672
687,0.6666666666666672
688,1.3333333333333344
2,1, 1,21, 0, 2, 0.00,10.00,WinterDesignDay
250,16.470435295597095
251,4158310.5669935774
336,0.0
385,16.246858173253703
386,28.059949012546173
387,-17.695031250415944
388,0.0
425,0.0
450,0.0
451,0.0
452,-18.396897936843736
453,0.0
490,0.0
515,0.0
516,0.0
542,0.0
592,0.0
632,4162830.004128314
686,0.6000000000000001
687,0.6000000000000001
688,1.2000000000000002
2,1, 1,21, 0, 2,10.00,20.00,WinterDesignDay
250,16.73418066564677
251,5778770.909882039
336,0.0
385,16.780191506587034
386,28.05994901254617
387,-17.695008266438737
388,0.0
425,0.0
450,0.0
451,0.0
452,-18.39686925122035
453,0.0
490,0.0
515,0.0
516,0.0
542,0.0
592,0.0
632,5688932.411311574
686,1.0
687,1.0
688,2.0
2,1, 1,21, 0, 2,20.00,30.00,WinterDesignDay
250,16.884078314336428
251,4232796.838755398
336,0.0
385,16.780191506587027
386,28.059949012546156
387,-17.69503390852639
388,0.0
425,0.0
450,0.0
451,0.0
452,-18.396847118704088
453,0.0
490,0.0
515,0.0
516,0.0
542,0.0
592,0.0
632,4185520.471435833
686,0.6666666666666664
687,0.6666666666666664
688,1.3333333333333328
2,1, 1,21, 0, 2,30.00,40.00,WinterDesignDay
250,16.470435292891846
251,4158310.590580445
336,0.0
385,16.246858173253695
386,28.059949012546163
387,-17.69503448061368
388,0.0
425,0.0
450,0.0
451,0.0
452,-18.39689828960278
453,0.0
490,0.0
515,0.0
516,0.0
542,0.0
592,0.0
632,4162830.028534359
686,0.5999999999999996
687,0.5999999999999996
688,1.1999999999999993
2,1, 1,21, 0, 2,40.00,50.00,WinterDesignDay
250,16.734180665527948
251,5778770.941275919
336,0.0
385,16.780191506587048
386,28.05994901254619
387,-17.695011457868397
388,0.0
425,0.0
450,0.0
451,0.0
452,-18.3968695997015
453,0.0
490,0.0
515,0.0
516,0.0
542,0.0
592,0.0
632,5688932.443190718
686,1.0000000000000009
687,1.0000000000000009
688,2.0000000000000018
2,1, 1,21, 0, 2,50.00,60.00,WinterDesignDay
250,16.884078311729304
251,4232796.859236662
336,0.0
385,16.780191506587048
386,28.05994901254619
387,-17.695037047255326
388,0.0
425,0.0
450,0.0
451,0.0
452,-18.396847461593183
453,0.0
490,0.0
515,0.0
516,0.0
542,0.0
592,0.0
632,4185520.4919390744
686,0.6666666666666672
687,0.6666666666666672
688,1.3333333333333344
2,1, 1,21, 0, 3, 0.00,10.00,WinterDesignDay
250,16.47043529029292
251,4158310.613240338
336,0.0
385,16.246858173253703
386,28.059949012546173
387,-17.695037583907283
388,0.0
425,0.0
450,0.0
451,0.0
452,-18.396898628497627
453,0.0
490,0.0
515,0.0
516,0.0
542,0.0
592,0.0
632,4162830.0519812354
686,0.6000000000000001
687,0.6000000000000001
688,1.2000000000000002
2,1, 1,21, 0, 3,10.00,20.00,WinterDesignDay
250,16.73418066541376
251,5778770.971435994
336,0.0
385,16.780191506587034
386,28.05994901254617
387,-17.69501452391691
388,0.0
425,0.0
450,0.0
451,0.0
452,-18.396869934486606
453,0.0
490,0.0
515,0.0
516,0.0
542,0.0
592,0.0
632,5688932.473816986
686,1.0
687,1.0
688,2.0
2,1, 1,21, 0, 3,20.00,30.00,WinterDesignDay
250,16.884078309224606
251,4232796.87891296
336,0.0
385,16.780191506587027
386,28.059949012546156
387,-17.695040062673797
388,0.0
425,0.0
450,0.0
451,0.0
452,-18.396847791006053
453,0.0
490,0.0
515,0.0
516,0.0
542,0.0
592,0.0
632,4185520.5116364877
686,0.6666666666666664
687,0.6666666666666664
688,1.3333333333333328
2,1, 1,21, 0, 3,30.00,40.00,WinterDesignDay
250,16.470435287796125
251,4158310.6350096376
336,0.0
385,16.246858173253695
386,28.059949012546163
387,-17.695040565282724
388,0.0
425,0.0
450,0.0
451,0.0
452,-18.396898954073315
453,0.0
490,0.0
515,0.0
516,0.0
542,0.0
592,0.0
632,4162830.074506588
686,0.5999999999999996
687,0.5999999999999996
688,1.1999999999999993
2,1, 1,21, 0, 3,40.00,50.00,WinterDesignDay
250,16.734180665304095
251,5778771.000410717
336,0.0
385,16.780191506587048
386,28.05994901254619
387,-17.695017469510262
388,0.0
425,0.0
450,0.0
451,0.0
452,-18.396870256114166
453,0.0
490,0.0
515,0.0
516,0.0
542,0.0
592,0.0
632,5688932.503239581
686,1.0000000000000009
687,1.0000000000000009
688,2.0000000000000018
2,1, 1,21, 0, 3,50.00,60.00,WinterDesignDay
250,16.884078306818385
251,4232796.897815964
336,0.0
385,16.780191506587048
386,28.05994901254619
387,-17.695042959625628
388,0.0
425,0.0
450,0.0
451,0.0
452,-18.39684810747261
453,0.0
490,0.0
515,0.0
516,0.0
542,0.0
592,0.0
632,4185520.5305597764
686,0.6666666666666672
687,0.6666666666666672
688,1.3333333333333344
2,1, 1,21, 0, 4, 0.00,10.00,WinterDesignDay
250,16.470435285397464
251,4158310.6559234196
336,0.0
385,16.246858173253703
386,28.059949012546173
387,-17.695043429528692
388,0.0
425,0.0
450,0.0
451,0.0
452,-18.39689926685351
453,0.0
490,0.0
515,0.0
516,0.0
542,0.0
592,0.0
632,4162830.0961467093
686,0.6000000000000001
687,0.6000000000000001
688,1.2000000000000002
2,1, 1,21, 0, 4,10.00,20.00,WinterDesignDay
250,16.734180665198707
251,5778771.028246785
336,0.0
385,16.780191506587034
386,28.05994901254617
387,-17.695020299380072
388,0.0
425,0.0
450,0.0
451,0.0
452,-18.396870565101406
453,0.0
490,0.0
515,0.0
516,0.0
542,0.0
592,0.0
632,5688932.531505918
686,1.0
687,1.0
688,2.0
2,1, 1,21, 0, 4,20.00,30.00,WinterDesignDay
250,16.884078304506694
251,4232796.915976036
336,0.0
385,16.780191506587027
386,28.059949012546156
387,-17.695045742765213
388,0.0
425,0.0
450,0.0
451,0.0
452,-18.396848411501708
453,0.0
490,0.0
515,0.0
516,0.0
542,0.0
592,0.0
632,4185520.548739338
686,0.6666666666666664
687,0.6666666666666664
688,1.3333333333333328
2,1, 1,21, 0, 4,30.00,40.00,WinterDesignDay
250,16.470435283093067
251,4158310.676015272
336,0.0
385,16.246858173253695
386,28.059949012546163
387,-17.69504618124725
388,0.0
425,0.0
450,0.0
451,0.0
452,-18.396899567341194
453,0.0
490,0.0
515,0.0
516,0.0
542,0.0
592,0.0
632,4162830.1169363563
686,0.5999999999999996
687,0.5999999999999996
688,1.1999999999999993
2,1, 1,21, 0, 4,40.00,50.00,WinterDesignDay
250,16.73418066509749
251,5778771.054988799
336,0.0
385,16.780191506587048
386,28.05994901254619
387,-17.69502301807298
388,0.0
425,0.0
450,0.0
451,0.0
452,-18.396870861945295
453,0.0
490,0.0
515,0.0
516,0.0
542,0.0
592,0.0
632,5688932.558661291
686,1.0000000000000009
687,1.0000000000000009
688,2.0000000000000018
2,1, 1,21, 0, 4,50.00,60.00,WinterDesignDay
250,16.88407830228589
251,4232796.933422431
336,0.0
385,16.780191506587048
386,28.05994901254619
387,-17.69504841656355
388,0.0
425,0.0
450,0.0
451,0.0
452,-18.396848703582393
453,0.0
490,0.0
515,0.0
516,0.0
542,0.0
592,0.0
632,4185520.566204455
686,0.6666666666666672
687,0.6666666666666672
688,1.3333333333333344
2,1, 1,21, 0, 5, 0.00,10.00,WinterDesignDay
250,16.470435280879247
251,4158310.6953174598
336,0.0
385,16.246858173253703
386,28.059949012546173
387,-17.695048824858763
388,0.0
425,0.0
450,0.0
451,0.0
452,-18.39689985601965
453,0.0
490,0.0
515,0.0
516,0.0
542,0.0
592,0.0
632,4162830.1369089135
686,0.6000000000000001
687,0.6000000000000001
688,1.2000000000000002
2,1, 1,21, 0, 5,10.00,20.00,WinterDesignDay
250,16.734180665000228
251,5778771.080679895
336,0.0
385,16.780191506587034
386,28.05994901254617
387,-17.69502562995554
388,0.0
425,0.0
450,0.0
451,0.0
452,-18.39687114712315
453,0.0
490,0.0
515,0.0
516,0.0
542,0.0
592,0.0
632,5688932.584749503
686,1.0
687,1.0
688,2.0
2,1, 1,21, 0, 5,20.00,30.00,WinterDesignDay
250,16.884078300152325
251,4232796.950183194
336,0.0
385,16.780191506587027
386,28.059949012546156
387,-17.69505098531479
388,0.0
425,0.0
450,0.0
451,0.0
452,-18.396848984184246
453,0.0
490,0.0
515,0.0
516,0.0
542,0.0
592,0.0
632,4185520.582983204
686,0.6666666666666664
687,0.6666666666666664
688,1.3333333333333328
2,1, 1,21, 0, 5,30.00,40.00,WinterDesignDay
250,16.47043527875242
251,4158310.7138610766
336,0.0
385,16.246858173253695
386,28.059949012546163
387,-17.695051364609853
388,0.0
425,0.0
450,0.0
451,0.0
452,-18.39690013335306
453,0.0
490,0.0
515,0.0
516,0.0
542,0.0
592,0.0
632,4162830.1560965534
686,0.5999999999999996
687,0.5999999999999996
688,1.1999999999999993
2,1, 1,21, 0, 5,40.00,50.00,WinterDesignDay
250,16.73418066490681
251,5778771.10536129
336,0.0
385,16.780191506587048
386,28.05994901254619
387,-17.695028139225073
388,0.0
425,0.0
450,0.0
451,0.0
452,-18.39687142109362
453,0.0
490,0.0
515,0.0
516,0.0
542,0.0
592,0.0
632,5688932.609812404
686,1.0000000000000009
687,1.0000000000000009
688,2.0000000000000018
2,1, 1,21, 0, 5,50.00,60.00,WinterDesignDay
250,16.88407829810264
251,4232796.966285279
336,0.0
385,16.780191506587048
386,28.05994901254619
387,-17.695053453148063
388,0.0
425,0.0
450,0.0
451,0.0
452,-18.39684925375862
453,0.0
490,0.0
515,0.0
516,0.0
542,0.0
592,0.0
632,4185520.599102565
686,0.6666666666666672
687,0.6666666666666672
688,1.3333333333333344
2,1, 1,21, 0, 6, 0.00,10.00,WinterDesignDay
250,16.47043527670918
251,4158310.7316759694
336,0.0
385,16.246858173253703
386,28.059949012546173
387,-17.69505380458135
388,0.0
425,0.0
450,0.0
451,0.0
452,-18.396900399787434
453,0.0
490,0.0
515,0.0
516,0.0
542,0.0
592,0.0
632,4162830.174530162
686,0.6000000000000001
687,0.6000000000000001
688,1.2000000000000002
2,1, 1,21, 0, 6,10.00,20.00,WinterDesignDay
250,16.734180664817035
251,5778771.129072772
336,0.0
385,16.780191506587034
386,28.05994901254617
387,-17.695030549912033
388,0.0
425,0.0
450,0.0
451,0.0
452,-18.396871684297203
453,0.0
490,0.0
515,0.0
516,0.0
542,0.0
592,0.0
632,5688932.633890401
686,1.0
687,1.0
688,2.0
2,1, 1,21, 0, 6,20.00,30.00,WinterDesignDay
250,16.88407829613348
251,4232796.981754528
336,0.0
385,16.780191506587027
386,28.059949012546156
387,-17.695055824026337
388,0.0
425,0.0
450,0.0
451,0.0
452,-18.396849512738896
453,0.0
490,0.0
515,0.0
516,0.0
542,0.0
592,0.0
632,4185520.614588416
686,0.6666666666666664
687,0.6666666666666664
688,1.3333333333333328
2,1, 1,21, 0, 6,30.00,40.00,WinterDesignDay
250,16.47043527474623
251,4158310.7487907736
336,0.0
385,16.246858173253695
386,28.059949012546163
387,-17.69505614869277
388,0.0
425,0.0
450,0.0
451,0.0
452,-18.396900655751185
453,0.0
490,0.0
515,0.0
516,0.0
542,0.0
592,0.0
632,4162830.192239365
686,0.5999999999999996
687,0.5999999999999996
688,1.1999999999999993
2,1, 1,21, 0, 6,40.00,50.00,WinterDesignDay
250,16.734180664730822
251,5778771.151852425
336,0.0
385,16.780191506587048
386,28.05994901254619
387,-17.6950328658893
388,0.0
425,0.0
450,0.0
451,0.0
452,-18.396871937157208
453,0.0
490,0.0
515,0.0
516,0.0
542,0.0
592,0.0
632,5688932.657022163
686,1.0000000000000009
687,1.0000000000000009
688,2.0000000000000018
2,1, 1,21, 0, 6,50.00,60.00,WinterDesignDay
250,16.884078294241732
251,4232796.996615898
336,0.0
385,16.780191506587048
386,28.05994901254619
387,-17.695058101758875
388,0.0
425,0.0
450,0.0
451,0.0
452,-18.396849761541603
453,0.0
490,0.0
515,0.0
516,0.0
542,0.0
592,0.0
632,4185520.6294657327
686,0.6666666666666672
687,0.6666666666666672
688,1.3333333333333344
2,1, 1,21, 0, 7, 0.00,10.00,WinterDesignDay
250,16.470435272860428
251,4158310.7652329635
336,0.0
385,16.246858173253703
386,28.059949012546173
387,-17.69505840071004
388,0.0
425,0.0
450,0.0
451,0.0
452,-18.396900901655894
453,0.0
490,0.0
515,0.0
516,0.0
542,0.0
592,0.0
632,4162830.2092525954
686,0.6000000000000001
687,0.6000000000000001
688,1.2000000000000002
2,1, 1,21, 0, 7,10.00,20.00,WinterDesignDay
250,16.734180664647962
251,5778771.173736869
336,0.0
385,16.780191506587034
386,28.05994901254617
387,-17.695035090877916
388,0.0
425,0.0
450,0.0
451,0.0
452,-18.39687218008014
453,0.0
490,0.0
515,0.0
516,0.0
542,0.0
592,0.0
632,5688932.679244882
686,1.0
687,1.0
688,2.0
2,1, 1,21, 0, 7,20.00,30.00,WinterDesignDay
250,16.884078292424284
251,4232797.010893269
336,0.0
385,16.780191506587027
386,28.059949012546156
387,-17.695060290005085
388,0.0
425,0.0
450,0.0
451,0.0
452,-18.396850000566722
453,0.0
490,0.0
515,0.0
516,0.0
542,0.0
592,0.0
632,4185520.6437584264
686,0.6666666666666664
687,0.6666666666666664
688,1.3333333333333328
2,1, 1,21, 0, 7,30.00,40.00,WinterDesignDay
250,16.47043527104872
251,4158310.7810290623
336,0.0
385,16.246858173253695
386,28.059949012546163
387,-17.69506056425118
388,0.0
425,0.0
450,0.0
451,0.0
452,-18.396901137896965
453,0.0
490,0.0
515,0.0
516,0.0
542,0.0
592,0.0
632,4162830.2255972954
686,0.5999999999999996
687,0.5999999999999996
688,1.1999999999999993
2,1, 1,21, 0, 7,40.00,50.00,WinterDesignDay
250,16.734180664568388
251,5778771.194761322
336,0.0
385,16.780191506587048
386,28.05994901254619
387,-17.695037228452083
388,0.0
425,0.0
450,0.0
451,0.0
452,-18.396872413456666
453,0.0
490,0.0
515,0.0
516,0.0
542,0.0
592,0.0
632,5688932.700594317
686,1.0000000000000009
687,1.0000000000000009
688,2.0000000000000018
2,1, 1,21, 0, 7,50.00,60.00,WinterDesignDay
250,16.884078290678307
251,4232797.024609525
336,0.0
385,16.780191506587048
386,28.05994901254619
387,-17.695062392280597
388,0.0
425,0.0
450,0.0
451,0.0
452,-18.39685023019866
453,0.0
490,0.0
515,0.0
516,0.0
542,0.0
592,0.0
632,4185520.6574893994
686,0.6666666666666672
687,0.6666666666666672
688,1.3333333333333344
2,1, 1,21, 0, 8, 0.00,10.00,WinterDesignDay
250,16.470435269308226
251,4158310.796204347
336,0.0
385,16.246858173253703
386,28.059949012546173
387,-17.695062642792273
388,0.0
425,0.0
450,0.0
451,0.0
452,-18.39690136485426
453,0.0
490,0.0
515,0.0
516,0.0
542,0.0
592,0.0
632,4162830.2412996218
686,0.6000000000000001
687,0.6000000000000001
688,1.2000000000000002
2,1, 1,21, 0, 8,10.00,20.00,WinterDesignDay
250,16.73418066449192
251,5778771.214959543
336,0.0
385,16.780191506587034
386,28.05994901254617
387,-17.69503928204652
388,0.0
425,0.0
450,0.0
451,0.0
452,-18.39687263766199
453,0.0
490,0.0
515,0.0
516,0.0
542,0.0
592,0.0
632,5688932.721104745
686,1.0
687,1.0
688,2.0
2,1, 1,21, 0, 8,20.00,30.00,WinterDesignDay
250,16.884078289000904
251,4232797.037786759
336,0.0
385,16.780191506587027
386,28.059949012546156
387,-17.695064411963052
388,0.0
425,0.0
450,0.0
451,0.0
452,-18.396850450806557
453,0.0
490,0.0
515,0.0
516,0.0
542,0.0
592,0.0
632,4185520.6706807734
686,0.6666666666666664
687,0.6666666666666664
688,1.3333333333333328
2,1, 1,21, 0, 8,30.00,40.00,WinterDesignDay
250,16.470435267636113
251,4158310.8107833536
336,0.0
385,16.246858173253695
386,28.059949012546163
387,-17.695064639672587
388,0.0
425,0.0
450,0.0
451,0.0
452,-18.39690158289268
453,0.0
490,0.0
515,0.0
516,0.0
542,0.0
592,0.0
632,4162830.256384958
686,0.5999999999999996
687,0.5999999999999996
688,1.1999999999999993
2,1, 1,21, 0, 8,40.00,50.00,WinterDesignDay
250,16.734180664418478
251,5778771.234364104
336,0.0
385,16.780191506587048
386,28.05994901254619
387,-17.695041254960003
388,0.0
425,0.0
450,0.0
451,0.0
452,-18.396872853056646
453,0.0
490,0.0
515,0.0
516,0.0
542,0.0
592,0.0
632,5688932.740809248
686,1.0000000000000009
687,1.0000000000000009
688,2.0000000000000018
2,1, 1,21, 0, 8,50.00,60.00,WinterDesignDay
250,16.884078287389457
251,4232797.05044619
336,0.0
385,16.780191506587048
386,28.05994901254619
387,-17.69506635229656
388,0.0
425,0.0
450,0.0
451,0.0
452,-18.396850662745194
453,0.0
490,0.0
515,0.0
516,0.0
542,0.0
592,0.0
632,4185520.683353789
686,0.6666666666666672
687,0.6666666666666672
688,1.3333333333333344
2,1, 1,21, 0, 9, 0.00,10.00,WinterDesignDay
250,16.470435266029728
251,4158310.8247893364
336,0.0
385,16.246858173253703
386,28.059949012546173
387,-17.695066558099533
388,0.0
425,0.0
450,0.0
451,0.0
452,-18.396901792362787
453,0.0
490,0.0
515,0.0
516,0.0
542,0.0
592,0.0
632,4162830.270877371
686,0.6000000000000001
687,0.6000000000000001
688,1.2000000000000002
2,1, 1,21, 0, 9,10.00,20.00,WinterDesignDay
250,16.734180664347893
251,5778771.253005986
336,0.0
385,16.780191506587034
386,28.05994901254617
387,-17.695043150361684
388,0.0
425,0.0
450,0.0
451,0.0
452,-18.396873059986852
453,0.0
490,0.0
515,0.0
516,0.0
542,0.0
592,0.0
632,5688932.7597392835
686,1.0
687,1.0
688,2.0
2,1, 1,21, 0, 9,20.00,30.00,WinterDesignDay
250,16.88407828584129
251,4232797.062608134
336,0.0
385,16.780191506587027
386,28.059949012546156
387,-17.695068216398358
388,0.0
425,0.0
450,0.0
451,0.0
452,-18.396850866355198
453,0.0
490,0.0
515,0.0
516,0.0
542,0.0
592,0.0
632,4185520.695528787
686,0.6666666666666664
687,0.6666666666666664
688,1.3333333333333328
2,1, 1,21, 0, 9,30.00,40.00,WinterDesignDay
250,16.47043526448645
251,4158310.838245046
336,0.0
385,16.246858173253695
386,28.059949012546163
387,-17.69506840115603
388,0.0
425,0.0
450,0.0
451,0.0
452,-18.396901993601332
453,0.0
490,0.0
515,0.0
516,0.0
542,0.0
592,0.0
632,4162830.2848004005
686,0.5999999999999996
687,0.5999999999999996
688,1.1999999999999993
2,1, 1,21, 0, 9,40.00,50.00,WinterDesignDay
250,16.734180664280117
251,5778771.270915387
336,0.0
385,16.780191506587048
386,28.05994901254619
387,-17.69504497129773
388,0.0
425,0.0
450,0.0
451,0.0
452,-18.396873258785376
453,0.0
490,0.0
515,0.0
516,0.0
542,0.0
592,0.0
632,5688932.777925515
686,1.0000000000000009
687,1.0000000000000009
688,2.0000000000000018
2,1, 1,21, 0, 9,50.00,60.00,WinterDesignDay
250,16.884078284353997
251,4232797.074292194
336,0.0
385,16.780191506587048
386,28.05994901254619
387,-17.69507000726435
388,0.0
425,0.0
450,0.0
451,0.0
452,-18.39685106196404
453,0.0
490,0.0
515,0.0
516,0.0
542,0.0
592,0.0
632,4185520.7072253823
686,0.6666666666666672
687,0.6666666666666672
688,1.3333333333333344
2,1, 1,21, 0,10, 0.00,10.00,WinterDesignDay
250,16.47043526300383
251,4158310.851171954
336,0.0
385,16.246858173253703
386,28.059949012546173
387,-17.695070171803085
388,0.0
425,0.0
450,0.0
451,0.0
452,-18.39690218693189
453,0.0
490,0.0
515,0.0
516,0.0
542,0.0
592,0.0
632,4162830.298176264
686,0.6000000000000001
687,0.6000000000000001
688,1.2000000000000002
2,1, 1,21, 0,10,10.00,20.00,WinterDesignDay
250,16.73418066421497
251,5778771.288121019
336,0.0
385,16.780191506587034
386,28.05994901254617
387,-17.695046720693085
388,0.0
425,0.0
450,0.0
451,0.0
452,-18.396873449771782
453,0.0
490,0.0
515,0.0
516,0.0
542,0.0
592,0.0
632,5688932.795397099
686,1.0
687,1.0
688,2.0
2,1, 1,21, 0,10,20.00,30.00,WinterDesignDay
250,16.88407828292512
251,4232797.085517053
336,0.0
385,16.780191506587027
386,28.059949012546156
387,-17.69507172777063
388,0.0
425,0.0
450,0.0
451,0.0
452,-18.39685124988612
453,0.0
490,0.0
515,0.0
516,0.0
542,0.0
592,0.0
632,4185520.7184622865
686,0.6666666666666664
687,0.6666666666666664
688,1.3333333333333328
2,1, 1,21, 0,10,30.00,40.00,WinterDesignDay
250,16.47043526157946
251,4158310.863590892
336,0.0
385,16.246858173253695
386,28.059949012546163
387,-17.69507187288479
388,0.0
425,0.0
450,0.0
451,0.0
452,-18.39690237266525
453,0.0
490,0.0
515,0.0
516,0.0
542,0.0
592,0.0
632,4162830.3110265117
686,0.5999999999999996
687,0.5999999999999996
688,1.1999999999999993
2,1, 1,21, 0,10,40.00,50.00,WinterDesignDay
250,16.73418066415241
251,5778771.304650512
336,0.0
385,16.780191506587048
386,28.05994901254619
387,-17.69504840135817
388,0.0
425,0.0
450,0.0
451,0.0
452,-18.396873633253158
453,0.0
490,0.0
515,0.0
516,0.0
542,0.0
592,0.0
632,5688932.812182092
686,1.0000000000000009
687,1.0000000000000009
688,2.0000000000000018
2,1, 1,21, 0,10,50.00,60.00,WinterDesignDay
250,16.884078281552423
251,4232797.096300885
336,0.0
385,16.780191506587048
386,28.05994901254619
387,-17.695073380681954
388,0.0
425,0.0
450,0.0
451,0.0
452,-18.396851430423602
453,0.0
490,0.0
515,0.0
516,0.0
542,0.0
592,0.0
632,4185520.7292576917
686,0.6666666666666672
687,0.6666666666666672
688,1.3333333333333344
2,1, 1,21, 0,11, 0.00,10.00,WinterDesignDay
250,16.470435260211076
251,4158310.8755217963
336,0.0
385,16.246858173253703
386,28.059949012546173
387,-17.695073507134847
388,0.0
425,0.0
450,0.0
451,0.0
452,-18.396902551100013
453,0.0
490,0.0
515,0.0
516,0.0
542,0.0
592,0.0
632,4162830.3233717796
686,0.6000000000000001
687,0.6000000000000001
688,1.2000000000000002
2,1, 1,21, 0,11,10.00,20.00,WinterDesignDay
250,16.73418066409229
251,5778771.320530463
336,0.0
385,16.780191506587034
386,28.05994901254617
387,-17.695050015993687
388,0.0
425,0.0
450,0.0
451,0.0
452,-18.396873809524415
453,0.0
490,0.0
515,0.0
516,0.0
542,0.0
592,0.0
632,5688932.828307504
686,1.0
687,1.0
688,2.0
2,1, 1,21, 0,11,20.00,30.00,WinterDesignDay
250,16.88407828023363
251,4232797.106660917
336,0.0
385,16.780191506587027
386,28.059949012546156
387,-17.69507496865373
388,0.0
425,0.0
450,0.0
451,0.0
452,-18.396851603866676
453,0.0
490,0.0
515,0.0
516,0.0
542,0.0
592,0.0
632,4185520.739628841
686,0.6666666666666664
687,0.6666666666666664
688,1.3333333333333328
2,1, 1,21, 0,11,30.00,40.00,WinterDesignDay
250,16.47043525889645
251,4158310.886983887
336,0.0
385,16.246858173253695
386,28.059949012546163
387,-17.695075077178323
388,0.0
425,0.0
450,0.0
451,0.0
452,-18.396902722523038
453,0.0
490,0.0
515,0.0
516,0.0
542,0.0
592,0.0
632,4162830.335231951
686,0.5999999999999996
687,0.5999999999999996
688,1.1999999999999993
2,1, 1,21, 0,11,40.00,50.00,WinterDesignDay
250,16.73418066403455
251,5778771.335786417
336,0.0
385,16.780191506587048
386,28.05994901254619
387,-17.695051567193225
388,0.0
425,0.0
450,0.0
451,0.0
452,-18.396873978868996
453,0.0
490,0.0
515,0.0
516,0.0
542,0.0
592,0.0
632,5688932.843799272
686,1.0000000000000009
687,1.0000000000000009
688,2.0000000000000018
2,1, 1,21, 0,11,50.00,60.00,WinterDesignDay
250,16.884078278966705
251,4232797.116613858
336,0.0
385,16.780191506587048
386,28.05994901254619
387,-17.69507649423725
388,0.0
425,0.0
450,0.0
451,0.0
452,-18.39685177049422
453,0.0
490,0.0
515,0.0
516,0.0
542,0.0
592,0.0
632,4185520.7495924616
686,0.6666666666666672
687,0.6666666666666672
688,1.3333333333333344
2,1, 1,21, 0,12, 0.00,10.00,WinterDesignDay
250,16.470435257633497
251,4158310.8979955153
336,0.0
385,16.246858173253703
386,28.059949012546173
387,-17.695076585537862
388,0.0
425,0.0
450,0.0
451,0.0
452,-18.396902887209905
453,0.0
490,0.0
515,0.0
516,0.0
542,0.0
592,0.0
632,4162830.3466260163
686,0.6000000000000001
687,0.6000000000000001
688,1.2000000000000002
2,1, 1,21, 0,12,10.00,20.00,WinterDesignDay
250,16.734180663979057
251,5778771.350442925
336,0.0
385,16.780191506587034
386,28.05994901254617
387,-17.69505305744905
388,0.0
425,0.0
450,0.0
451,0.0
452,-18.39687414155906
453,0.0
490,0.0
515,0.0
516,0.0
542,0.0
592,0.0
632,5688932.858682327
686,1.0
687,1.0
688,2.0
2,1, 1,21, 0,12,20.00,30.00,WinterDesignDay
250,16.884078277749516
251,4232797.126175709
336,0.0
385,16.780191506587027
386,28.059949012546156
387,-17.695077959883314
388,0.0
425,0.0
450,0.0
451,0.0
452,-18.396851930574016
453,0.0
490,0.0
515,0.0
516,0.0
542,0.0
592,0.0
632,4185520.7591645746
686,0.6666666666666664
687,0.6666666666666664
688,1.3333333333333328
2,1, 1,21, 0,12,30.00,40.00,WinterDesignDay
250,16.47043525642016
251,4158310.908574516
336,0.0
385,16.246858173253695
386,28.059949012546163
387,-17.695078034636623
388,0.0
425,0.0
450,0.0
451,0.0
452,-18.39690304542532
453,0.0
490,0.0
515,0.0
516,0.0
542,0.0
592,0.0
632,4162830.357572425
686,0.5999999999999996
687,0.5999999999999996
688,1.1999999999999993
2,1, 1,21, 0,12,40.00,50.00,WinterDesignDay
250,16.73418066392577
251,5778771.364523441
336,0.0
385,16.780191506587048
386,28.05994901254619
387,-17.695054489155474
388,0.0
425,0.0
450,0.0
451,0.0
452,-18.396874297856204
453,0.0
490,0.0
515,0.0
516,0.0
542,0.0
592,0.0
632,5688932.872980491
686,1.0000000000000009
687,1.0000000000000009
688,2.0000000000000018
2,1, 1,21, 0,12,50.00,60.00,WinterDesignDay
250,16.884078276580198
251,4232797.1353618335
336,0.0
385,16.780191506587048
386,28.05994901254619
387,-17.695079367947244
388,0.0
425,0.0
450,0.0
451,0.0
452,-18.39685208436349
453,0.0
490,0.0
515,0.0
516,0.0
542,0.0
592,0.0
632,4185520.7683605547
686,0.6666666666666672
687,0.6666666666666672
688,1.3333333333333344
2,1, 1,21, 0,13, 0.00,10.00,WinterDesignDay
250,16.470435255254507
251,4158310.9187377733
336,0.0
385,16.246858173253703
386,28.059949012546173
387,-17.695079426803495
388,0.0
425,0.0
450,0.0
451,0.0
452,-18.396903197423654
453,0.0
490,0.0
515,0.0
516,0.0
542,0.0
592,0.0
632,4162830.368088656
686,0.6000000000000001
687,0.6000000000000001
688,1.2000000000000002
2,1, 1,21, 0,13,10.00,20.00,WinterDesignDay
250,16.73418066387455
251,5778771.378050707
336,0.0
385,16.780191506587034
386,28.05994901254617
387,-17.695055864613103
388,0.0
425,0.0
450,0.0
451,0.0
452,-18.396874448011623
453,0.0
490,0.0
515,0.0
516,0.0
542,0.0
592,0.0
632,5688932.88671685
686,1.0
687,1.0
688,2.0
2,1, 1,21, 0,13,20.00,30.00,WinterDesignDay
250,16.884078275456787
251,4232797.144187002
336,0.0
385,16.780191506587027
386,28.059949012546156
387,-17.69508072069072
388,0.0
425,0.0
450,0.0
451,0.0
452,-18.39685223210979
453,0.0
490,0.0
515,0.0
516,0.0
542,0.0
592,0.0
632,4185520.7771951947
686,0.6666666666666664
687,0.6666666666666664
688,1.3333333333333328
2,1, 1,21, 0,13,30.00,40.00,WinterDesignDay
250,16.470435254134646
251,4158310.9285017205
336,0.0
385,16.246858173253695
386,28.059949012546163
387,-17.695080764274387
388,0.0
425,0.0
450,0.0
451,0.0
452,-18.396903343449242
453,0.0
490,0.0
515,0.0
516,0.0
542,0.0
592,0.0
632,4162830.3781917053
686,0.5999999999999996
687,0.5999999999999996
688,1.1999999999999993
2,1, 1,21, 0,13,40.00,50.00,WinterDesignDay
250,16.73418066382537
251,5778771.391046396
336,0.0
385,16.780191506587048
386,28.05994901254619
387,-17.695057186031494
388,0.0
425,0.0
450,0.0
451,0.0
452,-18.396874592266744
453,0.0
490,0.0
515,0.0
516,0.0
542,0.0
592,0.0
632,5688932.899913415
686,1.0000000000000009
687,1.0000000000000009
688,2.0000000000000018
2,1, 1,21, 0,13,50.00,60.00,WinterDesignDay
250,16.884078274377565
251,4232797.152665364
336,0.0
385,16.780191506587048
386,28.05994901254619
387,-17.6950820202878
388,0.0
425,0.0
450,0.0
451,0.0
452,-18.39685237405048
453,0.0
490,0.0
515,0.0
516,0.0
542,0.0
592,0.0
632,4185520.785682655
686,0.6666666666666672
687,0.6666666666666672