Program Version,EnergyPlus, Version 24.2.0-94a887817b, YMD=2025.02.04 15:38
1,5,Environment Title[],Latitude[deg],Longitude[deg],Time Zone[],Elevation[m]
2,8,Day of Simulation[],Month[],Day of Month[],DST Indicator[1=yes 0=no],Hour[],StartMinute[],EndMinute[],DayType
3,5,Cumulative Day of Simulation[],Month[],Day of Month[],DST Indicator[1=yes 0=no],DayType  ! When Daily Report Variables Requested
4,2,Cumulative Days of Simulation[],Month[]  ! When Monthly Report Variables Requested
5,1,Cumulative Days of Simulation[] ! When Run Period Report Variables Requested
6,1,Calendar Year of Simulation[] ! When Annual Report Variables Requested
250,1,LIVING ZONE,Zone Air Temperature [C] !TimeStep,REPORTSCH
251,1,LIVING ZONE,Zone Air System Sensible Heating Energy [J] !TimeStep,REPORTSCH
336,1,LIVING ZONE,Zone Air System Sensible Cooling Energy [J] !TimeStep,REPORTSCH
385,1,LIVING ZONE,Zone Thermostat Heating Setpoint Temperature [C] !TimeStep,REPORTSCH
386,1,LIVING ZONE,Zone Thermostat Cooling Setpoint Temperature [C] !TimeStep,REPORTSCH
387,1,GARAGE ZONE,Zone Air Temperature [C] !TimeStep,REPORTSCH
388,1,GARAGE ZONE,Zone Air System Sensible Heating Energy [J] !TimeStep,REPORTSCH
425,1,GARAGE ZONE,Zone Air System Sensible Cooling Energy [J] !TimeStep,REPORTSCH
450,1,GARAGE ZONE,Zone Thermostat Heating Setpoint Temperature [C] !TimeStep,REPORTSCH
451,1,GARAGE ZONE,Zone Thermostat Cooling Setpoint Temperature [C] !TimeStep,REPORTSCH
452,1,ATTIC ZONE,Zone Air Temperature [C] !TimeStep,REPORTSCH
453,1,ATTIC ZONE,Zone Air System Sensible Heating Energy [J] !TimeStep,REPORTSCH
490,1,ATTIC ZONE,Zone Air System Sensible Cooling Energy [J] !TimeStep,REPORTSCH
515,1,ATTIC ZONE,Zone Thermostat Heating Setpoint Temperature [C] !TimeStep,REPORTSCH
516,1,ATTIC ZONE,Zone Thermostat Cooling Setpoint Temperature [C] !TimeStep,REPORTSCH
542,1,ACDXCOIL 1,Cooling Coil Total Cooling Energy [J] !TimeStep,REPORTSCH
592,1,HEAT PUMP DX HEATING COIL 1,Heating Coil Heating Energy [J] !TimeStep,REPORTSCH
632,1,SUPP HEATING COIL 1,Heating Coil Heating Energy [J] !TimeStep,REPORTSCH
686,1,TWOSPEED HEAT PUMP 1,Unitary System DX Coil Cycling Ratio [] !TimeStep,REPORTSCH
687,1,TWOSPEED HEAT PUMP 1,Unitary System DX Coil Speed Ratio [] !TimeStep,REPORTSCH
688,1,TWOSPEED HEAT PUMP 1,Unitary System DX Coil Speed Level [] !TimeStep,REPORTSCH
End of Data Dictionary
1,RUN PERIOD 1,  41.98, -87.92,  -6.00, 201.00
2,21, 1,21, 0, 1, 0.00,10.00,Monday
250,1.674083035175146
251,36779172.498934746
336,0.0
385,20.27149326867913
386,26.59311735819215
387,-0.893414813867458
388,0.0
425,0.0
450,0.0
451,0.0
452,-1.9184772080906665
453,0.0
490,0.0
515,0.0
516,0.0
542,0.0
592,4839743.9850796405
632,31686106.51049597
686,1.0
687,1.0
688,2.0
2,21, 1,21, 0, 1,10.00,20.00,Monday
250,1.6747803015291471
251,36780226.68721117
336,0.0
385,20.27149326867913
386,26.59311735819215
387,-0.9019163203195354
388,0.0
425,0.0
450,0.0
451,0.0
452,-1.9004980519885826
453,0.0
490,0.0
515,0.0
516,0.0
542,0.0
592,4823801.676011793
632,31697908.92887162
686,1.0
687,1.0
688,2.0
2,21, 1,21, 0, 1,20.00,30.00,Monday
250,1.6736875792175132
251,36782457.836589605
336,0.0
385,20.27149326867913
386,26.59311735819215
387,-0.911609186912154
388,0.0
425,0.0
450,0.0
451,0.0
452,-1.8972258235157098
453,0.0
490,0.0
515,0.0
516,0.0
542,0.0
592,4807858.162905219
632,31715119.994248386
686,1.0
687,1.0
688,2.0
2,21, 1,21, 0, 1,30.00,40.00,Monday
250,1.6730569122514438
251,36784390.620334685
336,0.0
385,20.27149326867913
386,26.59311735819215
387,-0.9227003169660821
388,0.0
425,0.0
450,0.0
451,0.0
452,-1.909852525355732
453,0.0
490,0.0
515,0.0
516,0.0
542,0.0
592,4791913.445623511
632,31733246.221217614
686,1.0
687,1.0
688,2.0
2,21, 1,21, 0, 1,40.00,50.00,Monday
250,1.6724553827153994
251,36786306.35114523
336,0.0
385,20.27149326867913
386,26.59311735819215
387,-0.9353483934931707
388,0.0
425,0.0
450,0.0
451,0.0
452,-1.9368099321233667
453,0.0
490,0.0
515,0.0
516,0.0
542,0.0
592,4775967.524030241
632,31751123.54599015
686,1.0
687,1.0
688,2.0
2,21, 1,21, 0, 1,50.00,60.00,Monday
250,1.6718118833381461
251,36788250.16528067
336,0.0
385,20.27149326867913
386,26.59311735819215
387,-0.9497424120818706
388,0.0
425,0.0
450,0.0
451,0.0
452,-1.9765061791536342
453,0.0
490,0.0
515,0.0
516,0.0
542,0.0
592,4760020.397988958
632,31768991.87532466
686,1.0
687,1.0
688,2.0
2,21, 1,21, 0, 2, 0.00,10.00,Monday
250,1.6711862264876858
251,36790184.77968445
336,0.0
385,20.27149326867913
386,26.59311735819215
387,-0.9652257648270901
388,0.0
425,0.0
450,0.0
451,0.0
452,-2.022937674682799
453,0.0
490,0.0
515,0.0
516,0.0
542,0.0
592,4760020.397988958
632,31770936.08160726
686,1.0
687,1.0
688,2.0
2,21, 1,21, 0, 2,10.00,20.00,Monday
250,1.6704796503951171
251,36790734.423358135
336,0.0
385,20.27149326867913
386,26.59311735819215
387,-0.980883901465535
388,0.0
425,0.0
450,0.0
451,0.0
452,-2.065436784053848
453,0.0
490,0.0
515,0.0
516,0.0
542,0.0
592,4760020.397988958
632,31771442.154300295
686,1.0
687,1.0
688,2.0
2,21, 1,21, 0, 2,20.00,30.00,Monday
250,1.6697572967401157
251,36791077.64991314
336,0.0
385,20.27149326867913
386,26.59311735819215
387,-0.9961758094384671
388,0.0
425,0.0
450,0.0
451,0.0
452,-2.0968065085310332
453,0.0
490,0.0
515,0.0
516,0.0
542,0.0
592,4760020.397988958
632,31771776.886209246
686,1.0
687,1.0
688,2.0
2,21, 1,21, 0, 2,30.00,40.00,Monday
250,1.6690551648709664
251,36791459.46323208
336,0.0
385,20.27149326867913
386,26.59311735819215
387,-1.010781222495988
388,0.0
425,0.0
450,0.0
451,0.0
452,-2.1161947469039646
453,0.0
490,0.0
515,0.0
516,0.0
542,0.0
592,4760020.397988958
632,31772169.587513078
686,1.0
687,1.0
688,2.0
2,21, 1,21, 0, 2,40.00,50.00,Monday
250,1.6683671577740962
251,36791835.24358415
336,0.0
385,20.27149326867913
386,26.59311735819215
387,-1.0245570478858905
388,0.0
425,0.0
450,0.0
451,0.0
452,-2.126409111749615
453,0.0
490,0.0
515,0.0
516,0.0
542,0.0
592,4760020.397988958
632,31772552.97301853
686,1.0
687,1.0
688,2.0
2,21, 1,21, 0, 2,50.00,60.00,Monday
250,1.6676929851197562
251,36792198.2433638
336,0.0
385,20.27149326867913
386,26.59311735819215
387,-1.0374631433521262
388,0.0
425,0.0
450,0.0
451,0.0
452,-2.130553791250553
453,0.0
490,0.0
515,0.0
516,0.0
542,0.0
592,4760020.397988958
632,31772923.42168394
686,1.0
687,1.0
688,2.0
2,21, 1,21, 0, 3, 0.00,10.00,Monday
250,1.7414193676366194
251,36752501.45262189
336,0.0
385,20.27149326867913
386,26.59311735819215
387,-1.0391445243158302
388,0.0
425,0.0
450,0.0
451,0.0
452,-2.123219331483226
453,0.0
490,0.0
515,0.0
516,0.0
542,0.0
592,4762558.894114006
632,31770747.662671905
686,1.0
687,1.0
688,2.0
2,21, 1,21, 0, 3,10.00,20.00,Monday
250,1.8235831120752772
251,36709614.71977336
336,0.0
385,20.27149326867913
386,26.59311735819215
387,-1.0283603203860943
388,0.0
425,0.0
450,0.0
451,0.0
452,-2.0985622817380016
453,0.0
490,0.0
515,0.0
516,0.0
542,0.0
592,4764988.4357309695
632,31729975.95143873
686,1.0
687,1.0
688,2.0
2,21, 1,21, 0, 3,20.00,30.00,Monday
250,1.9028086487199045
251,36668519.16149933
336,0.0
385,20.27149326867913
386,26.59311735819215
387,-1.009565289796942
388,0.0
425,0.0
450,0.0
451,0.0
452,-2.0550588121286815
453,0.0
490,0.0
515,0.0
516,0.0
542,0.0
592,4767308.250738335
632,31684980.31813429
686,1.0
687,1.0
688,2.0
2,21, 1,21, 0, 3,30.00,40.00,Monday
250,1.98208200055251
251,36627357.767692916
336,0.0
385,20.27149326867913
386,26.59311735819215
387,-0.9865543183227823
388,0.0
425,0.0
450,0.0
451,0.0
452,-1.995741033582871
453,0.0
490,0.0
515,0.0
516,0.0
542,0.0
592,4769517.689516207
632,31641637.010325767
686,1.0
687,1.0
688,2.0
2,21, 1,21, 0, 3,40.00,50.00,Monday
250,2.061577696234791
251,36586081.603205994
336,0.0
385,20.27149326867913
386,26.59311735819215
387,-0.9606248204790279
388,0.0
425,0.0
450,0.0
451,0.0
452,-1.9250488373804069
453,0.0
490,0.0
515,0.0
516,0.0
542,0.0
592,4771616.115684973
632,31598383.943411317
686,1.0
687,1.0
688,2.0
2,21, 1,21, 0, 3,50.00,60.00,Monday
250,2.1413753271970544
251,36544654.323849946
336,0.0
385,20.27149326867913
386,26.59311735819215
387,-0.9315936367686916
388,0.0
425,0.0
450,0.0
451,0.0
452,-1.8466164545768629
453,0.0
490,0.0
515,0.0
516,0.0
542,0.0
592,4773602.736238396
632,31555134.45823111
686,1.0
687,1.0
688,2.0
2,21, 1,21, 0, 4, 0.00,10.00,Monday
250,2.146848107577266
251,36543262.47638717
336,0.0
385,20.27149326867913
386,26.59311735819215
387,-0.9099944032035138
388,0.0
425,0.0
450,0.0
451,0.0
452,-1.7706844552905436
453,0.0
490,0.0
515,0.0
516,0.0
542,0.0
592,4773428.982371633
632,31513889.507741664
686,1.0
687,1.0
688,2.0
2,21, 1,21, 0, 4,10.00,20.00,Monday
250,2.144228894530551
251,36544871.75817266
336,0.0
385,20.27149326867913
386,26.59311735819215
387,-0.8982680698816055
388,0.0
425,0.0
450,0.0
451,0.0
452,-1.706221983143762
453,0.0
490,0.0
515,0.0
516,0.0
542,0.0
592,4773255.169447958
632,31511314.538722847
686,1.0
687,1.0
688,2.0
2,21, 1,21, 0, 4,20.00,30.00,Monday
250,2.144859602015602
251,36544525.913917184
336,0.0
385,20.27149326867913
386,26.59311735819215
387,-0.8928058408410874
388,0.0
425,0.0
450,0.0
451,0.0
452,-1.65690003350333
453,0.0
490,0.0
515,0.0
516,0.0
542,0.0
592,4773081.297437258
632,31512892.86602126
686,1.0
687,1.0
688,2.0
2,21, 1,21, 0, 4,30.00,40.00,Monday
250,2.1453489431848807
251,36544303.189220935
336,0.0
385,20.27149326867913
386,26.59311735819215
387,-0.8898538405601097
388,0.0
425,0.0
450,0.0
451,0.0
452,-1.6211829246867153
453,0.0
490,0.0
515,0.0
516,0.0
542,0.0
592,4772907.366309401
632,31512767.937542733
686,1.0
687,1.0
688,2.0
2,21, 1,21, 0, 4,40.00,50.00,Monday
250,2.145535926689689
251,36544244.85950127
336,0.0
385,20.27149326867913
386,26.59311735819215
387,-0.887770609513406
388,0.0
425,0.0
450,0.0
451,0.0
452,-1.5954443254191588
453,0.0
490,0.0
515,0.0
516,0.0
542,0.0
592,4772733.376034233
632,31512720.758232936
686,1.0
687,1.0
688,2.0
2,21, 1,21, 0, 4,50.00,60.00,Monday
250,2.1457145700821294
251,36544185.969554394
336,0.0
385,20.27149326867913
386,26.59311735819215
387,-0.8864550338363991
388,0.0
425,0.0
450,0.0
451,0.0
452,-1.576584771561215
453,0.0
490,0.0
515,0.0
516,0.0
542,0.0
592,4772559.326581573
632,31512831.426119108
686,1.0
687,1.0
688,2.0
2,21, 1,21, 0, 5, 0.00,10.00,Monday
250,2.1458903309724584
251,36544128.39065956
336,0.0
385,20.27149326867913
386,26.59311735819215
387,-0.8859810051119397
388,0.0
425,0.0
450,0.0
451,0.0
452,-1.561960530354019
453,0.0
490,0.0
515,0.0
516,0.0
542,0.0
592,4759720.85868958
632,31525610.762787256
686,1.0
687,1.0
688,2.0
2,21, 1,21, 0, 5,10.00,20.00,Monday
250,2.1461305857821023
251,36545147.95642069
336,0.0
385,20.27149326867913
386,26.59311735819215
387,-0.8862073696808335
388,0.0
425,0.0
450,0.0
451,0.0
452,-1.5492613656487373
453,0.0
490,0.0
515,0.0
516,0.0
542,0.0
592,4746877.262331866
632,31539508.66340791
686,1.0
687,1.0
688,2.0
2,21, 1,21, 0, 5,20.00,30.00,Monday
250,2.1463866116155352
251,36546326.88336096
336,0.0
385,20.27149326867913
386,26.59311735819215
387,-0.8868994141375266
388,0.0
425,0.0
450,0.0
451,0.0
452,-1.5370816163896865
453,0.0
490,0.0
515,0.0
516,0.0
542,0.0
592,4734028.534436013
632,31553544.817266177
686,1.0
687,1.0
688,2.0
2,21, 1,21, 0, 5,30.00,40.00,Monday
250,2.1466386045987726
251,36547470.03919446
336,0.0
385,20.27149326867913
386,26.59311735819215
387,-0.8878544382079444
388,0.0
425,0.0
450,0.0
451,0.0
452,-1.5249731028475626
453,0.0
490,0.0
515,0.0
516,0.0
542,0.0
592,4721174.671927155
632,31567539.66824288
686,1.0
687,1.0
688,2.0
2,21, 1,21, 0, 5,40.00,50.00,Monday
250,2.1468936041777735
251,36548610.84564738
336,0.0
385,20.27149326867913
386,26.59311735819215
387,-0.8889403238285064
388,0.0
425,0.0
450,0.0
451,0.0
452,-1.512992291801256
453,0.0
490,0.0
515,0.0
516,0.0
542,0.0
592,4708315.671727969
632,31581541.099124007
686,1.0
687,1.0
688,2.0
2,21, 1,21, 0, 5,50.00,60.00,Monday
250,2.147159281634915
251,36549750.54747595
336,0.0
385,20.27149326867913
386,26.59311735819215
387,-0.8900808670842415
388,0.0
425,0.0
450,0.0
451,0.0
452,-1.5012908999669847
453,0.0
490,0.0
515,0.0
516,0.0
542,0.0
592,4695451.530758674
632,31595550.698510595
686,1.0
687,1.0
688,2.0
2,21, 1,21, 0, 6, 0.00,10.00,Monday
250,2.147440841512726
251,36550882.401058234
336,0.0
385,20.27149326867913
386,26.59311735819215
387,-0.891359786830973
388,0.0
425,0.0
450,0.0
451,0.0
452,-1.4905444902533167
453,0.0
490,0.0
515,0.0
516,0.0
542,0.0
592,4695264.08225586
632,31596878.56117911
686,1.0
687,1.0
688,2.0
2,21, 1,21, 0, 6,10.00,20.00,Monday
250,2.147627738858805
251,36550952.47088685
336,0.0
385,20.27149326867913
386,26.59311735819215
387,-0.8928558346678741
388,0.0
425,0.0
450,0.0
451,0.0
452,-1.4815644119321885
453,0.0
490,0.0
515,0.0
516,0.0
542,0.0
592,4695076.569900009
632,31597085.150929455
686,1.0
687,1.0
688,2.0
2,21, 1,21, 0, 6,20.00,30.00,Monday
250,2.1477870537454384
251,36550869.79722365
336,0.0
385,20.27149326867913
386,26.59311735819215
387,-0.8945604628536225
388,0.0
425,0.0
450,0.0
451,0.0
452,-1.4746889846601412
453,0.0
490,0.0
515,0.0
516,0.0
542,0.0
592,4694888.993658494
632,31597175.19529973
686,1.0
687,1.0
688,2.0
2,21, 1,21, 0, 6,30.00,40.00,Monday
250,2.147947871863384
251,36550824.80217669
336,0.0
385,20.27149326867913
386,26.59311735819215
387,-0.8964308817129971
388,0.0
425,0.0
450,0.0
451,0.0
452,-1.4697138720031704
453,0.0
490,0.0
515,0.0
516,0.0
542,0.0
592,4694701.353498662
632,31597318.650277246
686,1.0
687,1.0
688,2.0
2,21, 1,21, 0, 6,40.00,50.00,Monday
250,2.1481071379088035
251,36550781.89067503
336,0.0
385,20.27149326867913
386,26.59311735819215
387,-0.8984355835712114
388,0.0
425,0.0
450,0.0
451,0.0
452,-1.4661911145535087
453,0.0
490,0.0
515,0.0
516,0.0
542,0.0
592,4694513.649387832
632,31597462.6069102
686,1.0
687,1.0
688,2.0
2,21, 1,21, 0, 6,50.00,60.00,Monday
250,2.148264401718592
251,36550735.92093712
336,0.0
385,20.27149326867913
386,26.59311735819215
387,-0.9005580867204052
388,0.0
425,0.0
450,0.0
451,0.0
452,-1.4637022566770117
453,0.0
490,0.0
515,0.0
516,0.0
542,0.0
592,4694325.88129331
632,31597603.326782756
686,1.0
687,1.0
688,2.0
2,21, 1,21, 0, 7, 0.00,10.00,Monday
250,2.142316254497116
251,36553978.65678902
336,0.0
385,20.27149326867913
386,26.59311735819215
387,-0.9052487532961262
388,0.0
425,0.0
450,0.0
451,0.0
452,-1.4670579360980247
453,0.0
490,0.0
515,0.0
516,0.0
542,0.0
592,4723573.583255435
632,31568309.4618162
686,1.0
687,1.0
688,2.0
2,21, 1,21, 0, 7,10.00,20.00,Monday
250,2.1417970912398
251,36551729.297939435
336,0.0
385,20.27149326867913
386,26.59311735819215
387,-0.9146537613405743
388,0.0
425,0.0
450,0.0
451,0.0
452,-1.4856657556229005
453,0.0
490,0.0
515,0.0
516,0.0
542,0.0
592,4752837.186047653
632,31539721.036733363
686,1.0
687,1.0
688,2.0
2,21, 1,21, 0, 7,20.00,30.00,Monday
250,2.1422163907458627
251,36548588.53548983
336,0.0
385,20.27149326867913
386,26.59311735819215
387,-0.9289437530002802
388,0.0
425,0.0
450,0.0
451,0.0
452,-1.5249777631318335
453,0.0
490,0.0
515,0.0
516,0.0
542,0.0
592,4782116.702651945
632,31507806.241367303
686,1.0
687,1.0
688,2.0
2,21, 1,21, 0, 7,30.00,40.00,Monday
250,2.142376038964115
251,36545675.132513024
336,0.0
385,20.27149326867913
386,26.59311735819215
387,-0.947119714970954
388,0.0
425,0.0
450,0.0
451,0.0
452,-1.5828119330816641
453,0.0
490,0.0
515,0.0
516,0.0
542,0.0
592,4811412.146064445
632,31475457.538664266
686,1.0
687,1.0
688,2.0
2,21, 1,21, 0, 7,40.00,50.00,Monday
250,2.142531168892177
251,36542765.41238555
336,0.0
385,20.27149326867913
386,26.59311735819215
387,-0.9681126658672289
388,0.0
425,0.0
450,0.0
451,0.0
452,-1.6529026346531603
453,0.0
490,0.0
515,0.0
516,0.0
542,0.0
592,4840723.5292954575
632,31443233.99545628
686,1.0
687,1.0
688,2.0
2,21, 1,21, 0, 7,50.00,60.00,Monday
250,2.1427153465227486
251,36539828.95715763
336,0.0
385,20.27149326867913
386,26.59311735819215
387,-0.9912183225881339
388,0.0
425,0.0
450,0.0
451,0.0
452,-1.7294697080570403
453,0.0
490,0.0
515,0.0
516,0.0
542,0.0
592,4870050.865369482
632,31410985.83929123
686,1.0
687,1.0
688,2.0
2,21, 1,21, 0, 8, 0.00,10.00,Monday
250,2.344398214486407
251,36428395.81305585
336,0.0
385,20.27149326867913
386,26.59311735819215
387,-0.9873988145492311
388,0.0
425,0.0
450,0.0
451,0.0
452,-1.7885640247218306
453,0.0
490,0.0
515,0.0
516,0.0
542,0.0
592,4889730.300311495
632,31388367.950002167
686,1.0
687,1.0
688,2.0
2,21, 1,21, 0, 8,10.00,20.00,Monday
250,2.5464758250473145
251,36321337.40998201
336,0.0
385,20.27149326867913
386,26.59311735819215
387,-0.9463870319236862
388,0.0
425,0.0
450,0.0
451,0.0
452,-1.7804383257271943
453,0.0
490,0.0
515,0.0
516,0.0
542,0.0
592,4909380.719869504
632,31261876.908759817
686,1.0
687,1.0
688,2.0
2,21, 1,21, 0, 8,20.00,30.00,Monday
250,2.7362892277573168
251,36221569.68732751
336,0.0
385,20.27149326867913
386,26.59311735819215
387,-0.8763315869610264
388,0.0
425,0.0
450,0.0
451,0.0
452,-1.6742835529033646
453,0.0
490,0.0
515,0.0
516,0.0
542,0.0
592,4929009.6156952735
632,31135883.333789498
686,1.0
687,1.0
688,2.0
2,21, 1,21, 0, 8,30.00,40.00,Monday
250,2.9287450364260157
251,36120220.47557432
336,0.0
385,20.27149326867913
386,26.59311735819215
387,-0.7845949083937732
388,0.0
425,0.0
450,0.0
451,0.0
452,-1.4785331891656
453,0.0
490,0.0
515,0.0
516,0.0
542,0.0
592,4952863.6467726575
632,31012109.595417783
686,1.0
687,1.0
688,2.0
2,21, 1,21, 0, 8,40.00,50.00,Monday
250,3.123115538245422
251,36017474.42449634
336,0.0
385,20.27149326867913
386,26.59311735819215
387,-0.6806043289152207
388,0.0
425,0.0
450,0.0
451,0.0
452,-1.200444845245794
453,0.0
490,0.0
515,0.0
516,0.0
542,0.0
592,4977062.298687916
632,30886201.62898944
686,1.0
687,1.0
688,2.0
2,21, 1,21, 0, 8,50.00,60.00,Monday
250,3.3209522129547198
251,35913679.74558626
336,0.0
385,20.27149326867913
386,26.59311735819215
387,-0.5833261888601774
388,0.0
425,0.0
450,0.0
451,0.0
452,-0.8846688140449265
453,0.0
490,0.0
515,0.0
516,0.0
542,0.0
592,5001395.306277512
632,30710770.15465786
686,1.0
687,1.0
688,2.0
2,21, 1,21, 0, 9, 0.00,10.00,Monday
250,3.5800276722986917
251,35777845.46485907
336,0.0
385,20.27149326867913
386,26.59311735819215
387,-0.4434483095106564
388,0.0
425,0.0
450,0.0
451,0.0
452,-0.40349985153140616
453,0.0
490,0.0
515,0.0
516,0.0
542,0.0
592,5029363.153609448
632,30564332.11529872
686,1.0
687,1.0
688,2.0
2,21, 1,21, 0, 9,10.00,20.00,Monday
250,3.838476787688898
251,35641569.39844526
336,0.0
385,20.27149326867913
386,26.59311735819215
387,-0.2913085935025219
388,0.0
425,0.0
450,0.0
451,0.0
452,0.12095198079667935
453,0.0
490,0.0
515,0.0
516,0.0
542,0.0
592,5057356.862312016
632,30399498.096665837
686,1.0
687,1.0
688,2.0
2,21, 1,21, 0, 9,20.00,30.00,Monday
250,4.096974557150953
251,35505240.40095207
336,0.0
385,20.27149326867913
386,26.59311735819215
387,-0.1312321096431348
388,0.0
425,0.0
450,0.0
451,0.0
452,0.6857535147790561
453,0.0
490,0.0
515,0.0
516,0.0
542,0.0
592,5085392.284952975
632,30235194.510816023
686,1.0
687,1.0
688,2.0
2,21, 1,21, 0, 9,30.00,40.00,Monday
250,4.355027131824166
251,35369152.43753226
336,0.0
385,20.27149326867913
386,26.59311735819215
387,0.038360715609062235
388,0.0
425,0.0
450,0.0
451,0.0
452,1.2805674363518682
453,0.0
490,0.0
515,0.0
516,0.0
542,0.0
592,5113485.892141593
632,30070879.11544107
686,1.0
687,1.0
688,2.0
2,21, 1,21, 0, 9,40.00,50.00,Monday
250,4.615261228296539
251,35231044.01159039
336,0.0
385,20.271493268679148
386,26.59311735819217
387,0.18308636333193473
388,0.0
425,0.0
450,0.0
451,0.0
452,1.7837674537120063
453,0.0
490,0.0
515,0.0
516,0.0
542,0.0
592,5141654.529350725
632,29879018.684948854
686,1.0000000000000009
687,1.0000000000000009
688,2.0000000000000018
2,21, 1,21, 0, 9,50.00,60.00,Monday
250,4.8734485106480845
251,35094316.947424546
336,0.0
385,20.27149326867913
386,26.59311735819215
387,0.3351245901005008
388,0.0
425,0.0
450,0.0
451,0.0
452,2.3256083804570737
453,0.0
490,0.0
515,0.0
516,0.0
542,0.0
592,5169915.672059796
632,29740391.57166848
686,1.0
687,1.0
688,2.0
2,21, 1,21, 0,10, 0.00,10.00,Monday
250,5.312474481487344
251,34861484.70417315
336,0.0
385,20.27149326867913
386,26.593117358192153
387,0.5253665157381241
388,0.0
425,0.0
450,0.0
451,0.0
452,2.886493601193407
453,0.0
490,0.0
515,0.0
516,0.0
542,0.0
592,5241404.10703412
632,29443422.945601724
686,1.0
687,1.0
688,2.0
2,21, 1,21, 0,10,10.00,20.00,Monday
250,5.755059630203293
251,34627240.006215274
336,0.0
385,20.27149326867913
386,26.59311735819215
387,0.816620514172028
388,0.0
425,0.0
450,0.0
451,0.0
452,3.6416871951542165
453,0.0
490,0.0
515,0.0
516,0.0
542,0.0
592,5315291.857316207
632,29135767.119523898
686,1.0
687,1.0
688,2.0
2,21, 1,21, 0,10,20.00,30.00,Monday
250,6.201318519730499
251,34389849.66164074
336,0.0
385,20.271493268679123
386,26.59311735819214
387,1.0974485826257836
388,0.0
425,0.0
450,0.0
451,0.0
452,4.332228811784456
453,0.0
490,0.0
515,0.0
516,0.0
542,0.0
592,5391793.298050372
632,28822553.683028318
686,0.9999999999999996
687,0.9999999999999996
688,1.9999999999999991
2,21, 1,21, 0,10,30.00,40.00,Monday
250,6.649117696398969
251,34151503.46685753
336,0.0
385,20.271493268679137
386,26.59311735819216
387,1.379559560732393
388,0.0
425,0.0
450,0.0
451,0.0
452,5.031474626088355
453,0.0
490,0.0
515,0.0
516,0.0
542,0.0
592,5471132.199313744
632,28505192.540681995
686,1.0000000000000004
687,1.0000000000000004
688,2.000000000000001
2,21, 1,21, 0,10,40.00,50.00,Monday
250,7.098967028493382
251,33911916.23169923
336,0.0
385,20.271493268679148
386,26.59311735819217
387,1.6699628950567371
388,0.0
425,0.0
450,0.0
451,0.0
452,5.795664074051379
453,0.0
490,0.0
515,0.0
516,0.0
542,0.0
592,5553542.375759332
632,28183623.28743542
686,1.0000000000000009
687,1.0000000000000009
688,2.0000000000000018
2,21, 1,21, 0,10,50.00,60.00,Monday
250,7.549026316576791
251,33672074.198685616
336,0.0
385,20.271493268679148
386,26.59311735819217
387,1.9704016451161284
388,0.0
425,0.0
450,0.0
451,0.0
452,6.625609209738091
453,0.0
490,0.0
515,0.0
516,0.0
542,0.0
592,5639267.778995938
632,27858141.381541863
686,1.0000000000000009
687,1.0000000000000009
688,2.0000000000000018
2,21, 1,21, 0,11, 0.00,10.00,Monday
250,7.8330301433747085
251,33520947.88222477
336,0.0
385,20.27149326867913
386,26.593117358192153
387,2.257083573957231
388,0.0
425,0.0
450,0.0
451,0.0
452,7.481003562697994
453,0.0
490,0.0
515,0.0
516,0.0
542,0.0
592,5689519.861596226
632,27625725.149979446
686,1.0
687,1.0
688,2.0
2,21, 1,21, 0,11,10.00,20.00,Monday
250,8.112778304063896
251,33371984.34498773
336,0.0
385,20.27149326867913
386,26.59311735819215
387,2.5269345027471215
388,0.0
425,0.0
450,0.0
451,0.0
452,8.331761277439732
453,0.0
490,0.0
515,0.0
516,0.0
542,0.0
592,5740969.350869594
632,27424427.58886642
686,1.0
687,1.0
688,2.0
2,21, 1,21, 0,11,20.00,30.00,Monday
250,8.392442946829245
251,33223025.151624843
336,0.0
385,20.271493268679123
386,26.59311735819214
387,2.7991080095259413
388,0.0
425,0.0
450,0.0
451,0.0
452,9.178592222998178
453,0.0
490,0.0
515,0.0
516,0.0
542,0.0
592,5793671.095282218
632,27222779.699012503
686,0.9999999999999996
687,0.9999999999999996
688,1.9999999999999991
2,21, 1,21, 0,11,30.00,40.00,Monday
250,8.669940038833413
251,33075181.380079385
336,0.0
385,20.271493268679137
386,26.59311735819216
387,3.076430191561397
388,0.0
425,0.0
450,0.0
451,0.0
452,10.001543033340774
453,0.0
490,0.0
515,0.0
516,0.0
542,0.0
592,5847681.427966583
632,27020537.368785474
686,1.0000000000000004
687,1.0000000000000004
688,2.000000000000001
2,21, 1,21, 0,11,40.00,50.00,Monday
250,8.946358465013297
251,32927867.104434386
336,0.0
385,20.271493268679148
386,26.59311735819217
387,3.3555026488344817
388,0.0
425,0.0
450,0.0
451,0.0
452,10.7467586250065
453,0.0
490,0.0
515,0.0
516,0.0
542,0.0
592,5903058.082199926
632,26817659.912911355
686,1.0000000000000009
687,1.0000000000000009
688,2.0000000000000018
2,21, 1,21, 0,11,50.00,60.00,Monday
250,9.221387547110355
251,32781248.624974564
336,0.0
385,20.271493268679148
386,26.59311735819217
387,3.6324706240354976
388,0.0
425,0.0
450,0.0
451,0.0
452,11.381473774853625
453,0.0
490,0.0
515,0.0
516,0.0
542,0.0
592,5959860.237244541
632,26613995.553698782
686,1.0000000000000009
687,1.0000000000000009
688,2.0000000000000018
2,21, 1,21, 0,12, 0.00,10.00,Monday
250,9.485595701991594
251,32640261.225614056
336,0.0
385,20.27149326867913
386,26.59311735819215
387,3.872309164001673
388,0.0
425,0.0
450,0.0
451,0.0
452,11.880930564147883
453,0.0
490,0.0
515,0.0
516,0.0
542,0.0
592,5991096.197635709
632,26466919.96133411
686,1.0
687,1.0
688,2.0
2,21, 1,21, 0,12,10.00,20.00,Monday
250,9.74170247297257
251,32507054.539376963
336,0.0
385,20.27149326867913
386,26.59311735819215
387,4.164612422745359
388,0.0
425,0.0
450,0.0
451,0.0
452,12.444917025680441
453,0.0
490,0.0
515,0.0
516,0.0
542,0.0
592,7572016.881221027
632,24749763.693095576
686,1.0
687,1.0
688,2.0
2,21, 1,21, 0,12,20.00,30.00,Monday
250,10.002646534748205
251,32369649.35793147
336,0.0
385,20.27149326867913
386,26.59311735819215
387,4.433697066428755
388,0.0
425,0.0
450,0.0
451,0.0
452,12.96088687573997
453,0.0
490,0.0
515,0.0
516,0.0
542,0.0
592,7609409.155487607
632,24576151.15263158
686,1.0
687,1.0
688,2.0
2,21, 1,21, 0,12,30.00,40.00,Monday
250,10.262134976108179
251,32233037.8457346
336,0.0
385,20.27149326867913
386,26.59311735819215
387,4.692459875692231
388,0.0
425,0.0
450,0.0
451,0.0
452,13.451645742593769
453,0.0
490,0.0
515,0.0
516,0.0
542,0.0
592,7646583.592010483
632,24401965.870508038
686,1.0
687,1.0
688,2.0
2,21, 1,21, 0,12,40.00,50.00,Monday
250,10.5213127330654
251,32096592.747017957
336,0.0
385,20.27149326867913
386,26.59311735819215
387,4.946831779647264
388,0.0
425,0.0
450,0.0
451,0.0
452,13.89318097926919
453,0.0
490,0.0
515,0.0
516,0.0
542,0.0
592,7683540.190789655
632,24228472.250501953
686,1.0
687,1.0
688,2.0
2,21, 1,21, 0,12,50.00,60.00,Monday
250,10.780337737766015
251,31960229.369811937
336,0.0
385,20.27149326867913
386,26.59311735819215
387,5.195727994895973
388,0.0
425,0.0
450,0.0
451,0.0
452,14.261247199871644
453,0.0
490,0.0
515,0.0
516,0.0
542,0.0
592,7720278.951825122
632,24055326.994508326
686,1.0
687,1.0
688,2.0
2,21, 1,21, 0,13, 0.00,10.00,Monday
250,10.96039968084739
251,31863586.654893637
336,0.0
385,20.27149326867913
386,26.59311735819215
387,5.428048347597579
388,0.0
425,0.0
450,0.0
451,0.0
452,14.55253664497424
453,0.0
490,0.0
515,0.0
516,0.0
542,0.0
592,7745410.487127082
632,23944335.65626226
686,1.0
687,1.0
688,2.0
2,21, 1,21, 0,13,10.00,20.00,Monday
250,11.137582810874736
251,31771479.06176982
336,0.0
385,20.27149326867913
386,26.59311735819215
387,5.646727131248779
388,0.0
425,0.0
450,0.0
451,0.0
452,14.781632976879493
453,0.0
490,0.0
515,0.0
516,0.0
542,0.0
592,7770439.060057999
632,23837784.640678626
686,1.0
687,1.0
688,2.0
2,21, 1,21, 0,13,20.00,30.00,Monday
250,11.31861444968335
251,31677780.49774722
336,0.0
385,20.27149326867913
386,26.59311735819215
387,5.85151021917284
388,0.0
425,0.0
450,0.0
451,0.0
452,14.964710988746408
453,0.0
490,0.0
515,0.0
516,0.0
542,0.0
592,7795364.670617863
632,23721250.11623734
686,1.0
687,1.0
688,2.0
2,21, 1,21, 0,13,30.00,40.00,Monday
250,11.499016732750139
251,31584459.069140077
336,0.0
385,20.27149326867913
386,26.59311735819215
387,6.0464193429438
388,0.0
425,0.0
450,0.0
451,0.0
452,15.113736376299487
453,0.0
490,0.0
515,0.0
516,0.0
542,0.0
592,7820187.318806678
632,23602778.830424175
686,1.0
687,1.0
688,2.0
2,21, 1,21, 0,13,40.00,50.00,Monday
250,11.678949672444134
251,31491421.894393012
336,0.0
385,20.27149326867913
386,26.59311735819215
387,6.23520271519273
388,0.0
425,0.0
450,0.0
451,0.0
452,15.232949933660485
453,0.0
490,0.0
515,0.0
516,0.0
542,0.0
592,7844907.00462445
632,23484781.2470185
686,1.0
687,1.0
688,2.0
2,21, 1,21, 0,13,50.00,60.00,Monday
250,11.85878080098544
251,31398472.078201197
336,0.0
385,20.27149326867913
386,26.59311735819215
387,6.419165702341827
388,0.0
425,0.0
450,0.0
451,0.0
452,15.32609937896033
453,0.0
490,0.0
515,0.0
516,0.0
542,0.0
592,7869523.728071173
632,23367172.57799105
686,1.0
687,1.0
688,2.0
2,21, 1,21, 0,14, 0.00,10.00,Monday
250,12.057574073305863
251,31295312.421873882
336,0.0
385,20.27149326867913
386,26.59311735819215
387,6.601131960265164
388,0.0
425,0.0
450,0.0
451,0.0
452,15.381825298967414
453,0.0
490,0.0
515,0.0
516,0.0
542,0.0
592,7896260.907308882
632,23247530.418960042
686,1.0
687,1.0
688,2.0
2,21, 1,21, 0,14,10.00,20.00,Monday
250,12.253475723079987
251,31193392.543473724
336,0.0
385,20.27149326867913
386,26.59311735819215
387,6.781224939547825
388,0.0
425,0.0
450,0.0
451,0.0
452,15.381851324869004
453,0.0
490,0.0
515,0.0
516,0.0
542,0.0
592,7922875.552815753
632,23117447.29140854
686,1.0
687,1.0
688,2.0
2,21, 1,21, 0,14,20.00,30.00,Monday
250,12.44801871638558
251,31092153.459108263
336,0.0
385,20.27149326867913
386,26.59311735819215
387,6.957293783373755
388,0.0
425,0.0
450,0.0
451,0.0
452,15.325751012723511
453,0.0
490,0.0
515,0.0
516,0.0
542,0.0
592,7949367.664591796
632,22988995.18901564
686,1.0
687,1.0
688,2.0
2,21, 1,21, 0,14,30.00,40.00,Monday
250,12.641678587802184
251,30991421.108379178
336,0.0
385,20.27149326867913
386,26.59311735819215
387,7.123402498886788
388,0.0
425,0.0
450,0.0
451,0.0
452,15.203039523186877
453,0.0
490,0.0
515,0.0
516,0.0
542,0.0
592,7975737.242637001
632,22861429.296812017
686,1.0
687,1.0
688,2.0
2,21, 1,21, 0,14,40.00,50.00,Monday
250,12.834473043524929
251,30891178.973465163
336,0.0
385,20.27149326867913
386,26.59311735819215
387,7.275858278871809
388,0.0
425,0.0
450,0.0
451,0.0
452,14.994036229109103
453,0.0
490,0.0
515,0.0
516,0.0
542,0.0
592,8001984.286951372
632,22734485.767120622
686,1.0
687,1.0
688,2.0
2,21, 1,21, 0,14,50.00,60.00,Monday
250,13.026573825715667
251,30791332.05771358
336,0.0
385,20.27149326867913
386,26.59311735819215
387,7.414946069815017
388,0.0
425,0.0
450,0.0
451,0.0
452,14.701859943868444
453,0.0
490,0.0
515,0.0
516,0.0
542,0.0
592,8028108.797534912
632,22608152.84730124
686,1.0
687,1.0
688,2.0
2,21, 1,21, 0,15, 0.00,10.00,Monday
250,13.280091623272298
251,30659090.538684115
336,0.0
385,20.27149326867913
386,26.59311735819215
387,7.535680011571122
388,0.0
425,0.0
450,0.0
451,0.0
452,14.405838268568594
453,0.0
490,0.0
515,0.0
516,0.0
542,0.0
592,8062750.870287224
632,22411510.886728734
686,1.0