Program Version,EnergyPlus, Version 24.2.0-94a887817b, YMD=2025.02.04 15:38
1,5,Environment Title[],Latitude[deg],Longitude[deg],Time Zone[],Elevation[m]
2,8,Day of Simulation[],Month[],Day of Month[],DST Indicator[1=yes 0=no],Hour[],StartMinute[],EndMinute[],DayType
3,5,Cumulative Day of Simulation[],Month[],Day of Month[],DST Indicator[1=yes 0=no],DayType  ! When Daily Meters Requested
4,2,Cumulative Days of Simulation[],Month[]  ! When Monthly Meters Requested
5,1,Cumulative Days of Simulation[] ! When Run Period Meters Requested
6,1,Calendar Year of Simulation[] ! When Annual Meters Requested
11,9,Electricity:Facility [J] !Monthly [Value,Min,Day,Hour,Minute,Max,Day,Hour,Minute]
23,9,Electricity:Building [J] !Monthly [Value,Min,Day,Hour,Minute,Max,Day,Hour,Minute]
59,9,InteriorLights:Electricity [J] !Monthly [Value,Min,Day,Hour,Minute,Max,Day,Hour,Minute]
521,9,Electricity:HVAC [J] !Monthly [Value,Min,Day,Hour,Minute,Max,Day,Hour,Minute]
637,9,NaturalGas:Facility [J] !Monthly [Value,Min,Day,Hour,Minute,Max,Day,Hour,Minute]
649,9,NaturalGas:HVAC [J] !Monthly [Value,Min,Day,Hour,Minute,Max,Day,Hour,Minute]
13,11,Electricity:Facility [J] !RunPeriod [Value,Min,Month,Day,Hour,Minute,Max,Month,Day,Hour,Minute]
25,11,Electricity:Building [J] !RunPeriod [Value,Min,Month,Day,Hour,Minute,Max,Month,Day,Hour,Minute]
61,11,InteriorLights:Electricity [J] !RunPeriod [Value,Min,Month,Day,Hour,Minute,Max,Month,Day,Hour,Minute]
523,11,Electricity:HVAC [J] !RunPeriod [Value,Min,Month,Day,Hour,Minute,Max,Month,Day,Hour,Minute]
639,11,NaturalGas:Facility [J] !RunPeriod [Value,Min,Month,Day,Hour,Minute,Max,Month,Day,Hour,Minute]
651,11,NaturalGas:HVAC [J] !RunPeriod [Value,Min,Month,Day,Hour,Minute,Max,Month,Day,Hour,Minute]
End of Data Dictionary
1,RUN PERIOD 1,  41.98, -87.92,  -6.00, 201.00
4,31, 1
11,9830044731.109005,408891.4285714286, 5, 6,50,2984541.8121568137,16,13,60
23,990994629.8780642,30000.0, 1, 1,10,615068.5723753888, 1, 9,10
59,970200000.0,30000.0, 1, 1,10,600000.0, 1, 8,10
521,8839050101.230986,378891.4285714286, 5, 6,50,2369473.239781425,16,13,60
637,175842933138.68637,26894391.49252884,21,16,10,41250000.0, 1, 1,30
649,175842933138.68637,26894391.49252884,21,16,10,41250000.0, 1, 1,30
4,59, 2
11,9362618407.914335,99999999999999.0, 5, 6,50,3026003.252419936,22,15,30
23,866242286.8504894,99999999999999.0, 1, 1,10,-99999999999999.0, 1, 9,10
59,848160000.0,99999999999999.0, 1, 1,10,-99999999999999.0, 1, 8,10
521,8496376121.063895,99999999999999.0, 5, 6,50,2410934.680044547,22,15,30
637,154551535271.31503,25252075.20382524,23,12,20,-99999999999999.0, 1, 1,30
649,154551535271.31503,25252075.20382524,23,12,20,-99999999999999.0, 1, 1,30
4,90, 3
11,10952439035.387756,99999999999999.0, 5, 6,50,3230498.1239039004,26,16,20
23,922347600.4926846,99999999999999.0, 1, 1,10,701649.7417782429,26,14,60
59,897480000.0,99999999999999.0, 1, 1,10,-99999999999999.0, 1, 8,10
521,10030091434.89504,0.0,27,13,30,2532304.378356581,26,16,60
637,155817728983.36594,0.0,27,13,30,-99999999999999.0, 1, 1,30
649,155817728983.36594,0.0,27,13,30,-99999999999999.0, 1, 1,30
4,120, 4
11,9411689145.28634,30000.0,11,19,10,3236569.680626929,24,10,10
23,963500796.1837,99999999999999.0, 1, 1,10,703164.3593578761,24,16,60
59,929520000.0,99999999999999.0, 1, 1,10,-99999999999999.0, 1, 8,10
521,8448188349.102693,99999999999999.0,27,13,30,2546282.815443099,24,10,10
637,113689124276.49988,99999999999999.0,27,13,30,-99999999999999.0, 1, 1,30
649,113689124276.49988,99999999999999.0,27,13,30,-99999999999999.0, 1, 1,30
4,151, 5
11,8495696697.748315,99999999999999.0,11,19,10,-99999999999999.0,24,10,10
23,1024349985.6753124,99999999999999.0, 1, 1,10,705429.7975449377,10,11,50
59,970200000.0,99999999999999.0, 1, 1,10,-99999999999999.0, 1, 8,10
521,7471346712.073061,99999999999999.0,27,13,30,2561785.3155190414,29, 7,20
637,83008125199.32721,99999999999999.0,27,13,30,-99999999999999.0, 1, 1,30
649,83008125199.32721,99999999999999.0,27,13,30,-99999999999999.0, 1, 1,30
4,181, 6
11,6155141943.427403,99999999999999.0,11,19,10,-99999999999999.0,24,10,10
23,913848456.5293672,99999999999999.0, 1, 1,10,-99999999999999.0,10,11,50
59,856800000.0,99999999999999.0, 1, 1,10,-99999999999999.0, 1, 8,10
521,5241293486.898127,99999999999999.0,27,13,30,-99999999999999.0,29, 7,20
637,33525497525.416985,99999999999999.0,27,13,30,-99999999999999.0, 1, 1,30
649,33525497525.416985,99999999999999.0,27,13,30,-99999999999999.0, 1, 1,30
4,212, 7
11,5804774671.361644,99999999999999.0,11,19,10,-99999999999999.0,24,10,10
23,1010813525.8438013,99999999999999.0, 1, 1,10,-99999999999999.0,10,11,50
59,970200000.0,99999999999999.0, 1, 1,10,-99999999999999.0, 1, 8,10
521,4793961145.517921,99999999999999.0,27,13,30,-99999999999999.0,29, 7,20
637,9947400413.827871,99999999999999.0,27,13,30,-99999999999999.0, 1, 1,30
649,9947400413.827871,99999999999999.0,27,13,30,-99999999999999.0, 1, 1,30
4,243, 8
11,4947063614.473047,99999999999999.0,11,19,10,-99999999999999.0,24,10,10
23,987694822.8701719,99999999999999.0, 1, 1,10,-99999999999999.0,10,11,50
59,933840000.0,99999999999999.0, 1, 1,10,-99999999999999.0, 1, 8,10
521,3959368791.602965,99999999999999.0,27,13,30,-99999999999999.0,29, 7,20
637,21444199320.46271,99999999999999.0,27,13,30,-99999999999999.0, 1, 1,30
649,21444199320.46271,99999999999999.0,27,13,30,-99999999999999.0, 1, 1,30
4,273, 9
11,6149614730.281928,99999999999999.0,11,19,10,-99999999999999.0,24,10,10
23,951806910.8882467,99999999999999.0, 1, 1,10,-99999999999999.0,10,11,50
59,893160000.0,99999999999999.0, 1, 1,10,-99999999999999.0, 1, 8,10
521,5197807819.393767,99999999999999.0,27,13,30,2568333.164455648,22,11,40
637,51207493057.80975,99999999999999.0,27,13,30,-99999999999999.0, 1, 1,30
649,51207493057.80975,99999999999999.0,27,13,30,-99999999999999.0, 1, 1,30
4,304,10
11,10321520978.906061,99999999999999.0,11,19,10,3250663.7250772454,30,13,20
23,1015476316.6639739,99999999999999.0, 1, 1,10,-99999999999999.0,10,11,50
59,970200000.0,99999999999999.0, 1, 1,10,-99999999999999.0, 1, 8,10
521,9306044662.242142,99999999999999.0,27,13,30,-99999999999999.0,22,11,40
637,120043342953.57948,99999999999999.0,27,13,30,-99999999999999.0, 1, 1,30
649,120043342953.57948,99999999999999.0,27,13,30,-99999999999999.0, 1, 1,30
4,334,11
11,10375529712.568615,99999999999999.0,11,19,10,-99999999999999.0,30,13,20
23,929430098.8742383,99999999999999.0, 1, 1,10,-99999999999999.0,10,11,50
59,893160000.0,99999999999999.0, 1, 1,10,-99999999999999.0, 1, 8,10
521,9446099613.694405,99999999999999.0,27,13,30,-99999999999999.0,22,11,40
637,141628418433.55762,99999999999999.0,27,13,30,-99999999999999.0, 1, 1,30
649,141628418433.55762,99999999999999.0,27,13,30,-99999999999999.0, 1, 1,30
4,365,12
11,10442681135.919313,99999999999999.0,11,19,10,-99999999999999.0,30,13,20
23,953730515.5355394,99999999999999.0, 1, 1,10,-99999999999999.0,10,11,50
59,933840000.0,99999999999999.0, 1, 1,10,-99999999999999.0, 1, 8,10
521,9488950620.383821,99999999999999.0,27,13,30,-99999999999999.0,22,11,40
637,176445426617.596,99999999999999.0,27,13,30,-99999999999999.0, 1, 1,30
649,176445426617.596,99999999999999.0,27,13,30,-99999999999999.0, 1, 1,30
5,365
13,102248814804.37782,30000.0, 4,11,19,10,3250663.7250772454,10,30,13,20
25,11530235946.287695,30000.0, 1, 1, 1,10,705429.7975449377, 5,10,11,50
61,11066760000.0,30000.0, 1, 1, 1,10,600000.0, 1, 1, 8,10
523,90718578858.1024,0.0, 3,27,13,30,2568333.164455648, 9,22,11,40
639,1237151225191.4429,0.0, 3,27,13,30,41250000.0, 1, 1, 1,30
651,1237151225191.4429,0.0, 3,27,13,30,41250000.0, 1, 1, 1,30
1,RUN PERIOD 2,  41.98, -87.92,  -6.00, 201.00
4,1, 7
11,113610367.42333254,99999999999999.0,11,19,10,-99999999999999.0,30,13,20
23,41584114.342523254,99999999999999.0, 1, 1,10,-99999999999999.0,10,11,50
59,40680000.0,99999999999999.0, 1, 1,10,-99999999999999.0, 1, 8,10
521,72026253.0808092,99999999999999.0,27,13,30,-99999999999999.0,22,11,40
637,0.0,99999999999999.0,27,13,30,-99999999999999.0, 1, 1,30
649,0.0,99999999999999.0,27,13,30,-99999999999999.0, 1, 1,30
5,1
13,113610367.42333254,99999999999999.0, 4,11,19,10,-99999999999999.0,10,30,13,20
25,41584114.342523254,99999999999999.0, 1, 1, 1,10,-99999999999999.0, 5,10,11,50
61,40680000.0,99999999999999.0, 1, 1, 1,10,-99999999999999.0, 1, 1, 8,10
523,72026253.0808092,99999999999999.0, 3,27,13,30,-99999999999999.0, 9,22,11,40
639,0.0,99999999999999.0, 3,27,13,30,-99999999999999.0, 1, 1, 1,30
651,0.0,99999999999999.0, 3,27,13,30,-99999999999999.0, 1, 1, 1,30
End of Data
 Number of Records Written=          90
