Program Version,EnergyPlus, Version 23.2.0-7636e6b3e9, YMD=2024.04.01 10:52
1,5,Environment Title[],Latitude[deg],Longitude[deg],Time Zone[],Elevation[m]
2,8,Day of Simulation[],Month[],Day of Month[],DST Indicator[1=yes 0=no],Hour[],StartMinute[],EndMinute[],DayType
3,5,Cumulative Day of Simulation[],Month[],Day of Month[],DST Indicator[1=yes 0=no],DayType  ! When Daily Report Variables Requested
4,2,Cumulative Days of Simulation[],Month[]  ! When Monthly Report Variables Requested
5,1,Cumulative Days of Simulation[] ! When Run Period Report Variables Requested
6,1,Calendar Year of Simulation[] ! When Annual Report Variables Requested
7,1,Environment,Site Outdoor Air Drybulb Temperature [C] !Hourly
8,1,ZONE ONE,Zone Air Temperature [C] !Hourly
9,1,ZONE ONE,Zone Air System Sensible Heating Energy [J] !Hourly
94,1,ZONE ONE,Zone Air System Sensible Cooling Energy [J] !Hourly
145,1,DistrictHeatingWater:Facility [J] !Hourly
194,1,DistrictCooling:Facility [J] !Hourly
End of Data Dictionary
1,CHICAGO_IL_USA COOLING .4% CONDITIONS DB=>MWB,  41.78, -87.75,  -6.00, 190.00
2,1, 7,21, 0, 1, 0.00,60.00,SummerDesignDay
7,23.453249999999997
8,22.083832545931365
9,0.0
94,0.0
145,0.0
194,0.0
2,1, 7,21, 0, 2, 0.00,60.00,SummerDesignDay
7,22.935499999999998
8,21.92698698945101
9,0.0
94,0.0
145,0.0
194,0.0
2,1, 7,21, 0, 3, 0.00,60.00,SummerDesignDay
7,22.567625
8,21.805947811284163
9,0.0
94,0.0
145,0.0
194,0.0
2,1, 7,21, 0, 4, 0.00,60.00,SummerDesignDay
7,22.240624999999998
8,21.713155758661557
9,0.0
94,0.0
145,0.0
194,0.0
2,1, 7,21, 0, 5, 0.00,60.00,SummerDesignDay
7,21.981749999999998
8,21.64004848422984
9,0.0
94,0.0
145,0.0
194,0.0
2,1, 7,21, 0, 6, 0.00,60.00,SummerDesignDay
7,22.036249999999995
8,21.709113071053448
9,0.0
94,0.0
145,0.0
194,0.0
2,1, 7,21, 0, 7, 0.00,60.00,SummerDesignDay
7,22.594875
8,22.430769900654763
9,0.0
94,0.0
145,0.0
194,0.0
2,1, 7,21, 0, 8, 0.00,60.00,SummerDesignDay
7,24.039124999999995
8,23.413169280163373
9,0.0
94,0.0
145,0.0
194,0.0
2,1, 7,21, 0, 9, 0.00,60.00,SummerDesignDay
7,26.028374999999997
8,23.9862445361704
9,0.0
94,279474.6819130876
145,3.069544618483633e-10
194,279168.8458567445
2,1, 7,21, 0,10, 0.00,60.00,SummerDesignDay
7,27.963124999999998
8,23.9999999966112
9,0.0
94,907273.3751448458
145,1.1510792319313623e-9
194,907273.369153623
2,1, 7,21, 0,11, 0.00,60.00,SummerDesignDay
7,29.679874999999996
8,23.999999999999982
9,0.0
94,1371093.324348144
145,1.432454155292362e-9
194,1371093.3243481074
2,1, 7,21, 0,12, 0.00,60.00,SummerDesignDay
7,30.974249999999998
8,24.0
9,0.0
94,1626434.3740846482
145,2.7114310796605423e-9
194,1626434.374084648
2,1, 7,21, 0,13, 0.00,60.00,SummerDesignDay
7,31.927999999999997
8,24.000000000000004
9,0.0
94,1750492.7989454584
145,2.0463630789890885e-9
194,1750492.7989454586
2,1, 7,21, 0,14, 0.00,60.00,SummerDesignDay
7,32.595625
8,24.0
9,0.0
94,1921780.8927697707
145,2.4556356947869062e-9
194,1921780.8927697714
2,1, 7,21, 0,15, 0.00,60.00,SummerDesignDay
7,32.8
8,24.0
9,0.0
94,2009616.1138833824
145,2.353317540837452e-9
194,2009616.1138833822
2,1, 7,21, 0,16, 0.00,60.00,SummerDesignDay
7,32.39125
8,24.0
9,0.0
94,1918295.6586885941
145,2.4556356947869062e-9
194,1918295.658688594
2,1, 7,21, 0,17, 0.00,60.00,SummerDesignDay
7,31.601
8,24.0
9,0.0
94,1635544.762243595
145,2.5067947717616335e-9
194,1635544.762243595
2,1, 7,21, 0,18, 0.00,60.00,SummerDesignDay
7,30.592749999999995
8,24.0
9,0.0
94,1286352.0771902173
145,1.7394086171407253e-9
194,1286352.0771902173
2,1, 7,21, 0,19, 0.00,60.00,SummerDesignDay
7,29.162124999999996
8,24.0
9,0.0
94,750324.2245443409
145,1.0487610779819079e-9
194,750324.2245443407
2,1, 7,21, 0,20, 0.00,60.00,SummerDesignDay
7,27.799624999999995
8,23.94829921501359
9,0.0
94,76958.3056644498
145,1.0871303857129533e-10
194,76958.30566444984
2,1, 7,21, 0,21, 0.00,60.00,SummerDesignDay
7,26.736874999999998
8,23.44206621328742
9,0.0
94,0.0
145,0.0
194,0.0
2,1, 7,21, 0,22, 0.00,60.00,SummerDesignDay
7,25.755874999999996
8,22.94055923331092
9,0.0
94,0.0
145,0.0
194,0.0
2,1, 7,21, 0,23, 0.00,60.00,SummerDesignDay
7,24.911125
8,22.576411715592403
9,0.0
94,0.0
145,0.0
194,0.0
2,1, 7,21, 0,24, 0.00,60.00,SummerDesignDay
7,24.148124999999997
8,22.293754730592596
9,0.0
94,0.0
145,0.0
194,0.0
1,CHICAGO_IL_USA HEATING 99.6% CONDITIONS,  41.78, -87.75,  -6.00, 190.00
2,1, 1,21, 0, 1, 0.00,60.00,WinterDesignDay
7,-21.2
8,20.0
9,5896648.253182389
94,0.0
145,5896648.25318239
194,4.092726157978177e-9
2,1, 1,21, 0, 2, 0.00,60.00,WinterDesignDay
7,-21.2
8,20.0
9,5896648.253182392
94,0.0
145,5896648.253182392
194,4.092726157978177e-9
2,1, 1,21, 0, 3, 0.00,60.00,WinterDesignDay
7,-21.2
8,20.0
9,5896648.253182394
94,0.0
145,5896648.253182395
194,4.092726157978177e-9
2,1, 1,21, 0, 4, 0.00,60.00,WinterDesignDay
7,-21.2
8,20.0
9,5896648.253182389
94,0.0
145,5896648.25318239
194,4.092726157978177e-9
2,1, 1,21, 0, 5, 0.00,60.00,WinterDesignDay
7,-21.2
8,20.0
9,5896648.253182392
94,0.0
145,5896648.253182392
194,4.092726157978177e-9
2,1, 1,21, 0, 6, 0.00,60.00,WinterDesignDay
7,-21.2
8,20.0
9,5896648.253182394
94,0.0
145,5896648.253182395
194,4.092726157978177e-9
2,1, 1,21, 0, 7, 0.00,60.00,WinterDesignDay
7,-21.2
8,20.0
9,5896648.253182389
94,0.0
145,5896648.25318239
194,4.092726157978177e-9
2,1, 1,21, 0, 8, 0.00,60.00,WinterDesignDay
7,-21.2
8,20.0
9,5896648.253182392
94,0.0
145,5896648.253182392
194,4.092726157978177e-9
2,1, 1,21, 0, 9, 0.00,60.00,WinterDesignDay
7,-21.2
8,20.0
9,5896648.253182394
94,0.0
145,5896648.253182395
194,4.092726157978177e-9
2,1, 1,21, 0,10, 0.00,60.00,WinterDesignDay
7,-21.2
8,20.0
9,5896648.253182389
94,0.0
145,5896648.25318239
194,4.092726157978177e-9
2,1, 1,21, 0,11, 0.00,60.00,WinterDesignDay
7,-21.2
8,20.0
9,5896648.253182392
94,0.0
145,5896648.253182392
194,4.092726157978177e-9
2,1, 1,21, 0,12, 0.00,60.00,WinterDesignDay
7,-21.2
8,20.0
9,5896648.253182394
94,0.0
145,5896648.253182395
194,4.092726157978177e-9
2,1, 1,21, 0,13, 0.00,60.00,WinterDesignDay
7,-21.2
8,20.0
9,5896648.253182389
94,0.0
145,5896648.25318239
194,4.092726157978177e-9
2,1, 1,21, 0,14, 0.00,60.00,WinterDesignDay
7,-21.2
8,20.0
9,5896648.253182392
94,0.0
145,5896648.253182392
194,4.092726157978177e-9
2,1, 1,21, 0,15, 0.00,60.00,WinterDesignDay
7,-21.2
8,20.0
9,5896648.253182394
94,0.0
145,5896648.253182395
194,4.092726157978177e-9
2,1, 1,21, 0,16, 0.00,60.00,WinterDesignDay
7,-21.2
8,20.0
9,5896648.253182389
94,0.0
145,5896648.25318239
194,4.092726157978177e-9
2,1, 1,21, 0,17, 0.00,60.00,WinterDesignDay
7,-21.2
8,20.0
9,5896648.253182392
94,0.0
145,5896648.253182392
194,4.092726157978177e-9
2,1, 1,21, 0,18, 0.00,60.00,WinterDesignDay
7,-21.2
8,20.0
9,5896648.253182394
94,0.0
145,5896648.253182395
194,4.092726157978177e-9
2,1, 1,21, 0,19, 0.00,60.00,WinterDesignDay
7,-21.2
8,20.0
9,5896648.253182389
94,0.0
145,5896648.25318239
194,4.092726157978177e-9
2,1, 1,21, 0,20, 0.00,60.00,WinterDesignDay
7,-21.2
8,20.0
9,5896648.253182392
94,0.0
145,5896648.253182392
194,4.092726157978177e-9
2,1, 1,21, 0,21, 0.00,60.00,WinterDesignDay
7,-21.2
8,20.0
9,5896648.253182394
94,0.0
145,5896648.253182395
194,4.092726157978177e-9
2,1, 1,21, 0,22, 0.00,60.00,WinterDesignDay
7,-21.2
8,20.0
9,5896648.253182389
94,0.0
145,5896648.25318239
194,4.092726157978177e-9
2,1, 1,21, 0,23, 0.00,60.00,WinterDesignDay
7,-21.2
8,20.0
9,5896648.253182392
94,0.0
145,5896648.253182392
194,4.092726157978177e-9
2,1, 1,21, 0,24, 0.00,60.00,WinterDesignDay
7,-21.2
8,20.0
9,5896648.253182394
94,0.0
145,5896648.253182395
194,4.092726157978177e-9
End of Data
 Number of Records Written=         288
