Program Version,EnergyPlus, Version 24.2.0-94a887817b, YMD=2025.02.04 15:38
1,5,Environment Title[],Latitude[deg],Longitude[deg],Time Zone[],Elevation[m]
2,8,Day of Simulation[],Month[],Day of Month[],DST Indicator[1=yes 0=no],Hour[],StartMinute[],EndMinute[],DayType
3,5,Cumulative Day of Simulation[],Month[],Day of Month[],DST Indicator[1=yes 0=no],DayType  ! When Daily Report Variables Requested
4,2,Cumulative Days of Simulation[],Month[]  ! When Monthly Report Variables Requested
5,1,Cumulative Days of Simulation[] ! When Run Period Report Variables Requested
6,1,Calendar Year of Simulation[] ! When Annual Report Variables Requested
250,1,LIVING ZONE,Zone Air Temperature [C] !TimeStep,REPORTSCH
251,1,LIVING ZONE,Zone Air System Sensible Heating Energy [J] !TimeStep,REPORTSCH
336,1,LIVING ZONE,Zone Air System Sensible Cooling Energy [J] !TimeStep,REPORTSCH
385,1,LIVING ZONE,Zone Thermostat Heating Setpoint Temperature [C] !TimeStep,REPORTSCH
386,1,LIVING ZONE,Zone Thermostat Cooling Setpoint Temperature [C] !TimeStep,REPORTSCH
387,1,GARAGE ZONE,Zone Air Temperature [C] !TimeStep,REPORTSCH
388,1,GARAGE ZONE,Zone Air System Sensible Heating Energy [J] !TimeStep,REPORTSCH
425,1,GARAGE ZONE,Zone Air System Sensible Cooling Energy [J] !TimeStep,REPORTSCH
450,1,GARAGE ZONE,Zone Thermostat Heating Setpoint Temperature [C] !TimeStep,REPORTSCH
451,1,GARAGE ZONE,Zone Thermostat Cooling Setpoint Temperature [C] !TimeStep,REPORTSCH
452,1,ATTIC ZONE,Zone Air Temperature [C] !TimeStep,REPORTSCH
453,1,ATTIC ZONE,Zone Air System Sensible Heating Energy [J] !TimeStep,REPORTSCH
490,1,ATTIC ZONE,Zone Air System Sensible Cooling Energy [J] !TimeStep,REPORTSCH
515,1,ATTIC ZONE,Zone Thermostat Heating Setpoint Temperature [C] !TimeStep,REPORTSCH
516,1,ATTIC ZONE,Zone Thermostat Cooling Setpoint Temperature [C] !TimeStep,REPORTSCH
542,1,ACDXCOIL 1,Cooling Coil Total Cooling Energy [J] !TimeStep,REPORTSCH
592,1,HEAT PUMP DX HEATING COIL 1,Heating Coil Heating Energy [J] !TimeStep,REPORTSCH
632,1,SUPP HEATING COIL 1,Heating Coil Heating Energy [J] !TimeStep,REPORTSCH
686,1,TWOSPEED HEAT PUMP 1,Unitary System DX Coil Cycling Ratio [] !TimeStep,REPORTSCH
687,1,TWOSPEED HEAT PUMP 1,Unitary System DX Coil Speed Ratio [] !TimeStep,REPORTSCH
688,1,TWOSPEED HEAT PUMP 1,Unitary System DX Coil Speed Level [] !TimeStep,REPORTSCH
End of Data Dictionary
1,RUN PERIOD 1,  41.98, -87.92,  -6.00, 201.00
2,21, 1,21, 0, 1, 0.00,10.00,Monday
250,-0.027157194926247023
251,37694933.46810377
336,0.0
385,22.309771686817008
386,26.9684187880972
387,-0.930203756724774
388,0.0
425,0.0
450,0.0
451,0.0
452,-1.9563392796543848
453,0.0
490,0.0
515,0.0
516,0.0
542,0.0
592,4839743.985079642
632,32598579.249818888
686,1.0
687,1.0
688,2.0
2,21, 1,21, 0, 1,10.00,20.00,Monday
250,-0.027157356264001613
251,37696500.37763619
336,0.0
385,22.309771686817008
386,26.9684187880972
387,-0.9386094985956974
388,0.0
425,0.0
450,0.0
451,0.0
452,-1.938269009277476
453,0.0
490,0.0
515,0.0
516,0.0
542,0.0
592,4823801.676011796
632,32613807.186202824
686,1.0
687,1.0
688,2.0
2,21, 1,21, 0, 1,20.00,30.00,Monday
250,-0.027510312181256075
251,37698352.326512665
336,0.0
385,22.309771686817008
386,26.9684187880972
387,-0.9482357633086553
388,0.0
425,0.0
450,0.0
451,0.0
452,-1.9351611561782491
453,0.0
490,0.0
515,0.0
516,0.0
542,0.0
592,4807858.162905219
632,32631412.726045758
686,1.0
687,1.0
688,2.0
2,21, 1,21, 0, 1,30.00,40.00,Monday
250,-0.027768853206982295
251,37700123.09831159
336,0.0
385,22.309771686817008
386,26.9684187880972
387,-0.9592876161842818
388,0.0
425,0.0
450,0.0
451,0.0
452,-1.9479812533942857
453,0.0
490,0.0
515,0.0
516,0.0
542,0.0
592,4791913.445623511
632,32649179.036068022
686,1.0
687,1.0
688,2.0
2,21, 1,21, 0, 1,40.00,50.00,Monday
250,-0.028038260170436174
251,37701903.86309672
336,0.0
385,22.309771686817008
386,26.9684187880972
387,-0.9719229123203329
388,0.0
425,0.0
450,0.0
451,0.0
452,-1.9751202680633793
453,0.0
490,0.0
515,0.0
516,0.0
542,0.0
592,4775967.524030239
632,32666899.86637146
686,1.0
687,1.0
688,2.0
2,21, 1,21, 0, 1,50.00,60.00,Monday
250,-0.028312992719089144
251,37703689.06874683
336,0.0
385,22.309771686817008
386,26.9684187880972
387,-0.9863307759633523
388,0.0
425,0.0
450,0.0
451,0.0
452,-2.015034928459502
453,0.0
490,0.0
515,0.0
516,0.0
542,0.0
592,4760020.397988958
632,32684629.32443505
686,1.0
687,1.0
688,2.0
2,21, 1,21, 0, 2, 0.00,10.00,Monday
250,-0.02857348139171199
251,37705466.57932387
336,0.0
385,22.309771686817008
386,26.9684187880972
387,-1.001837295242071
388,0.0
425,0.0
450,0.0
451,0.0
452,-2.0616940464923577
453,0.0
490,0.0
515,0.0
516,0.0
542,0.0
592,4760020.397988958
632,32686414.49791533
686,1.0
687,1.0
688,2.0
2,21, 1,21, 0, 2,10.00,20.00,Monday
250,-0.028869762675589637
251,37705696.03250088
336,0.0
385,22.309771686817008
386,26.9684187880972
387,-1.0175091086852057
388,0.0
425,0.0
450,0.0
451,0.0
452,-2.104344309510337
453,0.0
490,0.0
515,0.0
516,0.0
542,0.0
592,4760020.397988958
632,32686624.678990133
686,1.0
687,1.0
688,2.0
2,21, 1,21, 0, 2,20.00,30.00,Monday
250,-0.029167287245848803
251,37705831.00769143
336,0.0
385,22.309771686817008
386,26.9684187880972
387,-1.0327971608141973
388,0.0
425,0.0
450,0.0
451,0.0
452,-2.135765720577647
453,0.0
490,0.0
515,0.0
516,0.0
542,0.0
592,4760020.397988958
632,32686758.98486424
686,1.0
687,1.0
688,2.0
2,21, 1,21, 0, 2,30.00,40.00,Monday
250,-0.02945788176143412
251,37705992.742352515
336,0.0
385,22.309771686817008
386,26.9684187880972
387,-1.0473807493278948
388,0.0
425,0.0
450,0.0
451,0.0
452,-2.1551418242041884
453,0.0
490,0.0
515,0.0
516,0.0
542,0.0
592,4760020.397988958
632,32686924.450855415
686,1.0
687,1.0
688,2.0
2,21, 1,21, 0, 2,40.00,50.00,Monday
250,-0.029744053123992288
251,37706148.08880793
336,0.0
385,22.309771686817008
386,26.9684187880972
387,-1.0611186131730321
388,0.0
425,0.0
450,0.0
451,0.0
452,-2.1652928750551266
453,0.0
490,0.0
515,0.0
516,0.0
542,0.0
592,4760020.397988958
632,32687082.178865958
686,1.0
687,1.0
688,2.0
2,21, 1,21, 0, 2,50.00,60.00,Monday
250,-0.03002505515214291
251,37706299.21387145
336,0.0
385,22.309771686817008
386,26.9684187880972
387,-1.0739723492396327
388,0.0
425,0.0
450,0.0
451,0.0
452,-2.1693563304882733
453,0.0
490,0.0
515,0.0
516,0.0
542,0.0
592,4760020.397988958
632,32687236.08725734
686,1.0
687,1.0
688,2.0
2,21, 1,21, 0, 3, 0.00,10.00,Monday
250,0.049283150220412075
251,37663597.2469004
336,0.0
385,22.309771686817008
386,26.9684187880972
387,-1.0755673490425317
388,0.0
425,0.0
450,0.0
451,0.0
452,-2.1619274325712694
453,0.0
490,0.0
515,0.0
516,0.0
542,0.0
592,4762558.894114005
632,32684848.87839138
686,1.0
687,1.0
688,2.0
2,21, 1,21, 0, 3,10.00,20.00,Monday
250,0.1322353672599309
251,37620417.55999562
336,0.0
385,22.309771686817008
386,26.9684187880972
387,-1.0646205583523758
388,0.0
425,0.0
450,0.0
451,0.0
452,-2.1370365770867896
453,0.0
490,0.0
515,0.0
516,0.0
542,0.0
592,4764988.43573097
632,32641203.459067192
686,1.0
687,1.0
688,2.0
2,21, 1,21, 0, 3,20.00,30.00,Monday
250,0.21363258267047258
251,37578171.43935954
336,0.0
385,22.309771686817008
386,26.9684187880972
387,-1.0455613890174649
388,0.0
425,0.0
450,0.0
451,0.0
452,-2.0932162434331385
453,0.0
490,0.0
515,0.0
516,0.0
542,0.0
592,4767308.250738334
632,32595802.075748716
686,1.0
687,1.0
688,2.0
2,21, 1,21, 0, 3,30.00,40.00,Monday
250,0.2953626315687463
251,37535723.98033286
336,0.0
385,22.309771686817008
386,26.9684187880972
387,-1.022191022874277
388,0.0
425,0.0
450,0.0
451,0.0
452,-2.033577485705825
453,0.0
490,0.0
515,0.0
516,0.0
542,0.0
592,4769517.689516207
632,32551326.23182067
686,1.0
687,1.0
688,2.0
2,21, 1,21, 0, 3,40.00,50.00,Monday
250,0.3772300195246763
251,37493212.93064414
336,0.0
385,22.309771686817008
386,26.9684187880972
387,-0.995825169570303
388,0.0
425,0.0
450,0.0
451,0.0
452,-1.9625968255990507
453,0.0
490,0.0
515,0.0
516,0.0
542,0.0
592,4771616.115684973
632,32506792.56375181
686,1.0
687,1.0
688,2.0
2,21, 1,21, 0, 3,50.00,60.00,Monday
250,0.4591201761627607
251,37450697.598173976
336,0.0
385,22.309771686817008
386,26.9684187880972
387,-0.9662942086904012
388,0.0
425,0.0
450,0.0
451,0.0
452,-1.8838979767737007
453,0.0
490,0.0
515,0.0
516,0.0
542,0.0
592,4773602.736238394
632,32462304.737522066
686,1.0
687,1.0
688,2.0
2,21, 1,21, 0, 4, 0.00,10.00,Monday
250,0.46147007232908893
251,37451026.37570677
336,0.0
385,22.309771686817008
386,26.9684187880972
387,-0.9440703337172413
388,0.0
425,0.0
450,0.0
451,0.0
452,-1.8077608790738349
453,0.0
490,0.0
515,0.0
516,0.0
542,0.0
592,4773428.98237163
632,32419971.536863044
686,1.0
687,1.0
688,2.0
2,21, 1,21, 0, 4,10.00,20.00,Monday
250,0.4602250736136892
251,37451801.75969981
336,0.0
385,22.309771686817008
386,26.9684187880972
387,-0.9317370431216747
388,0.0
425,0.0
450,0.0
451,0.0
452,-1.7432117537623821
453,0.0
490,0.0
515,0.0
516,0.0
542,0.0
592,4773255.169447958
632,32418984.646926384
686,1.0
687,1.0
688,2.0
2,21, 1,21, 0, 4,20.00,30.00,Monday
250,0.46062189295594375
251,37451602.23898646
336,0.0
385,22.309771686817008
386,26.9684187880972
387,-0.9258355176000386
388,0.0
425,0.0
450,0.0
451,0.0
452,-1.6938678441267245
453,0.0
490,0.0
515,0.0
516,0.0
542,0.0
592,4773081.297437258
632,32419843.226711947
686,1.0
687,1.0
688,2.0
2,21, 1,21, 0, 4,30.00,40.00,Monday
250,0.4607637777126877
251,37451569.03695522
336,0.0
385,22.309771686817008
386,26.9684187880972
387,-0.922634670830429
388,0.0
425,0.0
450,0.0
451,0.0
452,-1.6580956206653215
453,0.0
490,0.0
515,0.0
516,0.0
542,0.0
592,4772907.3663094025
632,32419846.65658584
686,1.0
687,1.0
688,2.0
2,21, 1,21, 0, 4,40.00,50.00,Monday
250,0.4608369410711287
251,37451569.06136184
336,0.0
385,22.309771686817008
386,26.9684187880972
387,-0.9204849705110264
388,0.0
425,0.0
450,0.0
451,0.0
452,-1.6323707956758013
453,0.0
490,0.0
515,0.0
516,0.0
542,0.0
592,4772733.376034233
632,32419983.660200957
686,1.0
687,1.0
688,2.0
2,21, 1,21, 0, 4,50.00,60.00,Monday
250,0.4609201158482694
251,37451562.33847796
336,0.0
385,22.309771686817008
386,26.9684187880972
387,-0.9191395821884374
388,0.0
425,0.0
450,0.0
451,0.0
452,-1.6134771897926665
453,0.0
490,0.0
515,0.0
516,0.0
542,0.0
592,4772559.326581573
632,32420156.378645174
686,1.0
687,1.0
688,2.0
2,21, 1,21, 0, 5, 0.00,10.00,Monday
250,0.4610000157326894
251,37451557.54608631
336,0.0
385,22.309771686817008
386,26.9684187880972
387,-0.9185774012127603
388,0.0
425,0.0
450,0.0
451,0.0
452,-1.5986940810180619
453,0.0
490,0.0
515,0.0
516,0.0
542,0.0
592,4759720.858689582
632,32432988.290435184
686,1.0
687,1.0
688,2.0
2,21, 1,21, 0, 5,10.00,20.00,Monday
250,0.46111215128781613
251,37452755.29811694
336,0.0
385,22.309771686817008
386,26.9684187880972
387,-0.9186637472113568
388,0.0
425,0.0
450,0.0
451,0.0
452,-1.5857508628257122
453,0.0
490,0.0
515,0.0
516,0.0
542,0.0
592,4746877.262331866
632,32447047.001988944
686,1.0
687,1.0
688,2.0
2,21, 1,21, 0, 5,20.00,30.00,Monday
250,0.4612282606682932
251,37454025.5290202
336,0.0
385,22.309771686817008
386,26.9684187880972
387,-0.9191999442480564
388,0.0
425,0.0
450,0.0
451,0.0
452,-1.5733063753089471
453,0.0
490,0.0
515,0.0
516,0.0
542,0.0
592,4734028.534436013
632,32461168.103264883
686,1.0
687,1.0
688,2.0
2,21, 1,21, 0, 5,30.00,40.00,Monday
250,0.4613439026508221
251,37455272.81609663
336,0.0
385,22.309771686817008
386,26.9684187880972
387,-0.9200029119861837
388,0.0
425,0.0
450,0.0
451,0.0
452,-1.560951150341187
453,0.0
490,0.0
515,0.0
516,0.0
542,0.0
592,4721174.671927155
632,32475269.003284458
686,1.0
687,1.0
688,2.0
2,21, 1,21, 0, 5,40.00,50.00,Monday
250,0.4614607143322279
251,37456523.10674848
336,0.0
385,22.309771686817008
386,26.9684187880972
387,-0.920940859715843
388,0.0
425,0.0
450,0.0
451,0.0
452,-1.548749718060045
453,0.0
490,0.0
515,0.0
516,0.0
542,0.0
592,4708315.671727969
632,32489378.926370732
686,1.0
687,1.0
688,2.0
2,21, 1,21, 0, 5,50.00,60.00,Monday
250,0.461578922029943
251,37457774.284063615
336,0.0
385,22.309771686817008
386,26.9684187880972
387,-0.9219313246948199
388,0.0
425,0.0
450,0.0
451,0.0
452,-1.5368426700978197
453,0.0
490,0.0
515,0.0
516,0.0
542,0.0
592,4695451.530758676
632,32503494.998846192
686,1.0
687,1.0
688,2.0
2,21, 1,21, 0, 6, 0.00,10.00,Monday
250,0.46170347353783286
251,37459022.437945805
336,0.0
385,22.309771686817008
386,26.9684187880972
387,-0.9230563050755268
388,0.0
425,0.0
450,0.0
451,0.0
452,-1.5259125434852385
453,0.0
490,0.0
515,0.0
516,0.0
542,0.0
592,4695264.082255858
632,32504934.020762768
686,1.0
687,1.0
688,2.0
2,21, 1,21, 0, 6,10.00,20.00,Monday
250,0.46179640104286923
251,37459066.608174145
336,0.0
385,22.309771686817008
386,26.9684187880972
387,-0.9243969499845368
388,0.0
425,0.0
450,0.0
451,0.0
452,-1.5167708226702634
453,0.0
490,0.0
515,0.0
516,0.0
542,0.0
592,4695076.569900009
632,32505148.668194596
686,1.0
687,1.0
688,2.0
2,21, 1,21, 0, 6,20.00,30.00,Monday
250,0.4618870541032907
251,37459037.795832895
336,0.0
385,22.309771686817008
386,26.9684187880972
387,-0.9259474791748185
388,0.0
425,0.0
450,0.0
451,0.0
452,-1.5097590095963787
453,0.0
490,0.0
515,0.0
516,0.0
542,0.0
592,4694888.993658494
632,32505306.20691571
686,1.0
687,1.0
688,2.0
2,21, 1,21, 0, 6,30.00,40.00,Monday
250,0.46198069274946557
251,37459031.13165806
336,0.0
385,22.309771686817008
386,26.9684187880972
387,-0.9276662253289762
388,0.0
425,0.0
450,0.0
451,0.0
452,-1.5046684960079868
453,0.0
490,0.0
515,0.0
516,0.0
542,0.0
592,4694701.353498662
632,32505488.79124561
686,1.0
687,1.0
688,2.0
2,21, 1,21, 0, 6,40.00,50.00,Monday
250,0.4620760987937903
251,37459020.41109715
336,0.0
385,22.309771686817008
386,26.9684187880972
387,-0.9295212544419517
388,0.0
425,0.0
450,0.0
451,0.0
452,-1.5010448550735231
453,0.0
490,0.0
515,0.0
516,0.0
542,0.0
592,4694513.649387832
632,32505666.726920746
686,1.0
687,1.0
688,2.0
2,21, 1,21, 0, 6,50.00,60.00,Monday
250,0.4621733918140367
251,37459007.566891454
336,0.0
385,22.309771686817008
386,26.9684187880972
387,-0.9314951023911756
388,0.0
425,0.0
450,0.0
451,0.0
452,-1.4984658559247632
453,0.0
490,0.0
515,0.0
516,0.0
542,0.0
592,4694325.88129331
632,32505842.667350125
686,1.0
687,1.0
688,2.0
2,21, 1,21, 0, 7, 0.00,10.00,Monday
250,0.45979571786439327
251,37460328.0919989
336,0.0
385,22.309771686817008
386,26.9684187880972
387,-0.9360187902713629
388,0.0
425,0.0
450,0.0
451,0.0
452,-1.5017917458382741
453,0.0
490,0.0
515,0.0
516,0.0
542,0.0
592,4723573.583255435
632,32476582.26072134
686,1.0
687,1.0
688,2.0
2,21, 1,21, 0, 7,10.00,20.00,Monday
250,0.4598118763645118
251,37457543.57574559
336,0.0
385,22.309771686817008
386,26.9684187880972
387,-0.9452690528249408
388,0.0
425,0.0
450,0.0
451,0.0
452,-1.5204809780489874
453,0.0
490,0.0
515,0.0
516,0.0
542,0.0
592,4752837.186047653
632,32445823.664837822
686,1.0
687,1.0
688,2.0
2,21, 1,21, 0, 7,20.00,30.00,Monday
250,0.46000711313249604
251,37454490.12753514
336,0.0
385,22.309771686817008
386,26.9684187880972
387,-0.9594794551882898
388,0.0
425,0.0
450,0.0
451,0.0
452,-1.5599204807081617
453,0.0
490,0.0
515,0.0
516,0.0
542,0.0
592,4782116.702651945
632,32413587.151536774
686,1.0
687,1.0
688,2.0
2,21, 1,21, 0, 7,30.00,40.00,Monday
250,0.4601502941421436
251,37451517.88104114
336,0.0
385,22.309771686817008
386,26.9684187880972
387,-0.9776802902088124
388,0.0
425,0.0
450,0.0
451,0.0
452,-1.6177717186812453
453,0.0
490,0.0
515,0.0
516,0.0
542,0.0
592,4811412.146064443
632,32381291.418250725
686,1.0
687,1.0
688,2.0
2,21, 1,21, 0, 7,40.00,50.00,Monday
250,0.4603060901806934
251,37448530.092522085
336,0.0
385,22.309771686817008
386,26.9684187880972
387,-0.9987791072157066
388,0.0
425,0.0
450,0.0
451,0.0
452,-1.687779063639255
453,0.0
490,0.0
515,0.0
516,0.0
542,0.0
592,4840723.5292954575
632,32348999.03396953
686,1.0
687,1.0
688,2.0
2,21, 1,21, 0, 7,50.00,60.00,Monday
250,0.4604614392442784
251,37445538.40035357
336,0.0
385,22.309771686817008
386,26.9684187880972
387,-1.0220247450969993
388,0.0
425,0.0
450,0.0
451,0.0
452,-1.7642295179632344
453,0.0
490,0.0
515,0.0
516,0.0
542,0.0
592,4870050.865369482
632,32316679.758525494
686,1.0
687,1.0
688,2.0
2,21, 1,21, 0, 8, 0.00,10.00,Monday
250,0.661611782203306
251,37334322.38429112
336,0.0
385,22.309771686817008
386,26.9684187880972
387,-1.0181445391264905
388,0.0
425,0.0
450,0.0
451,0.0
452,-1.8232450914625553
453,0.0
490,0.0
515,0.0
516,0.0
542,0.0
592,4889730.300311495
632,32294007.35166647
686,1.0
687,1.0
688,2.0
2,21, 1,21, 0, 8,10.00,20.00,Monday
250,0.8628649137224196
251,37228083.039861135
336,0.0
385,22.309771686817008
386,26.9684187880972
387,-0.9762827413357459
388,0.0
425,0.0
450,0.0
451,0.0
452,-1.8146364026144248
453,0.0
490,0.0
515,0.0
516,0.0
542,0.0
592,4909380.719869504
632,32168179.111811113
686,1.0
687,1.0
688,2.0
2,21, 1,21, 0, 8,20.00,30.00,Monday
250,1.059161573087764
251,37124816.538713574
336,0.0
385,22.309771686817008
386,26.9684187880972
387,-0.9048939000275777
388,0.0
425,0.0
450,0.0
451,0.0
452,-1.7075738074864548
453,0.0
490,0.0
515,0.0
516,0.0
542,0.0
592,4929009.6156952735
632,32042621.743926656
686,1.0
687,1.0
688,2.0
2,21, 1,21, 0, 8,30.00,40.00,Monday
250,1.2564861389782793
251,37020898.20370813
336,0.0
385,22.309771686817008
386,26.9684187880972
387,-0.8139935411812412
388,0.0
425,0.0
450,0.0
451,0.0
452,-1.5127940649645473
453,0.0
490,0.0
515,0.0
516,0.0
542,0.0
592,4952863.646772657
632,31915409.629109014
686,1.0
687,1.0
688,2.0
2,21, 1,21, 0, 8,40.00,50.00,Monday
250,1.454269565401533
251,36916349.65976209
336,0.0
385,22.309771686817008
386,26.9684187880972
387,-0.7117937724032464
388,0.0
425,0.0
450,0.0
451,0.0
452,-1.2363286683978119
453,0.0
490,0.0
515,0.0
516,0.0
542,0.0
592,4977062.298687914
632,31786915.21649686
686,1.0
687,1.0
688,2.0
2,21, 1,21, 0, 8,50.00,60.00,Monday
250,1.6538187793991916
251,36811742.209622845
336,0.0
385,22.309771686817008
386,26.9684187880972
387,-0.615604104385659
388,0.0
425,0.0
450,0.0
451,0.0
452,-0.92246198998269
453,0.0
490,0.0
515,0.0
516,0.0
542,0.0
592,5001395.306277512
632,31607056.073014237
686,1.0
687,1.0
688,2.0
2,21, 1,21, 0, 9, 0.00,10.00,Monday
250,1.9173297330518482
251,36673688.69868818
336,0.0
385,22.309771686817008
386,26.9684187880972
387,-0.4768984768228425
388,0.0
425,0.0
450,0.0
451,0.0
452,-0.4423715427534224
453,0.0
490,0.0
515,0.0
516,0.0
542,0.0
592,5029363.153609448
632,31458064.872893084
686,1.0
687,1.0
688,2.0
2,21, 1,21, 0, 9,10.00,20.00,Monday
250,2.1806415638670726
251,36534853.76152013
336,0.0
385,22.309771686817008
386,26.9684187880972
387,-0.32577886005023027
388,0.0
425,0.0
450,0.0
451,0.0
452,0.08194634392105976
453,0.0
490,0.0
515,0.0
516,0.0
542,0.0
592,5057356.862312016
632,31291113.426120713
686,1.0
687,1.0
688,2.0
2,21, 1,21, 0, 9,20.00,30.00,Monday
250,2.4442140074503325
251,36395866.83989714
336,0.0
385,22.309771686817008
386,26.9684187880972
387,-0.16585763734343806
388,0.0
425,0.0
450,0.0
451,0.0
452,0.6466320535505696
453,0.0
490,0.0
515,0.0
516,0.0
542,0.0
592,5085392.284952975
632,31124164.03833075
686,1.0
687,1.0
688,2.0
2,21, 1,21, 0, 9,30.00,40.00,Monday
250,2.7075936725675183
251,36256983.13629674
336,0.0
385,22.309771686817008
386,26.9684187880972
387,0.0037792318762094636
388,0.0
425,0.0
450,0.0
451,0.0
452,1.2412848511399521
453,0.0
490,0.0
515,0.0
516,0.0
542,0.0
592,5113485.892141593
632,30957134.88143821
686,1.0
687,1.0
688,2.0
2,21, 1,21, 0, 9,40.00,50.00,Monday
250,2.9718213240405316
251,36116715.39423139
336,0.0
385,22.309771686817026
386,26.968418788097225
387,0.1487843038031862
388,0.0
425,0.0
450,0.0
451,0.0
452,1.7434333433831508
453,0.0
490,0.0
515,0.0
516,0.0
542,0.0
592,5141654.529350725
632,30763956.382273912
686,1.0000000000000009
687,1.0000000000000009
688,2.0000000000000018
2,21, 1,21, 0, 9,50.00,60.00,Monday
250,3.2358625805251453
251,35976919.731775485
336,0.0
385,22.309771686817008
386,26.9684187880972
387,0.3008746668619074
388,0.0
425,0.0
450,0.0
451,0.0
452,2.2843286542010413
453,0.0
490,0.0
515,0.0
516,0.0
542,0.0
592,5169915.672059795
632,30621711.940659467
686,1.0
687,1.0
688,2.0
2,21, 1,21, 0,10, 0.00,10.00,Monday
250,3.6914191778870817
251,35735253.85031864
336,0.0
385,22.309771686817008
386,26.968418788097196
387,0.4912560560828104
388,0.0
425,0.0
450,0.0
451,0.0
452,2.8441038885242627
453,0.0
490,0.0
515,0.0
516,0.0
542,0.0
592,5241404.10703412
632,30317488.23127032
686,1.0
687,1.0
688,2.0
2,21, 1,21, 0,10,10.00,20.00,Monday
250,4.149145328971101
251,35492988.70770385
336,0.0
385,22.309771686817008
386,26.968418788097196
387,0.7823258795401054
388,0.0
425,0.0
450,0.0
451,0.0
452,3.599077200294885
453,0.0
490,0.0
515,0.0
516,0.0
542,0.0
592,5315291.857316207
632,30000922.04348561
686,1.0
687,1.0
688,2.0
2,21, 1,21, 0,10,20.00,30.00,Monday
250,4.608034615735485
251,35248863.11940479
336,0.0
385,22.309771686817
386,26.96841878809719
387,1.0628109383699522
388,0.0
425,0.0
450,0.0
451,0.0
452,4.288576241377724
453,0.0
490,0.0
515,0.0
516,0.0
542,0.0
592,5391793.298050373
632,29680548.252878375
686,0.9999999999999996
687,0.9999999999999996
688,1.9999999999999991
2,21, 1,21, 0,10,30.00,40.00,Monday
250,5.067491263740065
251,35004300.64032102
336,0.0
385,22.30977168681702
386,26.96841878809721
387,1.3446558791086662
388,0.0
425,0.0
450,0.0
451,0.0
452,4.989729605872418
453,0.0
490,0.0
515,0.0
516,0.0
542,0.0
592,5471132.199313744
632,29356792.44399991
686,1.0000000000000004
687,1.0000000000000004
688,2.000000000000001
2,21, 1,21, 0,10,40.00,50.00,Monday
250,5.527704744871501
251,34759191.1220696
336,0.0
385,22.309771686817026
386,26.968418788097225
387,1.6348574631778425
388,0.0
425,0.0
450,0.0
451,0.0
452,5.753691917286745
453,0.0
490,0.0
515,0.0
516,0.0
542,0.0
592,5553542.375759331
632,29029455.699045047
686,1.0000000000000009
687,1.0000000000000009
688,2.0000000000000018
2,21, 1,21, 0,10,50.00,60.00,Monday
250,5.987970463562183
251,34513907.75998302
336,0.0
385,22.309771686817026
386,26.968418788097225
387,1.9351367398970472
388,0.0
425,0.0
450,0.0
451,0.0
452,6.582948100105792
453,0.0
490,0.0
515,0.0
516,0.0
542,0.0
592,5639267.778995938
632,28698504.49826218
686,1.0000000000000009
687,1.0000000000000009
688,2.0000000000000018
2,21, 1,21, 0,11, 0.00,10.00,Monday
250,6.271675737314078
251,34362938.3165234
336,0.0
385,22.309771686817008
386,26.968418788097196
387,2.221693442917213
388,0.0
425,0.0
450,0.0
451,0.0
452,7.438235243065988
453,0.0
490,0.0
515,0.0
516,0.0
542,0.0
592,5689519.861596226
632,28465507.610349968
686,1.0
687,1.0
688,2.0
2,21, 1,21, 0,11,10.00,20.00,Monday
250,6.553459989672273
251,34212923.63860782
336,0.0
385,22.309771686817008
386,26.968418788097196
387,2.4914884003535303
388,0.0
425,0.0
450,0.0
451,0.0
452,8.288849190575773
453,0.0
490,0.0
515,0.0
516,0.0
542,0.0
592,5740969.350869596
632,28263677.645147618
686,1.0
687,1.0
688,2.0
2,21, 1,21, 0,11,20.00,30.00,Monday
250,6.835296859111015
251,34062834.809767805
336,0.0
385,22.309771686817
386,26.96841878809719
387,2.763656594379468
388,0.0
425,0.0
450,0.0
451,0.0
452,9.135554857865808
453,0.0
490,0.0
515,0.0
516,0.0
542,0.0
592,5793671.095282218
632,28060912.48139612
686,0.9999999999999996
687,0.9999999999999996
688,1.9999999999999991
2,21, 1,21, 0,11,30.00,40.00,Monday
250,7.116295675068502
251,33913144.61690798
336,0.0
385,22.30977168681702
386,26.96841878809721
387,3.0409913532302726
388,0.0
425,0.0
450,0.0
451,0.0
452,9.957861437914135
453,0.0
490,0.0
515,0.0
516,0.0
542,0.0
592,5847681.427966583
632,27857077.50739467
686,1.0000000000000004
687,1.0000000000000004
688,2.000000000000001
2,21, 1,21, 0,11,40.00,50.00,Monday
250,7.396907268748416
251,33763609.845588975
336,0.0
385,22.309771686817026
386,26.968418788097225
387,3.320091715569239
388,0.0
425,0.0
450,0.0
451,0.0
452,10.703264876146868
453,0.0
490,0.0
515,0.0
516,0.0
542,0.0
592,5903058.082199926
632,27652113.472081408
686,1.0000000000000009
687,1.0000000000000009
688,2.0000000000000018
2,21, 1,21, 0,11,50.00,60.00,Monday
250,7.677005206247422
251,33614297.2691254
336,0.0
385,22.309771686817026
386,26.968418788097225
387,3.5971055365077325
388,0.0
425,0.0
450,0.0
451,0.0
452,11.338720107203736
453,0.0
490,0.0
515,0.0
516,0.0
542,0.0
592,5959860.237244541
632,27445923.65572236
686,1.0000000000000009
687,1.0000000000000009
688,2.0000000000000018
2,21, 1,21, 0,12, 0.00,10.00,Monday
250,7.943327000142395
251,33472295.088723347
336,0.0
385,22.309771686817008
386,26.9684187880972
387,3.8370631769341204
388,0.0
425,0.0
450,0.0
451,0.0
452,11.837964558144304
453,0.0
490,0.0
515,0.0
516,0.0
542,0.0
592,5991096.197635707
632,27296579.881526243
686,1.0
687,1.0
688,2.0
2,21, 1,21, 0,12,10.00,20.00,Monday
250,8.205349945001107
251,33336068.67173843
336,0.0
385,22.309771686817008
386,26.9684187880972
387,4.129432035878882
388,0.0
425,0.0
450,0.0
451,0.0
452,12.401952911316842
453,0.0
490,0.0
515,0.0
516,0.0
542,0.0
592,7572016.881221028
632,25577258.68271298
686,1.0
687,1.0
688,2.0
2,21, 1,21, 0,12,20.00,30.00,Monday
250,8.46968967199985
251,33196922.772804037
336,0.0
385,22.309771686817008
386,26.9684187880972
387,4.398541149185467
388,0.0
425,0.0
450,0.0
451,0.0
452,12.91765145273785
453,0.0
490,0.0
515,0.0
516,0.0
542,0.0
592,7609409.155487607
632,25401288.304284055
686,1.0
687,1.0
688,2.0
2,21, 1,21, 0,12,30.00,40.00,Monday
250,8.733611498536202
251,33058005.747540686
336,0.0
385,22.309771686817008
386,26.9684187880972
387,4.657339147641656
388,0.0
425,0.0
450,0.0
451,0.0
452,13.408918100778653
453,0.0
490,0.0
515,0.0
516,0.0
542,0.0
592,7646583.592010483
632,25225084.85123013
686,1.0
687,1.0
688,2.0
2,21, 1,21, 0,12,40.00,50.00,Monday
250,8.997424275352849
251,32919146.995440155
336,0.0
385,22.309771686817008
386,26.9684187880972
387,4.911751050500068
388,0.0
425,0.0
450,0.0
451,0.0
452,13.850590880304225
453,0.0
490,0.0
515,0.0
516,0.0
542,0.0
592,7683540.190789656
632,25049239.317199513
686,1.0
687,1.0
688,2.0
2,21, 1,21, 0,12,50.00,60.00,Monday
250,9.261198710542779
251,32780308.13322609
336,0.0
385,22.309771686817008
386,26.9684187880972
387,5.160684923373218
388,0.0
425,0.0
450,0.0
451,0.0
452,14.218471886813607
453,0.0
490,0.0
515,0.0
516,0.0
542,0.0
592,7720278.951825123
632,24873651.795260835
686,1.0
687,1.0
688,2.0
2,21, 1,21, 0,13, 0.00,10.00,Monday
250,9.443241690580612
251,32682332.991926786
336,0.0
385,22.309771686817008
386,26.9684187880972
387,5.393053925193634
388,0.0
425,0.0
450,0.0
451,0.0
452,14.509759003735695
453,0.0
490,0.0
515,0.0
516,0.0
542,0.0
592,7745410.487127082
632,24770112.337520424
686,1.0
687,1.0
688,2.0
2,21, 1,21, 0,13,10.00,20.00,Monday
250,9.623970732205557
251,32588652.5670085
336,0.0
385,22.309771686817008
386,26.9684187880972
387,5.611810810260211
388,0.0
425,0.0
450,0.0
451,0.0
452,14.738967460745597
453,0.0
490,0.0
515,0.0
516,0.0
542,0.0
592,7770439.060057994
632,24656872.64633975
686,1.0
687,1.0
688,2.0
2,21, 1,21, 0,13,20.00,30.00,Monday
250,9.806450303206695
251,32494289.660287622
336,0.0
385,22.309771686817008
386,26.9684187880972
387,5.816678714617282
388,0.0
425,0.0
450,0.0
451,0.0
452,14.922101386631027
453,0.0
490,0.0
515,0.0
516,0.0
542,0.0
592,7795364.6706178645
632,24538541.52527496
686,1.0
687,1.0
688,2.0
2,21, 1,21, 0,13,30.00,40.00,Monday
250,9.988518453154043
251,32400175.567330223
336,0.0
385,22.309771686817008
386,26.9684187880972
387,6.011677447246215
388,0.0
425,0.0
450,0.0
451,0.0
452,15.071001615802585
453,0.0
490,0.0
515,0.0
516,0.0
542,0.0
592,7820187.318806681
632,24419395.343358975
686,1.0
687,1.0
688,2.0
2,21, 1,21, 0,13,40.00,50.00,Monday
250,10.170466089702703
251,32306159.812038656
336,0.0
385,22.309771686817008
386,26.9684187880972
387,6.200555729671984
388,0.0
425,0.0
450,0.0
451,0.0
452,15.190268657838175
453,0.0
490,0.0
515,0.0
516,0.0
542,0.0
592,7844907.00462445
632,24300607.663571935
686,1.0
687,1.0
688,2.0
2,21, 1,21, 0,13,50.00,60.00,Monday
250,10.352360803360746
251,32212205.6648803
336,0.0
385,22.309771686817008
386,26.9684187880972
387,6.384614405377858
388,0.0
425,0.0
450,0.0
451,0.0
452,15.28356749878053
453,0.0
490,0.0
515,0.0
516,0.0
542,0.0
592,7869523.728071173
632,24182021.21786212
686,1.0
687,1.0
688,2.0
2,21, 1,21, 0,14, 0.00,10.00,Monday
250,10.55195460833225
251,32108724.7407341
336,0.0
385,22.309771686817008
386,26.9684187880972
387,6.566687515556743
388,0.0
425,0.0
450,0.0
451,0.0
452,15.339517103824571
453,0.0
490,0.0
515,0.0
516,0.0
542,0.0
592,7896260.907308879
632,24061375.82381505
686,1.0
687,1.0
688,2.0
2,21, 1,21, 0,14,10.00,20.00,Monday
250,10.750309453338103
251,32005539.53986141
336,0.0
385,22.309771686817008
386,26.9684187880972
387,6.746905263681801
388,0.0
425,0.0
450,0.0
451,0.0
452,15.339813413602117
453,0.0
490,0.0
515,0.0
516,0.0
542,0.0
592,7922875.552815757
632,23930920.018253077
686,1.0
687,1.0
688,2.0
2,21, 1,21, 0,14,20.00,30.00,Monday
250,10.94819434179303
251,31902598.86145243
336,0.0
385,22.309771686817008
386,26.9684187880972
387,6.92311385863734
388,0.0
425,0.0
450,0.0
451,0.0
452,15.28401459512359
453,0.0
490,0.0
515,0.0
516,0.0
542,0.0
592,7949367.664591796
632,23801246.612995375
686,1.0
687,1.0
688,2.0
2,21, 1,21, 0,14,30.00,40.00,Monday
250,11.145831854897262
251,31799821.109256167
336,0.0
385,22.309771686817008
386,26.9684187880972
387,7.0893678394465
388,0.0
425,0.0
450,0.0
451,0.0
452,15.161617912718157
453,0.0
490,0.0
515,0.0
516,0.0
542,0.0
592,7975737.242637003
632,23671979.05587398
686,1.0
687,1.0
688,2.0
2,21, 1,21, 0,14,40.00,50.00,Monday
250,11.343257521976131
251,31697179.095711954
336,0.0
385,22.309771686817008
386,26.9684187880972
387,7.2419748888412165
388,0.0
425,0.0
450,0.0
451,0.0
452,14.952914517508255
453,0.0
490,0.0
515,0.0
516,0.0
542,0.0
592,8001984.286951372
632,23542989.09888268
686,1.0
687,1.0
688,2.0
2,21, 1,21, 0,14,50.00,60.00,Monday
250,11.540483630541463
251,31594666.739048205
336,0.0
385,22.309771686817008
386,26.9684187880972
387,7.381223958558366
388,0.0
425,0.0
450,0.0
451,0.0
452,14.66095817322571
453,0.0
490,0.0
515,0.0
516,0.0
542,0.0
592,8028108.797534912
632,23414258.109303694
686,1.0
687,1.0
688,2.0
2,21, 1,21, 0,15, 0.00,10.00,Monday
250,11.802919340452139
251,31457678.999833442
336,0.0
385,22.309771686817008
386,26.9684187880972
387,7.502122335655988
388,0.0
425,0.0
450,0.0
451,0.0
452,14.365421077037915
453,0.0
490,0.0
515,0.0