Program Version,EnergyPlus, Version 24.2.0-94a887817b, YMD=2025.02.04 15:41
1,5,Environment Title[],Latitude[deg],Longitude[deg],Time Zone[],Elevation[m]
2,8,Day of Simulation[],Month[],Day of Month[],DST Indicator[1=yes 0=no],Hour[],StartMinute[],EndMinute[],DayType
3,5,Cumulative Day of Simulation[],Month[],Day of Month[],DST Indicator[1=yes 0=no],DayType  ! When Daily Meters Requested
4,2,Cumulative Days of Simulation[],Month[]  ! When Monthly Meters Requested
5,1,Cumulative Days of Simulation[] ! When Run Period Meters Requested
6,1,Calendar Year of Simulation[] ! When Annual Meters Requested
11,9,Electricity:Facility [J] !Monthly [Value,Min,Day,Hour,Minute,Max,Day,Hour,Minute]
23,9,Electricity:Building [J] !Monthly [Value,Min,Day,Hour,Minute,Max,Day,Hour,Minute]
59,9,InteriorLights:Electricity [J] !Monthly [Value,Min,Day,Hour,Minute,Max,Day,Hour,Minute]
521,9,Electricity:HVAC [J] !Monthly [Value,Min,Day,Hour,Minute,Max,Day,Hour,Minute]
637,9,NaturalGas:Facility [J] !Monthly [Value,Min,Day,Hour,Minute,Max,Day,Hour,Minute]
649,9,NaturalGas:HVAC [J] !Monthly [Value,Min,Day,Hour,Minute,Max,Day,Hour,Minute]
13,11,Electricity:Facility [J] !RunPeriod [Value,Min,Month,Day,Hour,Minute,Max,Month,Day,Hour,Minute]
25,11,Electricity:Building [J] !RunPeriod [Value,Min,Month,Day,Hour,Minute,Max,Month,Day,Hour,Minute]
61,11,InteriorLights:Electricity [J] !RunPeriod [Value,Min,Month,Day,Hour,Minute,Max,Month,Day,Hour,Minute]
523,11,Electricity:HVAC [J] !RunPeriod [Value,Min,Month,Day,Hour,Minute,Max,Month,Day,Hour,Minute]
639,11,NaturalGas:Facility [J] !RunPeriod [Value,Min,Month,Day,Hour,Minute,Max,Month,Day,Hour,Minute]
651,11,NaturalGas:HVAC [J] !RunPeriod [Value,Min,Month,Day,Hour,Minute,Max,Month,Day,Hour,Minute]
End of Data Dictionary
1,RUN PERIOD 1,  41.98, -87.92,  -6.00, 201.00
4,31, 1
11,9820841012.708563,408891.4285714286, 5, 6,50,2977872.4509970616,16,13,60
23,981790911.477558,30000.0, 1, 1,10,608399.2112156367, 1, 9,10
59,970200000.0,30000.0, 1, 1,10,600000.0, 1, 8,10
521,8839050101.230986,378891.4285714286, 5, 6,50,2369473.239781425,16,13,60
637,179026387895.84378,28258216.42905696,21,16,10,41250000.0, 1, 1,10
649,179026387895.84378,28258216.42905696,21,16,10,41250000.0, 1, 1,10
4,59, 2
11,9354615174.522596,99999999999999.0, 5, 6,50,3019333.891260184,22,15,30
23,858239053.458747,99999999999999.0, 1, 1,10,-99999999999999.0, 1, 9,10
59,848160000.0,99999999999999.0, 1, 1,10,-99999999999999.0, 1, 8,10
521,8496376121.063895,99999999999999.0, 5, 6,50,2410934.680044547,22,15,30
637,158414065351.63324,26569467.18576964,23,12,10,-99999999999999.0, 1, 1,10
649,158414065351.63324,26569467.18576964,23,12,10,-99999999999999.0, 1, 1,10
4,90, 3
11,10867793240.322872,30000.0,26,19,10,3047492.4088440896,26,15,40
23,908063006.131684,99999999999999.0, 1, 1,10,-99999999999999.0, 1, 9,10
59,897480000.0,99999999999999.0, 1, 1,10,-99999999999999.0, 1, 8,10
521,9959730234.19112,0.0,26,15,50,2439093.197628453,26,15,40
637,161549088684.0776,0.0,26,15,50,-99999999999999.0, 1, 1,10
649,161549088684.0776,0.0,26,15,50,-99999999999999.0, 1, 1,10
4,120, 4
11,9050967023.253048,99999999999999.0,26,19,10,-99999999999999.0,26,15,40
23,940606958.8046211,99999999999999.0, 1, 1,10,-99999999999999.0, 1, 9,10
59,929520000.0,99999999999999.0, 1, 1,10,-99999999999999.0, 1, 8,10
521,8110360064.448377,99999999999999.0,26,15,50,-99999999999999.0,26,15,40
637,116531640644.35289,99999999999999.0,26,15,50,-99999999999999.0, 1, 1,10
649,116531640644.35289,99999999999999.0,26,15,50,-99999999999999.0, 1, 1,10
4,151, 5
11,7696753455.794234,99999999999999.0,26,19,10,-99999999999999.0,26,15,40
23,982052430.4171579,99999999999999.0, 1, 1,10,624312.5713352158,28,13,10
59,970200000.0,99999999999999.0, 1, 1,10,-99999999999999.0, 1, 8,10
521,6714701025.376874,99999999999999.0,26,15,50,2446997.942391297,11,14,30
637,82048034054.53018,99999999999999.0,26,15,50,-99999999999999.0, 1, 1,10
649,82048034054.53018,99999999999999.0,26,15,50,-99999999999999.0, 1, 1,10
4,181, 6
11,4773750400.841973,99999999999999.0,26,19,10,-99999999999999.0,26,15,40
23,866965386.8533045,99999999999999.0, 1, 1,10,-99999999999999.0,28,13,10
59,856800000.0,99999999999999.0, 1, 1,10,-99999999999999.0, 1, 8,10
521,3906785013.9886584,99999999999999.0,26,15,50,-99999999999999.0,11,14,30
637,27375365117.241756,99999999999999.0,26,15,50,-99999999999999.0, 1, 1,10
649,27375365117.241756,99999999999999.0,26,15,50,-99999999999999.0, 1, 1,10
4,212, 7
11,4572064368.731884,99999999999999.0,26,19,10,-99999999999999.0,26,15,40
23,982063295.017188,99999999999999.0, 1, 1,10,-99999999999999.0,28,13,10
59,970200000.0,99999999999999.0, 1, 1,10,-99999999999999.0, 1, 8,10
521,3590001073.714655,99999999999999.0,26,15,50,-99999999999999.0,11,14,30
637,5441403005.671274,99999999999999.0,26,15,50,-99999999999999.0, 1, 1,10
649,5441403005.671274,99999999999999.0,26,15,50,-99999999999999.0, 1, 1,10
4,243, 8
11,3159647490.6416388,99999999999999.0,26,19,10,-99999999999999.0,26,15,40
23,945205341.1743053,99999999999999.0, 1, 1,10,624414.8317563278,12,14,10
59,933840000.0,99999999999999.0, 1, 1,10,-99999999999999.0, 1, 8,10
521,2214442149.4673285,99999999999999.0,26,15,50,-99999999999999.0,11,14,30
637,10518039215.526789,99999999999999.0,26,15,50,-99999999999999.0, 1, 1,10
649,10518039215.526789,99999999999999.0,26,15,50,-99999999999999.0, 1, 1,10
4,273, 9
11,4810243120.764558,99999999999999.0,26,19,10,3055118.4679119578,30,13,20
23,903743006.1316841,99999999999999.0, 1, 1,10,-99999999999999.0,12,14,10
59,893160000.0,99999999999999.0, 1, 1,10,-99999999999999.0, 1, 8,10
521,3906500114.6328406,99999999999999.0,26,15,50,-99999999999999.0,11,14,30
637,43449409184.4385,99999999999999.0,26,15,50,-99999999999999.0, 1, 1,10
649,43449409184.4385,99999999999999.0,26,15,50,-99999999999999.0, 1, 1,10
4,304,10
11,9963313859.899658,99999999999999.0,26,19,10,3056654.848514392, 9,11,60
23,981790911.477558,99999999999999.0, 1, 1,10,-99999999999999.0,12,14,10
59,970200000.0,99999999999999.0, 1, 1,10,-99999999999999.0, 1, 8,10
521,8981522948.422018,99999999999999.0,26,15,50,2448255.6372987553, 9,11,60
637,122813290508.3312,99999999999999.0,26,15,50,-99999999999999.0, 1, 1,10
649,122813290508.3312,99999999999999.0,26,15,50,-99999999999999.0, 1, 1,10
4,334,11
11,10126121237.783527,99999999999999.0,26,19,10,-99999999999999.0, 9,11,60
23,903743006.131684,99999999999999.0, 1, 1,10,-99999999999999.0,12,14,10
59,893160000.0,99999999999999.0, 1, 1,10,-99999999999999.0, 1, 8,10
521,9222378231.651855,99999999999999.0,26,15,50,-99999999999999.0, 9,11,60
637,144490808720.01266,99999999999999.0,26,15,50,-99999999999999.0, 1, 1,10
649,144490808720.01266,99999999999999.0,26,15,50,-99999999999999.0, 1, 1,10
4,365,12
11,10433877579.18846,99999999999999.0,26,19,10,-99999999999999.0, 9,11,60
23,944926958.804621,99999999999999.0, 1, 1,10,-99999999999999.0,12,14,10
59,933840000.0,99999999999999.0, 1, 1,10,-99999999999999.0, 1, 8,10
521,9488950620.383821,99999999999999.0,26,15,50,-99999999999999.0, 9,11,60
637,179865014028.87622,99999999999999.0,26,15,50,-99999999999999.0, 1, 1,10
649,179865014028.87622,99999999999999.0,26,15,50,-99999999999999.0, 1, 1,10
5,365
13,94629987964.43996,30000.0, 3,26,19,10,3056654.848514392,10, 9,11,60
25,11199190265.883286,30000.0, 1, 1, 1,10,624414.8317563278, 8,12,14,10
61,11066760000.0,30000.0, 1, 1, 1,10,600000.0, 1, 1, 8,10
523,83430797698.57628,0.0, 3,26,15,50,2448255.6372987553,10, 9,11,60
639,1231522546410.5322,0.0, 3,26,15,50,41250000.0, 1, 1, 1,10
651,1231522546410.5322,0.0, 3,26,15,50,41250000.0, 1, 1, 1,10
1,RUN PERIOD 2,  41.98, -87.92,  -6.00, 201.00
4,1, 7
11,98881776.19314454,99999999999999.0,26,19,10,-99999999999999.0, 9,11,60
23,41183952.67293825,99999999999999.0, 1, 1,10,-99999999999999.0,12,14,10
59,40680000.0,99999999999999.0, 1, 1,10,-99999999999999.0, 1, 8,10
521,57697823.52020641,99999999999999.0,26,15,50,-99999999999999.0, 9,11,60
637,0.0,99999999999999.0,26,15,50,-99999999999999.0, 1, 1,10
649,0.0,99999999999999.0,26,15,50,-99999999999999.0, 1, 1,10
5,1
13,98881776.19314454,99999999999999.0, 3,26,19,10,-99999999999999.0,10, 9,11,60
25,41183952.67293825,99999999999999.0, 1, 1, 1,10,-99999999999999.0, 8,12,14,10
61,40680000.0,99999999999999.0, 1, 1, 1,10,-99999999999999.0, 1, 1, 8,10
523,57697823.52020641,99999999999999.0, 3,26,15,50,-99999999999999.0,10, 9,11,60
639,0.0,99999999999999.0, 3,26,15,50,-99999999999999.0, 1, 1, 1,10
651,0.0,99999999999999.0, 3,26,15,50,-99999999999999.0, 1, 1, 1,10
End of Data
 Number of Records Written=          90
