Program Version,EnergyPlus, Version 24.1.0-9d7789a3ac, YMD=2024.06.19 21:17
1,5,Environment Title[],Latitude[deg],Longitude[deg],Time Zone[],Elevation[m]
2,8,Day of Simulation[],Month[],Day of Month[],DST Indicator[1=yes 0=no],Hour[],StartMinute[],EndMinute[],DayType
3,5,Cumulative Day of Simulation[],Month[],Day of Month[],DST Indicator[1=yes 0=no],DayType  ! When Daily Report Variables Requested
4,2,Cumulative Days of Simulation[],Month[]  ! When Monthly Report Variables Requested
5,1,Cumulative Days of Simulation[] ! When Run Period Report Variables Requested
6,1,Calendar Year of Simulation[] ! When Annual Report Variables Requested
250,1,LIVING ZONE,Zone Air Temperature [C] !TimeStep,REPORTSCH
251,1,LIVING ZONE,Zone Air System Sensible Heating Energy [J] !TimeStep,REPORTSCH
336,1,LIVING ZONE,Zone Air System Sensible Cooling Energy [J] !TimeStep,REPORTSCH
385,1,LIVING ZONE,Zone Thermostat Heating Setpoint Temperature [C] !TimeStep,REPORTSCH
386,1,LIVING ZONE,Zone Thermostat Cooling Setpoint Temperature [C] !TimeStep,REPORTSCH
387,1,GARAGE ZONE,Zone Air Temperature [C] !TimeStep,REPORTSCH
388,1,GARAGE ZONE,Zone Air System Sensible Heating Energy [J] !TimeStep,REPORTSCH
425,1,GARAGE ZONE,Zone Air System Sensible Cooling Energy [J] !TimeStep,REPORTSCH
450,1,GARAGE ZONE,Zone Thermostat Heating Setpoint Temperature [C] !TimeStep,REPORTSCH
451,1,GARAGE ZONE,Zone Thermostat Cooling Setpoint Temperature [C] !TimeStep,REPORTSCH
452,1,ATTIC ZONE,Zone Air Temperature [C] !TimeStep,REPORTSCH
453,1,ATTIC ZONE,Zone Air System Sensible Heating Energy [J] !TimeStep,REPORTSCH
490,1,ATTIC ZONE,Zone Air System Sensible Cooling Energy [J] !TimeStep,REPORTSCH
515,1,ATTIC ZONE,Zone Thermostat Heating Setpoint Temperature [C] !TimeStep,REPORTSCH
516,1,ATTIC ZONE,Zone Thermostat Cooling Setpoint Temperature [C] !TimeStep,REPORTSCH
542,1,ACDXCOIL 1,Cooling Coil Total Cooling Energy [J] !TimeStep,REPORTSCH
592,1,HEAT PUMP DX HEATING COIL 1,Heating Coil Heating Energy [J] !TimeStep,REPORTSCH
632,1,SUPP HEATING COIL 1,Heating Coil Heating Energy [J] !TimeStep,REPORTSCH
686,1,TWOSPEED HEAT PUMP 1,Unitary System DX Coil Cycling Ratio [] !TimeStep,REPORTSCH
687,1,TWOSPEED HEAT PUMP 1,Unitary System DX Coil Speed Ratio [] !TimeStep,REPORTSCH
688,1,TWOSPEED HEAT PUMP 1,Unitary System DX Coil Speed Level [] !TimeStep
End of Data Dictionary
1,CHICAGO_IL_USA ANNUAL HEATING 99% DESIGN CONDITIONS DB,  41.98, -87.92,  -6.00, 201.00
2,1, 1,21, 0, 1, 0.00,10.00,WinterDesignDay
250,21.36721592570895
251,15390047.981782109
336,0.0
385,21.718489824730025
386,25.471525364186196
387,-17.564487055404047
388,0.0
425,0.0
450,0.0
451,0.0
452,-18.236779689224875
453,0.0
490,0.0
515,0.0
516,0.0
542,0.0
592,0.0
632,15030548.836824112
686,1.0
687,1.0
688,2.0
2,1, 1,21, 0, 1,10.00,20.00,WinterDesignDay
250,21.75279089352307
251,14530755.48028187
336,0.0
385,21.718489824730025
386,25.471525364186192
387,-17.564485614338917
388,0.0
425,0.0
450,0.0
451,0.0
452,-18.236899082174787
453,0.0
490,0.0
515,0.0
516,0.0
542,0.0
592,0.0
632,14139585.148708818
686,1.0
687,1.0
688,2.0
2,1, 1,21, 0, 1,20.00,30.00,WinterDesignDay
250,21.997965323441786
251,15514248.700280292
336,0.0
385,22.385156491396693
386,25.471525364186196
387,-17.564377972845723
388,0.0
425,0.0
450,0.0
451,0.0
452,-18.236831375327263
453,0.0
490,0.0
515,0.0
516,0.0
542,0.0
592,0.0
632,15990373.824167162
686,1.0
687,1.0
688,2.0
2,1, 1,21, 0, 1,30.00,40.00,WinterDesignDay
250,22.350525417828486
251,16617535.498421658
336,0.0
385,22.385156491396693
386,25.471525364186196
387,-17.564382145159367
388,0.0
425,0.0
450,0.0
451,0.0
452,-18.236687873256873
453,0.0
490,0.0
515,0.0
516,0.0
542,0.0
592,0.0
632,16459950.687262155
686,1.0
687,1.0
688,2.0
2,1, 1,21, 0, 1,40.00,50.00,WinterDesignDay
250,21.367215923819927
251,15390048.014414627
336,0.0
385,21.718489824729993
386,25.47152536418616
387,-17.56449189797219
388,0.0
425,0.0
450,0.0
451,0.0
452,-18.236780169317118
453,0.0
490,0.0
515,0.0
516,0.0
542,0.0
592,0.0
632,15030548.868965928
686,0.9999999999999986
687,0.9999999999999986
688,1.9999999999999971
2,1, 1,21, 0, 1,50.00,60.00,WinterDesignDay
250,21.752790893427342
251,14530755.520288942
336,0.0
385,21.718489824730042
386,25.471525364186213
387,-17.564490396445624
388,0.0
425,0.0
450,0.0
451,0.0
452,-18.236899556105012
453,0.0
490,0.0
515,0.0
516,0.0
542,0.0
592,0.0
632,14139585.189039854
686,1.0000000000000009
687,1.0000000000000009
688,2.0000000000000018
2,1, 1,21, 0, 2, 0.00,10.00,WinterDesignDay
250,21.997965323684397
251,15514248.74009332
336,0.0
385,22.385156491396693
386,25.471525364186196
387,-17.56438268233118
388,0.0
425,0.0
450,0.0
451,0.0
452,-18.23683184207051
453,0.0
490,0.0
515,0.0
516,0.0
542,0.0
592,0.0
632,15990373.864151172
686,1.0
687,1.0
688,2.0
2,1, 1,21, 0, 2,10.00,20.00,WinterDesignDay
250,22.35052541786564
251,16617535.538663607
336,0.0
385,22.385156491396693
386,25.471525364186196
387,-17.56438679127013
388,0.0
425,0.0
450,0.0
451,0.0
452,-18.23668833386865
453,0.0
490,0.0
515,0.0
516,0.0
542,0.0
592,0.0
632,16459950.727442585
686,1.0
687,1.0
688,2.0
2,1, 1,21, 0, 2,20.00,30.00,WinterDesignDay
250,21.36721592202862
251,15390048.045360368
336,0.0
385,21.718489824730042
386,25.471525364186217
387,-17.56449649025924
388,0.0
425,0.0
450,0.0
451,0.0
452,-18.236780624600904
453,0.0
490,0.0
515,0.0
516,0.0
542,0.0
592,0.0
632,15030548.89944632
686,1.0000000000000007
687,1.0000000000000007
688,2.0000000000000013
2,1, 1,21, 0, 2,30.00,40.00,WinterDesignDay
250,21.752790893336552
251,14530755.558228103
336,0.0
385,21.718489824730042
386,25.471525364186213
387,-17.564494931395586
388,0.0
425,0.0
450,0.0
451,0.0
452,-18.236900005545028
453,0.0
490,0.0
515,0.0
516,0.0
542,0.0
592,0.0
632,14139585.227286236
686,1.0000000000000009
687,1.0000000000000009
688,2.0000000000000018
2,1, 1,21, 0, 2,40.00,50.00,WinterDesignDay
250,21.997965323914467
251,15514248.777848525
336,0.0
385,22.385156491396693
386,25.471525364186196
387,-17.56438714841286
388,0.0
425,0.0
450,0.0
451,0.0
452,-18.23683228469487
453,0.0
490,0.0
515,0.0
516,0.0
542,0.0
592,0.0
632,15990373.902068514
686,1.0
687,1.0
688,2.0
2,1, 1,21, 0, 2,50.00,60.00,WinterDesignDay
250,22.350525417900872
251,16617535.576825637
336,0.0
385,22.385156491396693
386,25.471525364186196
387,-17.564391197252235
388,0.0
425,0.0
450,0.0
451,0.0
452,-18.2366887706783
453,0.0
490,0.0
515,0.0
516,0.0
542,0.0
592,0.0
632,16459950.765546277
686,1.0
687,1.0
688,2.0
2,1, 1,21, 0, 3, 0.00,10.00,WinterDesignDay
250,21.36721592032984
251,15390048.074706629
336,0.0
385,21.718489824730025
386,25.471525364186196
387,-17.56450084519896
388,0.0
425,0.0
450,0.0
451,0.0
452,-18.236781056357746
453,0.0
490,0.0
515,0.0
516,0.0
542,0.0
592,0.0
632,15030548.928351294
686,1.0
687,1.0
688,2.0
2,1, 1,21, 0, 3,10.00,20.00,WinterDesignDay
250,21.752790893250435
251,14530755.594206268
336,0.0
385,21.718489824730025
386,25.471525364186192
387,-17.56449923196168
388,0.0
425,0.0
450,0.0
451,0.0
452,-18.236900431760052
453,0.0
490,0.0
515,0.0
516,0.0
542,0.0
592,0.0
632,14139585.263555743
686,1.0
687,1.0
688,2.0
2,1, 1,21, 0, 3,20.00,30.00,WinterDesignDay
250,21.997965324132647
251,15514248.813652312
336,0.0
385,22.385156491396693
386,25.471525364186196
387,-17.564391383670138
388,0.0
425,0.0
450,0.0
451,0.0
452,-18.23683270444639
453,0.0
490,0.0
515,0.0
516,0.0
542,0.0
592,0.0
632,15990373.938026061
686,1.0
687,1.0
688,2.0
2,1, 1,21, 0, 3,30.00,40.00,WinterDesignDay
250,22.350525417934286
251,16617535.613015104
336,0.0
385,22.385156491396693
386,25.471525364186196
387,-17.564395375516145
388,0.0
425,0.0
450,0.0
451,0.0
452,-18.236689184915498
453,0.0
490,0.0
515,0.0
516,0.0
542,0.0
592,0.0
632,16459950.801680427
686,1.0
687,1.0
688,2.0
2,1, 1,21, 0, 3,40.00,50.00,WinterDesignDay
250,21.367215918718845
251,15390048.102536138
336,0.0
385,21.718489824729993
386,25.47152536418616
387,-17.56450497505855
388,0.0
425,0.0
450,0.0
451,0.0
452,-18.23678146580317
453,0.0
490,0.0
515,0.0
516,0.0
542,0.0
592,0.0
632,15030548.955762327
686,0.9999999999999986
687,0.9999999999999986
688,1.9999999999999971
2,1, 1,21, 0, 3,50.00,60.00,WinterDesignDay
250,21.752790893168797
251,14530755.628324864
336,0.0
385,21.718489824730042
386,25.471525364186213
387,-17.564503310257574
388,0.0
425,0.0
450,0.0
451,0.0
452,-18.236900835950035
453,0.0
490,0.0
515,0.0
516,0.0
542,0.0
592,0.0
632,14139585.29795062
686,1.0000000000000009
687,1.0000000000000009
688,2.0000000000000018
2,1, 1,21, 0, 4, 0.00,10.00,WinterDesignDay
250,21.997965324339553
251,15514248.847605564
336,0.0
385,22.385156491396693
386,25.471525364186196
387,-17.564395400032314
388,0.0
425,0.0
450,0.0
451,0.0
452,-18.236833102506772
453,0.0
490,0.0
515,0.0
516,0.0
542,0.0
592,0.0
632,15990373.972125126
686,1.0
687,1.0
688,2.0
2,1, 1,21, 0, 4,10.00,20.00,WinterDesignDay
250,22.35052541796597
251,16617535.647334043
336,0.0
385,22.385156491396693
386,25.471525364186196
387,-17.564399337830086
388,0.0
425,0.0
450,0.0
451,0.0
452,-18.236689577746457
453,0.0
490,0.0
515,0.0
516,0.0
542,0.0
592,0.0
632,16459950.835946897
686,1.0
687,1.0
688,2.0
2,1, 1,21, 0, 4,20.00,30.00,WinterDesignDay
250,21.367215917191196
251,15390048.128927175
336,0.0
385,21.718489824730042
386,25.471525364186217
387,-17.564508891469846
388,0.0
425,0.0
450,0.0
451,0.0
452,-18.236781854089983
453,0.0
490,0.0
515,0.0
516,0.0
542,0.0
592,0.0
632,15030548.981756516
686,1.0000000000000007
687,1.0000000000000007
688,2.0000000000000013
2,1, 1,21, 0, 4,30.00,40.00,WinterDesignDay
250,21.752790893091365
251,14530755.660679985
336,0.0
385,21.718489824730042
386,25.471525364186213
387,-17.56450717777009
388,0.0
425,0.0
450,0.0
451,0.0
452,-18.23690121925285
453,0.0
490,0.0
515,0.0
516,0.0
542,0.0
592,0.0
632,14139585.330567745
686,1.0000000000000009
687,1.0000000000000009
688,2.0000000000000018
2,1, 1,21, 0, 4,40.00,50.00,WinterDesignDay
250,21.997965324535762
251,15514248.87980387
336,0.0
385,22.385156491396693
386,25.471525364186196
387,-17.564399208811835
388,0.0
425,0.0
450,0.0
451,0.0
452,-18.236833479996708
453,0.0
490,0.0
515,0.0
516,0.0
542,0.0
592,0.0
632,15990374.004461704
686,1.0
687,1.0
688,2.0
2,1, 1,21, 0, 4,50.00,60.00,WinterDesignDay
250,22.350525417996018
251,16617535.679879244
336,0.0
385,22.385156491396693
386,25.471525364186196
387,-17.56440309535493
388,0.0
425,0.0
450,0.0
451,0.0
452,-18.236689950277153
453,0.0
490,0.0
515,0.0
516,0.0
542,0.0
592,0.0
632,16459950.868442345
686,1.0
687,1.0
688,2.0
2,1, 1,21, 0, 5, 0.00,10.00,WinterDesignDay
250,21.367215915742438
251,15390048.153954197
336,0.0
385,21.718489824730025
386,25.471525364186196
387,-17.564512605464337
388,0.0
425,0.0
450,0.0
451,0.0
452,-18.236782222311255
453,0.0
490,0.0
515,0.0
516,0.0
542,0.0
592,0.0
632,15030549.006407194
686,1.0
687,1.0
688,2.0
2,1, 1,21, 0, 5,10.00,20.00,WinterDesignDay
250,21.75279089301792
251,14530755.691362841
336,0.0
385,21.718489824730025
386,25.471525364186192
387,-17.564510845392718
388,0.0
425,0.0
450,0.0
451,0.0
452,-18.23690158274768
453,0.0
490,0.0
515,0.0
516,0.0
542,0.0
592,0.0
632,14139585.361499056
686,1.0
687,1.0
688,2.0
2,1, 1,21, 0, 5,20.00,30.00,WinterDesignDay
250,21.99796532472183
251,15514248.910337936
336,0.0
385,22.385156491396693
386,25.471525364186196
387,-17.564402820736763
388,0.0
425,0.0
450,0.0
451,0.0
452,-18.236833837979013
453,0.0
490,0.0
515,0.0
516,0.0
542,0.0
592,0.0
632,15990374.035126902
686,1.0
687,1.0
688,2.0
2,1, 1,21, 0, 5,30.00,40.00,WinterDesignDay
250,22.350525418024507
251,16617535.710742258
336,0.0
385,22.385156491396693
386,25.471525364186196
387,-17.56440665867374
388,0.0
425,0.0
450,0.0
451,0.0
452,-18.236690303556443
453,0.0
490,0.0
515,0.0
516,0.0
542,0.0
592,0.0
632,16459950.89925818
686,1.0
687,1.0
688,2.0
2,1, 1,21, 0, 5,40.00,50.00,WinterDesignDay
250,21.367215914368558
251,15390048.17768763
336,0.0
385,21.718489824729993
386,25.47152536418616
387,-17.56451612750235
388,0.0
425,0.0
450,0.0
451,0.0
452,-18.23678257150376
453,0.0
490,0.0
515,0.0
516,0.0
542,0.0
592,0.0
632,15030549.029783743
686,0.9999999999999986
687,0.9999999999999986
688,1.9999999999999971
2,1, 1,21, 0, 5,50.00,60.00,WinterDesignDay
250,21.752790892948305
251,14530755.720459756
336,0.0
385,21.718489824730042
386,25.471525364186213
387,-17.564514323455708
388,0.0
425,0.0
450,0.0
451,0.0
452,-18.236901927457975
453,0.0
490,0.0
515,0.0
516,0.0
542,0.0
592,0.0
632,14139585.39083159
686,1.0000000000000009
687,1.0000000000000009
688,2.0000000000000018
2,1, 1,21, 0, 6, 0.00,10.00,WinterDesignDay
250,21.99796532489828
251,15514248.939293753
336,0.0
385,22.385156491396693
386,25.471525364186196
387,-17.56440624598079
388,0.0
425,0.0
450,0.0
451,0.0
452,-18.236834177461574
453,0.0
490,0.0
515,0.0
516,0.0
542,0.0
592,0.0
632,15990374.064207073
686,1.0
687,1.0
688,2.0
2,1, 1,21, 0, 6,10.00,20.00,WinterDesignDay
250,22.35052541805153
251,16617535.740009986
336,0.0
385,22.385156491396693
386,25.471525364186196
387,-17.564410037824057
388,0.0
425,0.0
450,0.0
451,0.0
452,-18.236690638578978
453,0.0
490,0.0
515,0.0
516,0.0
542,0.0
592,0.0
632,16459950.928481169
686,1.0
687,1.0
688,2.0
2,1, 1,21, 0, 6,20.00,30.00,WinterDesignDay
250,21.367215913065756
251,15390048.200194368
336,0.0
385,21.718489824730042
386,25.471525364186217
387,-17.564519467505768
388,0.0
425,0.0
450,0.0
451,0.0
452,-18.236782902650724
453,0.0
490,0.0
515,0.0
516,0.0
542,0.0
592,0.0
632,15030549.051952038
686,1.0000000000000007
687,1.0000000000000007
688,2.0000000000000013
2,1, 1,21, 0, 6,30.00,40.00,WinterDesignDay
250,21.75279089288227
251,14530755.74805269
336,0.0
385,21.718489824730042
386,25.471525364186213
387,-17.564517621756796
388,0.0
425,0.0
450,0.0
451,0.0
452,-18.236902254354263
453,0.0
490,0.0
515,0.0
516,0.0
542,0.0
592,0.0
632,14139585.418647967
686,1.0000000000000009
687,1.0000000000000009
688,2.0000000000000018
2,1, 1,21, 0, 6,40.00,50.00,WinterDesignDay
250,21.997965325065607
251,15514248.966752956
336,0.0
385,22.385156491396693
386,25.471525364186196
387,-17.564409494192674
388,0.0
425,0.0
450,0.0
451,0.0
452,-18.23683449940026
453,0.0
490,0.0
515,0.0
516,0.0
542,0.0
592,0.0
632,15990374.091784194
686,1.0
687,1.0
688,2.0
2,1, 1,21, 0, 6,50.00,60.00,WinterDesignDay
250,22.350525418077154
251,16617535.767765043
336,0.0
385,22.385156491396693
386,25.471525364186196
387,-17.564413242324157
388,0.0
425,0.0
450,0.0
451,0.0
452,-18.23669095628808
453,0.0
490,0.0
515,0.0
516,0.0
542,0.0
592,0.0
632,16459950.956193797
686,1.0
687,1.0
688,2.0
2,1, 1,21, 0, 7, 0.00,10.00,WinterDesignDay
250,21.36721591183023
251,15390048.221537802
336,0.0
385,21.718489824730025
386,25.471525364186196
387,-17.564522634881754
388,0.0
425,0.0
450,0.0
451,0.0
452,-18.236783216684444
453,0.0
490,0.0
515,0.0
516,0.0
542,0.0
592,0.0
632,15030549.072974522
686,1.0
687,1.0
688,2.0
2,1, 1,21, 0, 7,10.00,20.00,WinterDesignDay
250,21.752790892819633
251,14530755.774219507
336,0.0
385,21.718489824730025
386,25.471525364186192
387,-17.56452074958589
388,0.0
425,0.0
450,0.0
451,0.0
452,-18.236902564356974
453,0.0
490,0.0
515,0.0
516,0.0
542,0.0
592,0.0
632,14139585.445026673
686,1.0
687,1.0
688,2.0
2,1, 1,21, 0, 7,20.00,30.00,WinterDesignDay
250,21.99796532522429
251,15514248.992792986
336,0.0
385,22.385156491396693
386,25.471525364186196
387,-17.564412574521484
388,0.0
425,0.0
450,0.0
451,0.0
452,-18.236834804701562
453,0.0
490,0.0
515,0.0
516,0.0
542,0.0
592,0.0
632,15990374.117936056
686,1.0
687,1.0
688,2.0
2,1, 1,21, 0, 7,30.00,40.00,WinterDesignDay
250,22.350525418101455
251,16617535.79408549
336,0.0
385,22.385156491396693
386,25.471525364186196
387,-17.56441628120062
388,0.0
425,0.0
450,0.0
451,0.0
452,-18.236691257578343
453,0.0
490,0.0
515,0.0
516,0.0
542,0.0
592,0.0
632,16459950.982474003
686,1.0
687,1.0
688,2.0
2,1, 1,21, 0, 7,40.00,50.00,WinterDesignDay
250,21.367215910658558
251,15390048.241778038
336,0.0
385,21.718489824729993
386,25.47152536418616
387,-17.56452563855275
388,0.0
425,0.0
450,0.0
451,0.0
452,-18.23678351448924
453,0.0
490,0.0
515,0.0
516,0.0
542,0.0
592,0.0
632,15030549.092910398
686,0.9999999999999986
687,0.9999999999999986
688,1.9999999999999971
2,1, 1,21, 0, 7,50.00,60.00,WinterDesignDay
250,21.752790892760267
251,14530755.799033802
336,0.0
385,21.718489824730042
386,25.471525364186213
387,-17.564523715753438
388,0.0
425,0.0
450,0.0
451,0.0
452,-18.236902858339086
453,0.0
490,0.0
515,0.0
516,0.0
542,0.0
592,0.0
632,14139585.470041906
686,1.0000000000000009
687,1.0000000000000009
688,2.0000000000000018
2,1, 1,21, 0, 8, 0.00,10.00,WinterDesignDay
250,21.99796532537477
251,15514249.017486911
336,0.0
385,22.385156491396693
386,25.471525364186196
387,-17.564415495643203
388,0.0
425,0.0
450,0.0
451,0.0
452,-18.236835094225153
453,0.0
490,0.0
515,0.0
516,0.0
542,0.0
592,0.0
632,15990374.142736025
686,1.0
687,1.0
688,2.0
2,1, 1,21, 0, 8,10.00,20.00,WinterDesignDay
250,22.350525418124498
251,16617535.819045529
336,0.0
385,22.385156491396693
386,25.471525364186196
387,-17.564419163011937
388,0.0
425,0.0
450,0.0
451,0.0
452,-18.23669154329814
453,0.0
490,0.0
515,0.0
516,0.0
542,0.0
592,0.0
632,16459951.007395886
686,1.0
687,1.0
688,2.0
2,1, 1,21, 0, 8,20.00,30.00,WinterDesignDay
250,21.367215909547518
251,15390048.260972131
336,0.0
385,21.718489824730042
386,25.471525364186217
387,-17.564528486978112
388,0.0
425,0.0
450,0.0
451,0.0
452,-18.2367837969037
453,0.0
490,0.0
515,0.0
516,0.0
542,0.0
592,0.0
632,15030549.111815868
686,1.0000000000000007
687,1.0000000000000007
688,2.0000000000000013
2,1, 1,21, 0, 8,30.00,40.00,WinterDesignDay
250,21.75279089270395
251,14530755.82256557
336,0.0
385,21.718489824730042
386,25.471525364186213
387,-17.56452652861358
388,0.0
425,0.0
450,0.0
451,0.0
452,-18.236903137128316
453,0.0
490,0.0
515,0.0
516,0.0
542,0.0
592,0.0
632,14139585.493764231
686,1.0000000000000009
687,1.0000000000000009
688,2.0000000000000018
2,1, 1,21, 0, 8,40.00,50.00,WinterDesignDay
250,21.997965325517477
251,15514249.040904522
336,0.0
385,22.385156491396693
386,25.471525364186196
387,-17.564418265785932
388,0.0
425,0.0
450,0.0
451,0.0
452,-18.236835368786252
453,0.0
490,0.0
515,0.0
516,0.0
542,0.0
592,0.0
632,15990374.166254207
686,1.0
687,1.0
688,2.0
2,1, 1,21, 0, 8,50.00,60.00,WinterDesignDay
250,22.35052541814635
251,16617535.842715412
336,0.0
385,22.385156491396693
386,25.471525364186196
387,-17.564421895876645
388,0.0
425,0.0
450,0.0
451,0.0
452,-18.23669181425199
453,0.0
490,0.0
515,0.0
516,0.0
542,0.0
592,0.0
632,16459951.031029588
686,1.0
687,1.0
688,2.0
2,1, 1,21, 0, 9, 0.00,10.00,WinterDesignDay
250,21.36721590849384
251,15390048.279174175
336,0.0
385,21.718489824730025
386,25.471525364186196
387,-17.564531188182634
388,0.0
425,0.0
450,0.0
451,0.0
452,-18.236784064722965
453,0.0
490,0.0
515,0.0
516,0.0
542,0.0
592,0.0
632,15030549.129744202
686,1.0
687,1.0
688,2.0
2,1, 1,21, 0, 9,10.00,20.00,WinterDesignDay
250,21.75279089265053
251,14530755.844880942
336,0.0
385,21.718489824730025
386,25.471525364186192
387,-17.564529196091552
388,0.0
425,0.0
450,0.0
451,0.0
452,-18.236903401509707
453,0.0
490,0.0
515,0.0
516,0.0
542,0.0
592,0.0
632,14139585.516260305
686,1.0
687,1.0
688,2.0
2,1, 1,21, 0, 9,20.00,30.00,WinterDesignDay
250,21.9979653256528
251,15514249.063111762
336,0.0
385,22.385156491396693
386,25.471525364186196
387,-17.564420892754203
388,0.0
425,0.0
450,0.0
451,0.0
452,-18.236835629158026
453,0.0
490,0.0
515,0.0
516,0.0
542,0.0
592,0.0
632,15990374.18855681
686,1.0
687,1.0
688,2.0
2,1, 1,21, 0, 9,30.00,40.00,WinterDesignDay
250,22.350525418167074
251,16617535.865161914
336,0.0
385,22.385156491396693
386,25.471525364186196
387,-17.564424487492765
388,0.0
425,0.0
450,0.0
451,0.0
452,-18.23669207120291
453,0.0
490,0.0
515,0.0
516,0.0
542,0.0
592,0.0
632,16459951.053441778
686,1.0
687,1.0
688,2.0
2,1, 1,21, 0, 9,40.00,50.00,WinterDesignDay
250,21.367215907494614
251,15390048.296435338
336,0.0
385,21.718489824729993
386,25.47152536418616
387,-17.564533749774377
388,0.0
425,0.0
450,0.0
451,0.0
452,-18.23678431870126
453,0.0
490,0.0
515,0.0
516,0.0
542,0.0
592,0.0
632,15030549.146745801
686,0.9999999999999986
687,0.9999999999999986
688,1.9999999999999971
2,1, 1,21, 0, 9,50.00,60.00,WinterDesignDay
250,21.752790892599904
251,14530755.866042942
336,0.0
385,21.718489824730042
386,25.471525364186213
387,-17.56453172569956
388,0.0
425,0.0
450,0.0
451,0.0
452,-18.236903652227827
453,0.0
490,0.0
515,0.0
516,0.0
542,0.0
592,0.0
632,14139585.537593668
686,1.0000000000000009
687,1.0000000000000009
688,2.0000000000000018
2,1, 1,21, 0,10, 0.00,10.00,WinterDesignDay
250,21.99796532578113
251,15514249.084171245
336,0.0
385,22.385156491396693
386,25.471525364186196
387,-17.564423383946302
388,0.0
425,0.0
450,0.0
451,0.0
452,-18.23683587607368
453,0.0
490,0.0
515,0.0
516,0.0
542,0.0
592,0.0
632,15990374.209706739
686,1.0
687,1.0
688,2.0
2,1, 1,21, 0,10,10.00,20.00,WinterDesignDay
250,22.350525418186727
251,16617535.88644822
336,0.0
385,22.385156491396693
386,25.471525364186196
387,-17.56442694516017
388,0.0
425,0.0
450,0.0
451,0.0
452,-18.236692314874475
453,0.0
490,0.0
515,0.0
516,0.0
542,0.0
592,0.0
632,16459951.074695542
686,1.0
687,1.0
688,2.0
2,1, 1,21, 0,10,20.00,30.00,WinterDesignDay
250,21.367215906547116
251,15390048.312804308
336,0.0
385,21.718489824730042
386,25.471525364186217
387,-17.56453617896947
388,0.0
425,0.0
450,0.0
451,0.0
452,-18.236784559553858
453,0.0
490,0.0
515,0.0
516,0.0
542,0.0
592,0.0
632,15030549.162868626
686,1.0000000000000007
687,1.0000000000000007
688,2.0000000000000013
2,1, 1,21, 0,10,30.00,40.00,WinterDesignDay
250,21.752790892551875
251,14530755.886111218
336,0.0
385,21.718489824730042
386,25.471525364186213
387,-17.5645341245638
388,0.0
425,0.0
450,0.0
451,0.0
452,-18.23690388998864
453,0.0
490,0.0
515,0.0
516,0.0
542,0.0
592,0.0
632,14139585.557824451
686,1.0000000000000009
687,1.0000000000000009
688,2.0000000000000018
2,1, 1,21, 0,10,40.00,50.00,WinterDesignDay
250,21.99796532590283
251,15514249.10414221
336,0.0
385,22.385156491396693
386,25.471525364186196
387,-17.56442574637993
388,0.0
425,0.0
450,0.0
451,0.0
452,-18.236836110228538
453,0.0
490,0.0
515,0.0
516,0.0
542,0.0
592,0.0
632,15990374.229763469
686,1.0
687,1.0
688,2.0
2,1, 1,21, 0,10,50.00,60.00,WinterDesignDay
250,22.35052541820536
251,16617535.906634398
336,0.0
385,22.385156491396693
386,25.471525364186196
387,-17.564429275801636
388,0.0
425,0.0
450,0.0
451,0.0
452,-18.236692545952877
453,0.0
490,0.0
515,0.0
516,0.0
542,0.0
592,0.0
632,16459951.094850857
686,1.0
687,1.0
688,2.0
2,1, 1,21, 0,11, 0.00,10.00,WinterDesignDay
250,21.36721590564852
251,15390048.328327304
336,0.0
385,21.718489824730025
386,25.471525364186196
387,-17.5645384826105
388,0.0
425,0.0
450,0.0
451,0.0
452,-18.236784787958918
453,0.0
490,0.0
515,0.0
516,0.0
542,0.0
592,0.0
632,15030549.178158201
686,1.0
687,1.0
688,2.0
2,1, 1,21, 0,11,10.00,20.00,WinterDesignDay
250,21.75279089250631
251,14530755.905142095
336,0.0
385,21.718489824730025
386,25.471525364186192
387,-17.56453639944204
388,0.0
425,0.0
450,0.0
451,0.0
452,-18.236904115461712
453,0.0
490,0.0
515,0.0
516,0.0
542,0.0
592,0.0
632,14139585.577009434
686,1.0
687,1.0
688,2.0
2,1, 1,21, 0,11,20.00,30.00,WinterDesignDay
250,21.99796532601824
251,15514249.123080902
336,0.0
385,22.385156491396693
386,25.471525364186196
387,-17.564427986710747
388,0.0
425,0.0
450,0.0
451,0.0
452,-18.236836332282017
453,0.0
490,0.0
515,0.0
516,0.0
542,0.0
592,0.0
632,15990374.248783497
686,1.0
687,1.0
688,2.0
2,1, 1,21, 0,11,30.00,40.00,WinterDesignDay
250,22.350525418223036
251,16617535.925777055
336,0.0
385,22.385156491396693
386,25.471525364186196
387,-17.564431485983526
388,0.0
425,0.0
450,0.0
451,0.0
452,-18.236692765088883
453,0.0
490,0.0
515,0.0
516,0.0
542,0.0
592,0.0
632,16459951.113964254
686,1.0
687,1.0
688,2.0
2,1, 1,21, 0,11,40.00,50.00,WinterDesignDay
250,21.36721590479636
251,15390048.34304795
336,0.0
385,21.718489824729993
386,25.47152536418616
387,-17.56454066718683
388,0.0
425,0.0
450,0.0
451,0.0
452,-18.23678500455971
453,0.0
490,0.0
515,0.0
516,0.0
542,0.0
592,0.0
632,15030549.192657487
686,0.9999999999999986
687,0.9999999999999986
688,1.9999999999999971
2,1, 1,21, 0,11,50.00,60.00,WinterDesignDay
250,21.752790892463143
251,14530755.923189461
336,0.0
385,21.718489824730042
386,25.471525364186213
387,-17.564538556741432
388,0.0
425,0.0
450,0.0
451,0.0
452,-18.23690432928208
453,0.0
490,0.0
515,0.0
516,0.0
542,0.0
592,0.0
632,14139585.595202941
686,1.0000000000000009
687,1.0000000000000009
688,2.0000000000000018
2,1, 1,21, 0,12, 0.00,10.00,WinterDesignDay
250,21.997965326127684
251,15514249.141040737
336,0.0
385,22.385156491396693
386,25.471525364186196
387,-17.564430111247532
388,0.0
425,0.0
450,0.0
451,0.0
452,-18.23683654285946
453,0.0
490,0.0
515,0.0
516,0.0
542,0.0
592,0.0
632,15990374.266820457
686,1.0
687,1.0
688,2.0
2,1, 1,21, 0,12,10.00,20.00,WinterDesignDay
250,22.350525418239798
251,16617535.943930384
336,0.0
385,22.385156491396693
386,25.471525364186196
387,-17.564433581929674
388,0.0
425,0.0
450,0.0
451,0.0
452,-18.236692972899597
453,0.0
490,0.0
515,0.0
516,0.0
542,0.0
592,0.0
632,16459951.132089827
686,1.0
687,1.0
688,2.0
2,1, 1,21, 0,12,20.00,30.00,WinterDesignDay
250,21.367215903988313
251,15390048.357007736
336,0.0
385,21.718489824730042
386,25.471525364186217
387,-17.564542738851273
388,0.0
425,0.0
450,0.0
451,0.0
452,-18.23678520996627
453,0.0
490,0.0
515,0.0
516,0.0
542,0.0
592,0.0
632,15030549.206407353
686,1.0000000000000007
687,1.0000000000000007
688,2.0000000000000013
2,1, 1,21, 0,12,30.00,40.00,WinterDesignDay
250,21.752790892422183
251,14530755.94030401
336,0.0
385,21.718489824730042
386,25.471525364186213
387,-17.564540602539374
388,0.0
425,0.0
450,0.0
451,0.0
452,-18.236904532051813
453,0.0
490,0.0
515,0.0
516,0.0
542,0.0
592,0.0
632,14139585.612456081
686,1.0000000000000009
687,1.0000000000000009
688,2.0000000000000018
2,1, 1,21, 0,12,40.00,50.00,WinterDesignDay
250,21.997965326231473
251,15514249.158072244
336,0.0
385,22.385156491396693
386,25.471525364186196
387,-17.56443212597708
388,0.0
425,0.0
450,0.0
451,0.0
452,-18.236836742553884
453,0.0
490,0.0
515,0.0
516,0.0
542,0.0
592,0.0
632,15990374.283925107
686,1.0
687,1.0
688,2.0
2,1, 1,21, 0,12,50.00,60.00,WinterDesignDay
250,22.35052541825569
251,16617535.961145414
336,0.0
385,22.385156491396693
386,25.471525364186196
387,-17.564435569546376
388,0.0
425,0.0
450,0.0
451,0.0
452,-18.236693169970273
453,0.0
490,0.0
515,0.0
516,0.0
542,0.0
592,0.0
632,16459951.14927854
686,1.0
687,1.0
688,2.0
2,1, 1,21, 0,13, 0.00,10.00,WinterDesignDay
250,21.367215903221975
251,15390048.370245975
336,0.0
385,21.718489824730025
386,25.471525364186196
387,-17.564544703441165
388,0.0
425,0.0
450,0.0
451,0.0
452,-18.236785404756994
453,0.0
490,0.0
515,0.0
516,0.0
542,0.0
592,0.0
632,15030549.219446525
686,1.0
687,1.0
688,2.0
2,1, 1,21, 0,13,10.00,20.00,WinterDesignDay
250,21.752790892383327
251,14530755.956533946
336,0.0
385,21.718489824730025
386,25.471525364186192
387,-17.564542542599444
388,0.0
425,0.0
450,0.0
451,0.0
452,-18.236904724342015
453,0.0
490,0.0
515,0.0
516,0.0
542,0.0
592,0.0
632,14139585.628817443
686,1.0
687,1.0
688,2.0
2,1, 1,21, 0,13,20.00,30.00,WinterDesignDay
250,21.99796532632989
251,15514249.174223552
336,0.0
385,22.385156491396693
386,25.471525364186196
387,-17.56443403657387
388,0.0
425,0.0
450,0.0
451,0.0
452,-18.236836931927705
453,0.0
490,0.0
515,0.0
516,0.0
542,0.0
592,0.0
632,15990374.30014578
686,1.0
687,1.0
688,2.0
2,1, 1,21, 0,13,30.00,40.00,WinterDesignDay
250,22.35052541827076
251,16617535.977470692
336,0.0
385,22.385156491396693
386,25.471525364186196
387,-17.564437454431044
388,0.0
425,0.0
450,0.0
451,0.0
452,-18.236693356855938
453,0.0
490,0.0
515,0.0
516,0.0
542,0.0
592,0.0
632,16459951.165578868
686,1.0
687,1.0
688,2.0
2,1, 1,21, 0,13,40.00,50.00,WinterDesignDay
250,21.36721590249524
251,15390048.38279993
336,0.0
385,21.718489824729993
386,25.47152536418616
387,-17.564546566488655
388,0.0
425,0.0
450,0.0
451,0.0
452,-18.236785589480505
453,0.0
490,0.0
515,0.0
516,0.0
542,0.0
592,0.0
632,15030549.231811706
686,0.9999999999999986
687,0.9999999999999986
688,1.9999999999999971
2,1, 1,21, 0,13,50.00,60.00,WinterDesignDay
250,21.75279089234651
251,14530755.97192501
336,0.0
385,21.718489824730042
386,25.471525364186213
387,-17.564544382384746
388,0.0
425,0.0
450,0.0
451,0.0
452,-18.236904906694257
453,0.0
490,0.0
515,0.0
516,0.0
542,0.0
592,0.0
632,14139585.644333135
686,1.0000000000000009
687,1.0000000000000009
688,2.0000000000000018
2,1, 1,21, 0,14, 0.00,10.00,WinterDesignDay
250,21.99796532642323
251,15514249.189539962
336,0.0
385,22.385156491396693
386,25.471525364186196
387,-17.56443584841887
388,0.0
425,0.0
450,0.0
451,0.0
452,-18.236837111514237
453,0.0
490,0.0
515,0.0
516,0.0
542,0.0
592,0.0
632,15990374.315527966
686,1.0
687,1.0
688,2.0
2,1, 1,21, 0,14,10.00,20.00,WinterDesignDay
250,22.350525418285056
251,16617535.992952105
336,0.0
385,22.385156491396693
386,25.471525364186196
387,-17.564439241893417
388,0.0
425,0.0
450,0.0
451,0.0
452,-18.23669353408289
453,0.0
490,0.0
515,0.0
516,0.0
542,0.0
592,0.0
632,16459951.181036614
686,1.0
687,1.0
688,2.0
2,1, 1,21, 0,14,20.00,30.00,WinterDesignDay
250,21.367215901806134
251,15390048.394705087
336,0.0
385,21.718489824730042
386,25.471525364186217
387,-17.564548333242996
388,0.0
425,0.0
450,0.0
451,0.0
452,-18.2367857646571
453,0.0
490,0.0
515,0.0
516,0.0
542,0.0
592,0.0
632,15030549.24353784
686,1.0000000000000007
687,1.0000000000000007
688,2.0000000000000013
2,1, 1,21, 0,14,30.00,40.00,WinterDesignDay
250,21.75279089231158
251,14530755.986520505
336,0.0
385,21.718489824730042
386,25.471525364186213
387,-17.564546127079353
388,0.0
425,0.0
450,0.0
451,0.0
452,-18.236905079622055
453,0.0
490,0.0
515,0.0
516,0.0
542,0.0
592,0.0
632,14139585.659046821
686,1.0000000000000009
687,1.0000000000000009
688,2.0000000000000018
2,1, 1,21, 0,14,40.00,50.00,WinterDesignDay
250,21.99796532651174
251,15514249.204064745
336,0.0
385,22.385156491396693
386,25.471525364186196
387,-17.564437566617556
388,0.0
425,0.0
450,0.0
451,0.0
452,-18.236837281819277
453,0.0
490,0.0
515,0.0
516,0.0