Program Version,EnergyPlus, Version 24.2.0-94a887817b, YMD=2025.02.04 15:40
1,5,Environment Title[],Latitude[deg],Longitude[deg],Time Zone[],Elevation[m]
2,8,Day of Simulation[],Month[],Day of Month[],DST Indicator[1=yes 0=no],Hour[],StartMinute[],EndMinute[],DayType
3,5,Cumulative Day of Simulation[],Month[],Day of Month[],DST Indicator[1=yes 0=no],DayType  ! When Daily Meters Requested
4,2,Cumulative Days of Simulation[],Month[]  ! When Monthly Meters Requested
5,1,Cumulative Days of Simulation[] ! When Run Period Meters Requested
6,1,Calendar Year of Simulation[] ! When Annual Meters Requested
11,9,Electricity:Facility [J] !Monthly [Value,Min,Day,Hour,Minute,Max,Day,Hour,Minute]
23,9,Electricity:Building [J] !Monthly [Value,Min,Day,Hour,Minute,Max,Day,Hour,Minute]
59,9,InteriorLights:Electricity [J] !Monthly [Value,Min,Day,Hour,Minute,Max,Day,Hour,Minute]
521,9,Electricity:HVAC [J] !Monthly [Value,Min,Day,Hour,Minute,Max,Day,Hour,Minute]
637,9,NaturalGas:Facility [J] !Monthly [Value,Min,Day,Hour,Minute,Max,Day,Hour,Minute]
649,9,NaturalGas:HVAC [J] !Monthly [Value,Min,Day,Hour,Minute,Max,Day,Hour,Minute]
13,11,Electricity:Facility [J] !RunPeriod [Value,Min,Month,Day,Hour,Minute,Max,Month,Day,Hour,Minute]
25,11,Electricity:Building [J] !RunPeriod [Value,Min,Month,Day,Hour,Minute,Max,Month,Day,Hour,Minute]
61,11,InteriorLights:Electricity [J] !RunPeriod [Value,Min,Month,Day,Hour,Minute,Max,Month,Day,Hour,Minute]
523,11,Electricity:HVAC [J] !RunPeriod [Value,Min,Month,Day,Hour,Minute,Max,Month,Day,Hour,Minute]
639,11,NaturalGas:Facility [J] !RunPeriod [Value,Min,Month,Day,Hour,Minute,Max,Month,Day,Hour,Minute]
651,11,NaturalGas:HVAC [J] !RunPeriod [Value,Min,Month,Day,Hour,Minute,Max,Month,Day,Hour,Minute]
End of Data Dictionary
1,RUN PERIOD 1,  41.98, -87.92,  -6.00, 201.00
4,31, 1
11,9812389083.124516,408891.4285714286, 5, 6,50,2971747.8643419547,16,13,60
23,973338981.8935007,30000.0, 1, 1,10,602274.6245605298, 1, 9,10
59,970200000.0,30000.0, 1, 1,10,600000.0, 1, 8,10
521,8839050101.230986,378891.4285714286, 5, 6,50,2369473.239781425,16,13,60
637,178980653886.95468,28235214.723983325,21,16,10,41250000.0, 1, 1,10
649,178980653886.95468,28235214.723983325,21,16,10,41250000.0, 1, 1,10
4,59, 2
11,9347265670.536499,99999999999999.0, 5, 6,50,3013209.3046050766,22,15,30
23,850889549.4726144,99999999999999.0, 1, 1,10,-99999999999999.0, 1, 9,10
59,848160000.0,99999999999999.0, 1, 1,10,-99999999999999.0, 1, 8,10
521,8496376121.063895,99999999999999.0, 5, 6,50,2410934.680044547,22,15,30
637,158357167556.50772,26547214.74003198,23,12,10,-99999999999999.0, 1, 1,10
649,158357167556.50772,26547214.74003198,23,12,10,-99999999999999.0, 1, 1,10
4,90, 3
11,10962216770.96458,99999999999999.0, 5, 6,50,3220579.1489880923,27,15,10
23,900346026.9462429,99999999999999.0, 1, 1,10,-99999999999999.0, 1, 9,10
59,897480000.0,99999999999999.0, 1, 1,10,-99999999999999.0, 1, 8,10
521,10061870744.01824,0.0,27,15,20,2618304.5244275625,27,15,10
637,162430955612.59006,0.0,27,15,20,-99999999999999.0, 1, 1,10
649,162430955612.59006,0.0,27,15,20,-99999999999999.0, 1, 1,10
4,120, 4
11,9409351836.608429,30000.0,11,19,10,-99999999999999.0,27,15,10
23,932522504.4198722,99999999999999.0, 1, 1,10,-99999999999999.0, 1, 9,10
59,929520000.0,99999999999999.0, 1, 1,10,-99999999999999.0, 1, 8,10
521,8476829332.18859,99999999999999.0,27,15,20,-99999999999999.0,27,15,10
637,120287380906.9714,99999999999999.0,27,15,20,-99999999999999.0, 1, 1,10
649,120287380906.9714,99999999999999.0,27,15,20,-99999999999999.0, 1, 1,10
4,151, 5
11,8751533430.551699,99999999999999.0,11,19,10,3223050.853040934,20,11,10
23,973646446.6547776,99999999999999.0, 1, 1,10,618183.141876543,28,13,10
59,970200000.0,99999999999999.0, 1, 1,10,-99999999999999.0, 1, 8,10
521,7777886983.896925,99999999999999.0,27,15,20,2620776.2284804042,20,11,10
637,92899352394.63719,99999999999999.0,27,15,20,-99999999999999.0, 1, 1,10
649,92899352394.63719,99999999999999.0,27,15,20,-99999999999999.0, 1, 1,10
4,181, 6
11,6167691542.324502,99999999999999.0,11,19,10,-99999999999999.0,20,11,10
23,859634421.9020679,99999999999999.0, 1, 1,10,-99999999999999.0,28,13,10
59,856800000.0,99999999999999.0, 1, 1,10,-99999999999999.0, 1, 8,10
521,5308057120.42251,99999999999999.0,27,15,20,-99999999999999.0,20,11,10
637,41818345668.18966,99999999999999.0,27,15,20,-99999999999999.0, 1, 1,10
649,41818345668.18966,99999999999999.0,27,15,20,-99999999999999.0, 1, 1,10
4,212, 7
11,5101166323.60454,99999999999999.0,11,19,10,-99999999999999.0,20,11,10
23,973611391.2727408,99999999999999.0, 1, 1,10,-99999999999999.0,28,13,10
59,970200000.0,99999999999999.0, 1, 1,10,-99999999999999.0, 1, 8,10
521,4127554932.331773,99999999999999.0,27,15,20,-99999999999999.0,20,11,10
637,15074350149.82219,99999999999999.0,27,15,20,-99999999999999.0, 1, 1,10
649,15074350149.82219,99999999999999.0,27,15,20,-99999999999999.0, 1, 1,10
4,243, 8
11,4701789415.909544,99999999999999.0,11,19,10,-99999999999999.0,20,11,10
23,937148269.600781,99999999999999.0, 1, 1,10,629567.0084612689, 6,11,60
59,933840000.0,99999999999999.0, 1, 1,10,-99999999999999.0, 1, 8,10
521,3764641146.3088417,99999999999999.0,27,15,20,2620893.075715682,17, 9,20
637,28031348499.559505,99999999999999.0,27,15,20,-99999999999999.0, 1, 1,10
649,28031348499.559505,99999999999999.0,27,15,20,-99999999999999.0, 1, 1,10
4,273, 9
11,6914632322.597407,99999999999999.0,11,19,10,3224680.9449718096,25,14,20
23,896040207.8869998,99999999999999.0, 1, 1,10,-99999999999999.0, 6,11,60
59,893160000.0,99999999999999.0, 1, 1,10,-99999999999999.0, 1, 8,10
521,6018592114.710448,99999999999999.0,27,15,20,2622406.32041128,25,14,20
637,64055419488.67485,99999999999999.0,27,15,20,-99999999999999.0, 1, 1,10
649,64055419488.67485,99999999999999.0,27,15,20,-99999999999999.0, 1, 1,10
4,304,10
11,10533245710.404106,99999999999999.0,11,19,10,-99999999999999.0,25,14,20
23,973374579.9013925,99999999999999.0, 1, 1,10,-99999999999999.0, 6,11,60
59,970200000.0,99999999999999.0, 1, 1,10,-99999999999999.0, 1, 8,10
521,9559871130.502716,99999999999999.0,27,15,20,-99999999999999.0,25,14,20
637,128320199511.26044,99999999999999.0,27,15,20,-99999999999999.0, 1, 1,10
649,128320199511.26044,99999999999999.0,27,15,20,-99999999999999.0, 1, 1,10
4,334,11
11,10443671219.623486,99999999999999.0,11,19,10,-99999999999999.0,25,14,20
23,896026026.9462429,99999999999999.0, 1, 1,10,-99999999999999.0, 6,11,60
59,893160000.0,99999999999999.0, 1, 1,10,-99999999999999.0, 1, 8,10
521,9547645192.677214,99999999999999.0,27,15,20,-99999999999999.0,25,14,20
637,147601574198.06766,99999999999999.0,27,15,20,-99999999999999.0, 1, 1,10
649,147601574198.06766,99999999999999.0,27,15,20,-99999999999999.0, 1, 1,10
4,365,12
11,10425793124.803707,99999999999999.0,11,19,10,-99999999999999.0,25,14,20
23,936842504.4198718,99999999999999.0, 1, 1,10,-99999999999999.0, 6,11,60
59,933840000.0,99999999999999.0, 1, 1,10,-99999999999999.0, 1, 8,10
521,9488950620.383821,99999999999999.0,27,15,20,-99999999999999.0,25,14,20
637,179815363826.61697,99999999999999.0,27,15,20,-99999999999999.0, 1, 1,10
649,179815363826.61697,99999999999999.0,27,15,20,-99999999999999.0, 1, 1,10
5,365
13,102570746451.04501,30000.0, 4,11,19,10,3224680.9449718096, 9,25,14,20
25,11103420911.318672,30000.0, 1, 1, 1,10,629567.0084612689, 8, 6,11,60
61,11066760000.0,30000.0, 1, 1, 1,10,600000.0, 1, 1, 8,10
523,91467325539.74017,0.0, 3,27,15,20,2622406.32041128, 9,25,14,20
639,1317672111699.8552,0.0, 3,27,15,20,41250000.0, 1, 1, 1,10
651,1317672111699.8552,0.0, 3,27,15,20,41250000.0, 1, 1, 1,10
1,RUN PERIOD 2,  41.98, -87.92,  -6.00, 201.00
4,1, 7
11,90459107.93117668,99999999999999.0,11,19,10,-99999999999999.0,25,14,20
23,40816477.47363179,99999999999999.0, 1, 1,10,-99999999999999.0, 6,11,60
59,40680000.0,99999999999999.0, 1, 1,10,-99999999999999.0, 1, 8,10
521,49642630.45754481,99999999999999.0,27,15,20,-99999999999999.0,25,14,20
637,0.0,99999999999999.0,27,15,20,-99999999999999.0, 1, 1,10
649,0.0,99999999999999.0,27,15,20,-99999999999999.0, 1, 1,10
5,1
13,90459107.93117668,99999999999999.0, 4,11,19,10,-99999999999999.0, 9,25,14,20
25,40816477.47363179,99999999999999.0, 1, 1, 1,10,-99999999999999.0, 8, 6,11,60
61,40680000.0,99999999999999.0, 1, 1, 1,10,-99999999999999.0, 1, 1, 8,10
523,49642630.45754481,99999999999999.0, 3,27,15,20,-99999999999999.0, 9,25,14,20
639,0.0,99999999999999.0, 3,27,15,20,-99999999999999.0, 1, 1, 1,10
651,0.0,99999999999999.0, 3,27,15,20,-99999999999999.0, 1, 1, 1,10
End of Data
 Number of Records Written=          90
