Program Version,EnergyPlus, Version 24.2.0-94a887817b, YMD=2025.02.04 15:39
1,5,Environment Title[],Latitude[deg],Longitude[deg],Time Zone[],Elevation[m]
2,8,Day of Simulation[],Month[],Day of Month[],DST Indicator[1=yes 0=no],Hour[],StartMinute[],EndMinute[],DayType
3,5,Cumulative Day of Simulation[],Month[],Day of Month[],DST Indicator[1=yes 0=no],DayType  ! When Daily Report Variables Requested
4,2,Cumulative Days of Simulation[],Month[]  ! When Monthly Report Variables Requested
5,1,Cumulative Days of Simulation[] ! When Run Period Report Variables Requested
6,1,Calendar Year of Simulation[] ! When Annual Report Variables Requested
250,1,LIVING ZONE,Zone Air Temperature [C] !TimeStep,REPORTSCH
251,1,LIVING ZONE,Zone Air System Sensible Heating Energy [J] !TimeStep,REPORTSCH
336,1,LIVING ZONE,Zone Air System Sensible Cooling Energy [J] !TimeStep,REPORTSCH
385,1,LIVING ZONE,Zone Thermostat Heating Setpoint Temperature [C] !TimeStep,REPORTSCH
386,1,LIVING ZONE,Zone Thermostat Cooling Setpoint Temperature [C] !TimeStep,REPORTSCH
387,1,GARAGE ZONE,Zone Air Temperature [C] !TimeStep,REPORTSCH
388,1,GARAGE ZONE,Zone Air System Sensible Heating Energy [J] !TimeStep,REPORTSCH
425,1,GARAGE ZONE,Zone Air System Sensible Cooling Energy [J] !TimeStep,REPORTSCH
450,1,GARAGE ZONE,Zone Thermostat Heating Setpoint Temperature [C] !TimeStep,REPORTSCH
451,1,GARAGE ZONE,Zone Thermostat Cooling Setpoint Temperature [C] !TimeStep,REPORTSCH
452,1,ATTIC ZONE,Zone Air Temperature [C] !TimeStep,REPORTSCH
453,1,ATTIC ZONE,Zone Air System Sensible Heating Energy [J] !TimeStep,REPORTSCH
490,1,ATTIC ZONE,Zone Air System Sensible Cooling Energy [J] !TimeStep,REPORTSCH
515,1,ATTIC ZONE,Zone Thermostat Heating Setpoint Temperature [C] !TimeStep,REPORTSCH
516,1,ATTIC ZONE,Zone Thermostat Cooling Setpoint Temperature [C] !TimeStep,REPORTSCH
542,1,ACDXCOIL 1,Cooling Coil Total Cooling Energy [J] !TimeStep,REPORTSCH
592,1,HEAT PUMP DX HEATING COIL 1,Heating Coil Heating Energy [J] !TimeStep,REPORTSCH
632,1,SUPP HEATING COIL 1,Heating Coil Heating Energy [J] !TimeStep,REPORTSCH
686,1,TWOSPEED HEAT PUMP 1,Unitary System DX Coil Cycling Ratio [] !TimeStep,REPORTSCH
687,1,TWOSPEED HEAT PUMP 1,Unitary System DX Coil Speed Ratio [] !TimeStep,REPORTSCH
688,1,TWOSPEED HEAT PUMP 1,Unitary System DX Coil Speed Level [] !TimeStep,REPORTSCH
End of Data Dictionary
1,RUN PERIOD 1,  41.98, -87.92,  -6.00, 201.00
2,21, 1,21, 0, 1, 0.00,10.00,Monday
250,-0.4544677419590352
251,37924950.55427687
336,0.0
385,21.833332489598384
386,28.785597081042553
387,-0.9394766133462664
388,0.0
425,0.0
450,0.0
451,0.0
452,-1.9662112441565747
453,0.0
490,0.0
515,0.0
516,0.0
542,0.0
592,4839743.985079642
632,32827707.30347488
686,1.0
687,1.0
688,2.0
2,21, 1,21, 0, 1,10.00,20.00,Monday
250,-0.45451378150015825
251,37926579.24106671
336,0.0
385,21.833332489598384
386,28.785597081042553
387,-0.9478579745513559
388,0.0
425,0.0
450,0.0
451,0.0
452,-1.948101806610812
453,0.0
490,0.0
515,0.0
516,0.0
542,0.0
592,4823801.676011796
632,32843861.352800924
686,1.0
687,1.0
688,2.0
2,21, 1,21, 0, 1,20.00,30.00,Monday
250,-0.45470877913107166
251,37928347.37013251
336,0.0
385,21.833332489598384
386,28.785597081042553
387,-0.9574678018282775
388,0.0
425,0.0
450,0.0
451,0.0
452,-1.9450123332308726
453,0.0
490,0.0
515,0.0
516,0.0
542,0.0
592,4807858.162905221
632,32861492.80429702
686,1.0
687,1.0
688,2.0
2,21, 1,21, 0, 1,30.00,40.00,Monday
250,-0.45486842373005665
251,37930076.216645025
336,0.0
385,21.833332489598384
386,28.785597081042553
387,-0.9685109089619671
388,0.0
425,0.0
450,0.0
451,0.0
452,-1.9578627753817766
453,0.0
490,0.0
515,0.0
516,0.0
542,0.0
592,4791913.445623511
632,32879185.396199066
686,1.0
687,1.0
688,2.0
2,21, 1,21, 0, 1,40.00,50.00,Monday
250,-0.45503543608458397
251,37931812.59202543
336,0.0
385,21.833332489598384
386,28.785597081042553
387,-0.9811448520077777
388,0.0
425,0.0
450,0.0
451,0.0
452,-1.9850373137082369
453,0.0
490,0.0
515,0.0
516,0.0
542,0.0
592,4775967.524030241
632,32896863.722765666
686,1.0
687,1.0
688,2.0
2,21, 1,21, 0, 1,50.00,60.00,Monday
250,-0.45520339640521973
251,37933550.20823651
336,0.0
385,21.833332489598384
386,28.785597081042553
387,-0.9955586002729345
388,0.0
425,0.0
450,0.0
451,0.0
452,-2.0250016771056965
453,0.0
490,0.0
515,0.0
516,0.0
542,0.0
592,4760020.397988958
632,32914547.950722143
686,1.0
687,1.0
688,2.0
2,21, 1,21, 0, 2, 0.00,10.00,Monday
250,-0.4553611086342878
251,37935282.348911434
336,0.0
385,21.833332489598384
386,28.785597081042553
387,-1.011073650987032
388,0.0
425,0.0
450,0.0
451,0.0
452,-2.071717264604549
453,0.0
490,0.0
515,0.0
516,0.0
542,0.0
592,4760020.397988958
632,32916285.605350476
686,1.0
687,1.0
688,2.0
2,21, 1,21, 0, 2,10.00,20.00,Monday
250,-0.4555423135189439
251,37935422.67107581
336,0.0
385,21.833332489598384
386,28.785597081042553
387,-1.0267515343230011
388,0.0
425,0.0
450,0.0
451,0.0
452,-2.1144103900860496
453,0.0
490,0.0
515,0.0
516,0.0
542,0.0
592,4760020.397988959
632,32916413.27825358
686,1.0
687,1.0
688,2.0
2,21, 1,21, 0, 2,20.00,30.00,Monday
250,-0.4557233492405072
251,37935503.69863776
336,0.0
385,21.833332489598384
386,28.785597081042553
387,-1.0420407804473233
388,0.0
425,0.0
450,0.0
451,0.0
452,-2.1458552994225393
453,0.0
490,0.0
515,0.0
516,0.0
542,0.0
592,4760020.397988956
632,32916494.396940388
686,1.0
687,1.0
688,2.0
2,21, 1,21, 0, 2,30.00,40.00,Monday
250,-0.4559005181855214
251,37935603.03338979
336,0.0
385,21.833332489598384
386,28.785597081042553
387,-1.0566203864700334
388,0.0
425,0.0
450,0.0
451,0.0
452,-2.165232963412917
453,0.0
490,0.0
515,0.0
516,0.0
542,0.0
592,4760020.397988956
632,32916595.813672576
686,1.0
687,1.0
688,2.0
2,21, 1,21, 0, 2,40.00,50.00,Monday
250,-0.45607510369758325
251,37935697.54607221
336,0.0
385,21.833332489598384
386,28.785597081042553
387,-1.0703495428850018
388,0.0
425,0.0
450,0.0
451,0.0
452,-2.175376336046111
453,0.0
490,0.0
515,0.0
516,0.0
542,0.0
592,4760020.397988958
632,32916691.717352714
686,1.0
687,1.0
688,2.0
2,21, 1,21, 0, 2,50.00,60.00,Monday
250,-0.4562465850159872
251,37935789.78879492
336,0.0
385,21.833332489598384
386,28.785597081042553
387,-1.0831903777339762
388,0.0
425,0.0
450,0.0
451,0.0
452,-2.17943174389928
453,0.0
490,0.0
515,0.0
516,0.0
542,0.0
592,4760020.397988958
632,32916785.631468095
686,1.0
687,1.0
688,2.0
2,21, 1,21, 0, 3, 0.00,10.00,Monday
250,-0.37538172910898066
251,37892249.688509345
336,0.0
385,21.833332489598384
386,28.785597081042553
387,-1.0847611315543715
388,0.0
425,0.0
450,0.0
451,0.0
452,-2.1719782351325674
453,0.0
490,0.0
515,0.0
516,0.0
542,0.0
592,4762558.894114006
632,32914339.467998393
686,1.0
687,1.0
688,2.0
2,21, 1,21, 0, 3,10.00,20.00,Monday
250,-0.2922593172977175
251,37849013.52059434
336,0.0
385,21.833332489598384
386,28.785597081042553
387,-1.0737640368248396
388,0.0
425,0.0
450,0.0
451,0.0
452,-2.1470368919477663
453,0.0
490,0.0
515,0.0
516,0.0
542,0.0
592,4764988.4357309695
632,32869891.092161343
686,1.0
687,1.0
688,2.0
2,21, 1,21, 0, 3,20.00,30.00,Monday
250,-0.21014519581157026
251,37806382.681131735
336,0.0
385,21.833332489598384
386,28.785597081042553
387,-1.0546184737543818
388,0.0
425,0.0
450,0.0
451,0.0
452,-2.1031530725989436
453,0.0
490,0.0
515,0.0
516,0.0
542,0.0
592,4767308.250738335
632,32824399.373854417
686,1.0
687,1.0
688,2.0
2,21, 1,21, 0, 3,30.00,40.00,Monday
250,-0.1277952786219925
251,37763612.295886315
336,0.0
385,21.833332489598384
386,28.785597081042553
387,-1.031124513296517
388,0.0
425,0.0
450,0.0
451,0.0
452,-2.043452021514061
453,0.0
490,0.0
515,0.0
516,0.0
542,0.0
592,4769517.689516205
632,32779548.366935026
686,1.0
687,1.0
688,2.0
2,21, 1,21, 0, 3,40.00,50.00,Monday
250,-0.045377479383352674
251,37720815.22088995
336,0.0
385,21.833332489598384
386,28.785597081042553
387,-1.0045976227400055
388,0.0
425,0.0
450,0.0
451,0.0
452,-1.9724153207910893
453,0.0
490,0.0
515,0.0
516,0.0
542,0.0
592,4771616.115684974
632,32734691.284629777
686,1.0
687,1.0
688,2.0
2,21, 1,21, 0, 3,50.00,60.00,Monday
250,0.037078062075169504
251,37678005.048379265
336,0.0
385,21.833332489598384
386,28.785597081042553
387,-0.9748550248250069
388,0.0
425,0.0
450,0.0
451,0.0
452,-1.8936633278033375
453,0.0
490,0.0
515,0.0
516,0.0
542,0.0
592,4773602.736238396
632,32689916.694837548
686,1.0
687,1.0
688,2.0
2,21, 1,21, 0, 4, 0.00,10.00,Monday
250,0.03853147649178556
251,37678826.424106605
336,0.0
385,21.833332489598384
386,28.785597081042553
387,-0.9523191300658425
388,0.0
425,0.0
450,0.0
451,0.0
452,-1.8174807124536103
453,0.0
490,0.0
515,0.0
516,0.0
542,0.0
592,4773428.98237163
632,32647288.77188319
686,1.0
687,1.0
688,2.0
2,21, 1,21, 0, 4,10.00,20.00,Monday
250,0.03774978284474866
251,37679326.60684021
336,0.0
385,21.833332489598384
386,28.785597081042553
387,-0.9396921812004546
388,0.0
425,0.0
450,0.0
451,0.0
452,-1.7529015188104566
453,0.0
490,0.0
515,0.0
516,0.0
542,0.0
592,4773255.169447958
632,32646759.014782727
686,1.0
687,1.0
688,2.0
2,21, 1,21, 0, 4,20.00,30.00,Monday
250,0.038024240944544103
251,37679201.56523542
336,0.0
385,21.833332489598384
386,28.785597081042553
387,-0.9336217689480653
388,0.0
425,0.0
450,0.0
451,0.0
452,-1.703535270845735
453,0.0
490,0.0
515,0.0
516,0.0
542,0.0
592,4773081.29743726
632,32647376.65326359
686,1.0
687,1.0
688,2.0
2,21, 1,21, 0, 4,30.00,40.00,Monday
250,0.03810286687456397
251,37679201.40810766
336,0.0
385,21.833332489598384
386,28.785597081042553
387,-0.930348943560496
388,0.0
425,0.0
450,0.0
451,0.0
452,-1.6677331502831416
453,0.0
490,0.0
515,0.0
516,0.0
542,0.0
592,4772907.366309401
632,32647444.958594445
686,1.0
687,1.0
688,2.0
2,21, 1,21, 0, 4,40.00,50.00,Monday
250,0.03815255856735033
251,37679213.58986771
336,0.0
385,21.833332489598384
386,28.785597081042553
387,-0.9280951385683402
388,0.0
425,0.0
450,0.0
451,0.0
452,-1.6418285799611918
453,0.0
490,0.0
515,0.0
516,0.0
542,0.0
592,4772733.376034233
632,32647615.5476186
686,1.0
687,1.0
688,2.0
2,21, 1,21, 0, 4,50.00,60.00,Monday
250,0.03820632587228171
251,37679223.01990449
336,0.0
385,21.833332489598384
386,28.785597081042553
387,-0.9266451490202693
388,0.0
425,0.0
450,0.0
451,0.0
452,-1.622759355927697
453,0.0
490,0.0
515,0.0
516,0.0
542,0.0
592,4772559.326581575
632,32647801.2221319
686,1.0
687,1.0
688,2.0
2,21, 1,21, 0, 5, 0.00,10.00,Monday
250,0.03825699622452883
251,37679234.21629601
336,0.0
385,21.833332489598384
386,28.785597081042553
387,-0.9260272192536764
388,0.0
425,0.0
450,0.0
451,0.0
452,-1.6079077463460252
453,0.0
490,0.0
515,0.0
516,0.0
542,0.0
592,4759720.858689582
632,32660649.218521904
686,1.0
687,1.0
688,2.0
2,21, 1,21, 0, 5,10.00,20.00,Monday
250,0.0383273764461413
251,37680483.614388175
336,0.0
385,21.833332489598384
386,28.785597081042553
387,-0.9260979579505204
388,0.0
425,0.0
450,0.0
451,0.0
452,-1.5949634410764386
453,0.0
490,0.0
515,0.0
516,0.0
542,0.0
592,4746877.262331866
632,32674752.829393763
686,1.0
687,1.0
688,2.0
2,21, 1,21, 0, 5,20.00,30.00,Monday
250,0.03839884556097363
251,37681779.05880321
336,0.0
385,21.833332489598384
386,28.785597081042553
387,-0.9266297118252809
388,0.0
425,0.0
450,0.0
451,0.0
452,-1.5825243881120998
453,0.0
490,0.0
515,0.0
516,0.0
542,0.0
592,4734028.534436013
632,32688897.589531615
686,1.0
687,1.0
688,2.0
2,21, 1,21, 0, 5,30.00,40.00,Monday
250,0.03846979309437969
251,37683059.44716504
336,0.0
385,21.833332489598384
386,28.785597081042553
387,-0.9274210348724269
388,0.0
425,0.0
450,0.0
451,0.0
452,-1.570155470856239
453,0.0
490,0.0
515,0.0
516,0.0
542,0.0
592,4721174.671927155
632,32703031.56081231
686,1.0
687,1.0
688,2.0
2,21, 1,21, 0, 5,40.00,50.00,Monday
250,0.03854102647852492
251,37684342.87395704
336,0.0
385,21.833332489598384
386,28.785597081042553
387,-0.9283361840679477
388,0.0
425,0.0
450,0.0
451,0.0
452,-1.5579239188401135
453,0.0
490,0.0
515,0.0
516,0.0
542,0.0
592,4708315.671727969
632,32717174.143115785
686,1.0
687,1.0
688,2.0
2,21, 1,21, 0, 5,50.00,60.00,Monday
250,0.03861268189032613
251,37685627.063804485
336,0.0
385,21.833332489598384
386,28.785597081042553
387,-0.9292954614900398
388,0.0
425,0.0
450,0.0
451,0.0
452,-1.5459800799695684
453,0.0
490,0.0
515,0.0
516,0.0
542,0.0
592,4695451.530758676
632,32731322.702610146
686,1.0
687,1.0
688,2.0
2,21, 1,21, 0, 6, 0.00,10.00,Monday
250,0.038687766721864886
251,37686909.86117251
336,0.0
385,21.833332489598384
386,28.785597081042553
387,-0.9303847860611333
388,0.0
425,0.0
450,0.0
451,0.0
452,-1.5350172978553676
453,0.0
490,0.0
515,0.0
516,0.0
542,0.0
592,4695264.082255858
632,32732794.797203463
686,1.0
687,1.0
688,2.0
2,21, 1,21, 0, 6,10.00,20.00,Monday
250,0.03874269594898618
251,37686953.53465344
336,0.0
385,21.833332489598384
386,28.785597081042553
387,-0.931688144994504
388,0.0
425,0.0
450,0.0
451,0.0
452,-1.5258478414453438
453,0.0
490,0.0
515,0.0
516,0.0
542,0.0
592,4695076.569900009
632,32733015.125633504
686,1.0
687,1.0
688,2.0
2,21, 1,21, 0, 6,20.00,30.00,Monday
250,0.038796703670587816
251,37686951.53341064
336,0.0
385,21.833332489598384
386,28.785597081042553
387,-0.9332011931514832
388,0.0
425,0.0
450,0.0
451,0.0
452,-1.5188039224002137
453,0.0
490,0.0
515,0.0
516,0.0
542,0.0
592,4694888.993658494
632,32733200.20425359
686,1.0
687,1.0
688,2.0
2,21, 1,21, 0, 6,30.00,40.00,Monday
250,0.03885193227280867
251,37686964.76894775
336,0.0
385,21.833332489598384
386,28.785597081042553
387,-0.9348828774848013
388,0.0
425,0.0
450,0.0
451,0.0
452,-1.5136789468143788
453,0.0
490,0.0
515,0.0
516,0.0
542,0.0
592,4694701.35349866
632,32733401.737652827
686,1.0
687,1.0
688,2.0
2,21, 1,21, 0, 6,40.00,50.00,Monday
250,0.038907872027159826
251,37686974.963453464
336,0.0
385,21.833332489598384
386,28.785597081042553
387,-0.936701635786604
388,0.0
425,0.0
450,0.0
451,0.0
452,-1.5100217404849605
453,0.0
490,0.0
515,0.0
516,0.0
542,0.0
592,4694513.649387832
632,32733600.019388024
686,1.0
687,1.0
688,2.0
2,21, 1,21, 0, 6,50.00,60.00,Monday
250,0.038964620201036915
251,37686984.269457616
336,0.0
385,21.833332489598384
386,28.785597081042553
387,-0.9386404088083414
388,0.0
425,0.0
450,0.0
451,0.0
452,-1.5074112665913828
453,0.0
490,0.0
515,0.0
516,0.0
542,0.0
592,4694325.88129331
632,32733797.529002335
686,1.0
687,1.0
688,2.0
2,21, 1,21, 0, 7, 0.00,10.00,Monday
250,0.037511617718988075
251,37687806.9403804
336,0.0
385,21.833332489598384
386,28.785597081042553
387,-0.9431262566988818
388,0.0
425,0.0
450,0.0
451,0.0
452,-1.5107127421615532
453,0.0
490,0.0
515,0.0
516,0.0
542,0.0
592,4723573.583255435
632,32704559.21658469
686,1.0
687,1.0
688,2.0
2,21, 1,21, 0, 7,10.00,20.00,Monday
250,0.03754050300225568
251,37684949.15061237
336,0.0
385,21.833332489598384
386,28.785597081042553
387,-0.952336794320191
388,0.0
425,0.0
450,0.0
451,0.0
452,-1.5293932463443178
453,0.0
490,0.0
515,0.0
516,0.0
542,0.0
592,4752837.186047653
632,32673236.09491501
686,1.0
687,1.0
688,2.0
2,21, 1,21, 0, 7,20.00,30.00,Monday
250,0.03764040298949817
251,37681945.14272795
336,0.0
385,21.833332489598384
386,28.785597081042553
387,-0.966512893507737
388,0.0
425,0.0
450,0.0
451,0.0
452,-1.5688296431192381
453,0.0
490,0.0
515,0.0
516,0.0
542,0.0
592,4782116.702651945
632,32640990.81794937
686,1.0
687,1.0
688,2.0
2,21, 1,21, 0, 7,30.00,40.00,Monday
250,0.03772041026681369
251,37678986.87145174
336,0.0
385,21.833332489598384
386,28.785597081042553
387,-0.9846979639550075
388,0.0
425,0.0
450,0.0
451,0.0
452,-1.6266561357435811
453,0.0
490,0.0
515,0.0
516,0.0
542,0.0
592,4811412.146064443
632,32608726.385651298
686,1.0
687,1.0
688,2.0
2,21, 1,21, 0, 7,40.00,50.00,Monday
250,0.03780540457771167
251,37676018.181271136
336,0.0
385,21.833332489598384
386,28.785597081042553
387,-1.005811840057567
388,0.0
425,0.0
450,0.0
451,0.0
452,-1.6966180345691033
453,0.0
490,0.0
515,0.0
516,0.0
542,0.0
592,4840723.5292954575
632,32576448.994512785
686,1.0
687,1.0
688,2.0
2,21, 1,21, 0, 7,50.00,60.00,Monday
250,0.037892631339460595
251,37673045.63593952
336,0.0
385,21.833332489598384
386,28.785597081042553
387,-1.0291068368769
388,0.0
425,0.0
450,0.0
451,0.0
452,-1.7730143920784387
453,0.0
490,0.0
515,0.0
516,0.0
542,0.0
592,4870050.865369484
632,32544150.311678346
686,1.0
687,1.0
688,2.0
2,21, 1,21, 0, 8, 0.00,10.00,Monday
250,0.2385575287994043
251,37562073.43001223
336,0.0
385,21.833332489598384
386,28.785597081042553
387,-1.0251497210757632
388,0.0
425,0.0
450,0.0
451,0.0
452,-1.8319886461785946
453,0.0
490,0.0
515,0.0
516,0.0
542,0.0
592,4889730.300311493
632,32521496.909860883
686,1.0
687,1.0
688,2.0
2,21, 1,21, 0, 8,10.00,20.00,Monday
250,0.43939589531659834
251,37456159.02708965
336,0.0
385,21.833332489598384
386,28.785597081042553
387,-0.9834322918942349
388,0.0
425,0.0
450,0.0
451,0.0
452,-1.8232438149844414
453,0.0
490,0.0
515,0.0
516,0.0
542,0.0
592,4909380.719869504
632,32396031.911197424
686,1.0
687,1.0
688,2.0
2,21, 1,21, 0, 8,20.00,30.00,Monday
250,0.6371063582402929
251,37352117.74330471
336,0.0
385,21.833332489598384
386,28.785597081042553
387,-0.9123257545601217
388,0.0
425,0.0
450,0.0
451,0.0
452,-1.7159777722177698
453,0.0
490,0.0
515,0.0
516,0.0
542,0.0
592,4929009.6156952735
632,32270684.352021888
686,1.0
687,1.0
688,2.0
2,21, 1,21, 0, 8,30.00,40.00,Monday
250,0.8356840654583481
251,37247543.301900305
336,0.0
385,21.833332489598384
386,28.785597081042553
387,-0.8218506391116072
388,0.0
425,0.0
450,0.0
451,0.0
452,-1.5206947029595952
453,0.0
490,0.0
515,0.0
516,0.0
542,0.0
592,4952863.646772657
632,32142729.6695309
686,1.0
687,1.0
688,2.0
2,21, 1,21, 0, 8,40.00,50.00,Monday
250,1.0343792610844371
251,37142511.27213323
336,0.0
385,21.833332489598384
386,28.785597081042553
387,-0.7200313887576728
388,0.0
425,0.0
450,0.0
451,0.0
452,-1.244772607441272
453,0.0
490,0.0
515,0.0
516,0.0
542,0.0
592,4977062.298687914
632,32013567.943159144
686,1.0
687,1.0
688,2.0
2,21, 1,21, 0, 8,50.00,60.00,Monday
250,1.2342044547772169
251,37037784.464396864
336,0.0
385,21.833332489598384
386,28.785597081042553
387,-0.6240262209282834
388,0.0
425,0.0
450,0.0
451,0.0
452,-0.9314603340003613
453,0.0
490,0.0
515,0.0
516,0.0
542,0.0
592,5001395.306277513
632,31832478.643877506
686,1.0
687,1.0
688,2.0
2,21, 1,21, 0, 9, 0.00,10.00,Monday
250,1.4990601312559404
251,36899056.672376335
336,0.0
385,21.833332489598384
386,28.785597081042553
387,-0.4855044210706422
388,0.0
425,0.0
450,0.0
451,0.0
452,-0.45178991704819393
453,0.0
490,0.0
515,0.0
516,0.0
542,0.0
592,5029363.153609448
632,31682657.75336156
686,1.0
687,1.0
688,2.0
2,21, 1,21, 0, 9,10.00,20.00,Monday
250,1.7636790323904719
251,36759532.844289124
336,0.0
385,21.833332489598384
386,28.785597081042553
387,-0.3345798565295226
388,0.0
425,0.0
450,0.0
451,0.0
452,0.07245815286986318
453,0.0
490,0.0
515,0.0
516,0.0
542,0.0
592,5057356.862312016
632,31515060.201372907
686,1.0
687,1.0
688,2.0
2,21, 1,21, 0, 9,20.00,30.00,Monday
250,2.0284936806853264
251,36619896.099407
336,0.0
385,21.833332489598384
386,28.785597081042553
387,-0.17467329128071662
388,0.0
425,0.0
450,0.0
451,0.0
452,0.6371359485645027
453,0.0
490,0.0
515,0.0
516,0.0
542,0.0
592,5085392.284952975
632,31347441.066364825
686,1.0
687,1.0
688,2.0
2,21, 1,21, 0, 9,30.00,40.00,Monday
250,2.2932020513400584
251,36480315.245480165
336,0.0
385,21.833332489598384
386,28.785597081042553
387,-0.004978826583699868
388,0.0
425,0.0
450,0.0
451,0.0
452,1.2317639794259367
453,0.0
490,0.0
515,0.0
516,0.0
542,0.0
592,5113485.892141593
632,31179739.117503133
686,1.0
687,1.0
688,2.0
2,21, 1,21, 0, 9,40.00,50.00,Monday
250,2.558382316716362
251,36339519.544892296
336,0.0
385,21.8333324895984
386,28.785597081042578
387,0.14011943992934403
388,0.0
425,0.0
450,0.0
451,0.0
452,1.7336575389597226
453,0.0
490,0.0
515,0.0
516,0.0
542,0.0
592,5141654.529350725
632,30986708.05068283
686,1.0000000000000009
687,1.0000000000000009
688,2.0000000000000018
2,21, 1,21, 0, 9,50.00,60.00,Monday
250,2.8236412278034853
251,36199096.23359254
336,0.0
385,21.833332489598384
386,28.785597081042553
387,0.29224464760208446
388,0.0
425,0.0
450,0.0
451,0.0
452,2.2743271303859287
453,0.0
490,0.0
515,0.0
516,0.0
542,0.0
592,5169915.672059795
632,30843306.450465105
686,1.0
687,1.0
688,2.0
2,21, 1,21, 0,10, 0.00,10.00,Monday
250,3.2835296240139473
251,35955106.67704212
336,0.0
385,21.833332489598384
386,28.785597081042553
387,0.48267868164615396
388,0.0
425,0.0
450,0.0
451,0.0
452,2.8338341269173997
453,0.0
490,0.0
515,0.0
516,0.0
542,0.0
592,5241404.10703412
632,30537678.549010225
686,1.0
687,1.0
688,2.0
2,21, 1,21, 0,10,10.00,20.00,Monday
250,3.7449510536978217
251,35710887.84942497
336,0.0
385,21.833332489598384
386,28.785597081042553
387,0.7737301834485624
388,0.0
425,0.0
450,0.0
451,0.0
452,3.5887562419782344
453,0.0
490,0.0
515,0.0
516,0.0
542,0.0
592,5315291.857316207
632,30218888.5750605
686,1.0
687,1.0
688,2.0
2,21, 1,21, 0,10,20.00,30.00,Monday
250,4.20697918083556
251,35465089.105093606
336,0.0
385,21.833332489598373
386,28.78559708104254
387,1.0541516655782337
388,0.0
425,0.0
450,0.0
451,0.0
452,4.277944738782392
453,0.0
490,0.0
515,0.0
516,0.0
542,0.0
592,5391793.298050374
632,29896740.479301184
686,0.9999999999999996
687,0.9999999999999996
688,1.9999999999999991
2,21, 1,21, 0,10,30.00,40.00,Monday
250,4.669327343433731
251,35218985.25930474
336,0.0
385,21.83333248959839
386,28.785597081042564
387,1.3359454605715002
388,0.0
425,0.0
450,0.0
451,0.0
452,4.97950455772322
453,0.0
490,0.0
515,0.0
516,0.0
542,0.0
592,5471132.199313744
632,29571399.353877
686,1.0000000000000004
687,1.0000000000000004
688,2.000000000000001
2,21, 1,21, 0,10,40.00,50.00,Monday
250,5.132125766474298
251,34972498.738033764
336,0.0
385,21.8333324895984
386,28.785597081042578
387,1.6261061749021568
388,0.0
425,0.0
450,0.0
451,0.0
452,5.743525057840735
453,0.0
490,0.0
515,0.0
516,0.0
542,0.0
592,5553542.3757593315
632,29242630.202769335
686,1.0000000000000009
687,1.0000000000000009
688,2.0000000000000018
2,21, 1,21, 0,10,50.00,60.00,Monday
250,5.594953799548135
251,34725849.57018948
336,0.0
385,21.8333324895984
386,28.785597081042578
387,1.926350421766815
388,0.0
425,0.0
450,0.0
451,0.0
452,6.572664648030493
453,0.0
490,0.0
515,0.0
516,0.0
542,0.0
592,5639267.778995938
632,28910309.609330177
686,1.0000000000000009
687,1.0000000000000009
688,2.0000000000000018
2,21, 1,21, 0,11, 0.00,10.00,Monday
250,5.878538899195681
251,34574944.55650452
336,0.0
385,21.833332489598384
386,28.785597081042553
387,2.2128774633831503
388,0.0
425,0.0
450,0.0
451,0.0
452,7.427916458102496
453,0.0
490,0.0
515,0.0
516,0.0
542,0.0
592,5689519.861596226
632,28677100.21250409
686,1.0
687,1.0
688,2.0
2,21, 1,21, 0,11,10.00,20.00,Monday
250,6.160892823184062
251,34424634.93216339
336,0.0
385,21.833332489598384
386,28.785597081042553
387,2.4826574347960024
388,0.0
425,0.0
450,0.0
451,0.0
452,8.278482382884341
453,0.0
490,0.0
515,0.0
516,0.0
542,0.0
592,5740969.350869595
632,28475123.685590655
686,1.0
687,1.0
688,2.0
2,21, 1,21, 0,11,20.00,30.00,Monday
250,6.443279486690482
251,34274260.0736079
336,0.0
385,21.833332489598373
386,28.78559708104254
387,2.7548218242696465
388,0.0
425,0.0
450,0.0
451,0.0
452,9.125136875389078
453,0.0
490,0.0
515,0.0
516,0.0
542,0.0
592,5793671.095282218
632,28272069.03123079
686,0.9999999999999996
687,0.9999999999999996
688,1.9999999999999991
2,21, 1,21, 0,11,30.00,40.00,Monday
250,6.725181694899623
251,34124093.36915544
336,0.0
385,21.83333248959839
386,28.785597081042564
387,3.0321579644941323
388,0.0
425,0.0
450,0.0
451,0.0
452,9.947172786179795
453,0.0
490,0.0
515,0.0
516,0.0
542,0.0
592,5847681.427966583
632,28067822.011964
686,1.0000000000000004
687,1.0000000000000004
688,2.000000000000001
2,21, 1,21, 0,11,40.00,50.00,Monday
250,7.006866524138043
251,33973990.184847265
336,0.0
385,21.8333324895984
386,28.785597081042578
387,3.3112644410368963
388,0.0
425,0.0
450,0.0
451,0.0
452,10.69268249141431
453,0.0
490,0.0
515,0.0
516,0.0
542,0.0
592,5903058.082199926
632,27862320.769801237
686,1.0000000000000009
687,1.0000000000000009
688,2.0000000000000018
2,21, 1,21, 0,11,50.00,60.00,Monday
250,7.288257127088632
251,33823990.514209084
336,0.0
385,21.8333324895984
386,28.785597081042578
387,3.588288677835459
388,0.0
425,0.0
450,0.0
451,0.0
452,11.328347375650843
453,0.0
490,0.0
515,0.0
516,0.0
542,0.0
592,5959860.237244541
632,27655484.16851051
686,1.0000000000000009
687,1.0000000000000009
688,2.0000000000000018
2,21, 1,21, 0,12, 0.00,10.00,Monday
250,7.554833478242477
251,33681888.40945068
336,0.0
385,21.833332489598384
386,28.785597081042553
387,3.8282742586111853
388,0.0
425,0.0
450,0.0
451,0.0
452,11.827526628043547
453,0.0
490,0.0
515,0.0
516,0.0
542,0.0
592,5991096.197635707
632,27505328.463401485
686,1.0
687,1.0
688,2.0
2,21, 1,21, 0,12,10.00,20.00,Monday
250,7.818627925544753
251,33544754.999965977
336,0.0
385,21.833332489598384
386,28.785597081042553
387,4.120658352976419
388,0.0
425,0.0
450,0.0
451,0.0
452,12.391523234691928
453,0.0
490,0.0
515,0.0
516,0.0
542,0.0
592,7572016.881221028
632,25785302.83241891
686,1.0
687,1.0
688,2.0
2,21, 1,21, 0,12,20.00,30.00,Monday
250,8.083863575720699
251,33405148.683018304
336,0.0
385,21.833332489598384
386,28.785597081042553
387,4.3897749900555425
388,0.0
425,0.0
450,0.0
451,0.0
452,12.90699987066015
453,0.0
490,0.0
515,0.0
516,0.0
542,0.0
592,7609409.155487608
632,25608664.87081972
686,1.0
687,1.0
688,2.0
2,21, 1,21, 0,12,30.00,40.00,Monday
250,8.348881554728166
251,33265662.089843117
336,0.0
385,21.833332489598384
386,28.785597081042553
387,4.648584284256954
388,0.0
425,0.0
450,0.0
451,0.0
452,13.398459883296574
453,0.0
490,0.0
515,0.0
516,0.0
542,0.0
592,7646583.592010483
632,25431945.171129044
686,1.0
687,1.0
688,2.0
2,21, 1,21, 0,12,40.00,50.00,Monday
250,8.613833125881573
251,33126210.91189891
336,0.0
385,21.833332489598384
386,28.785597081042553
387,4.903007679056065
388,0.0
425,0.0
450,0.0
451,0.0
452,13.840253183963636
453,0.0
490,0.0
515,0.0
516,0.0
542,0.0
592,7683540.190789654
632,25255519.42315022
686,1.0
687,1.0
688,2.0
2,21, 1,21, 0,12,50.00,60.00,Monday
250,8.878762482790666
251,32986770.9211654
336,0.0
385,21.833332489598384
386,28.785597081042553
387,5.1519523619994985
388,0.0
425,0.0
450,0.0
451,0.0
452,14.208088247767797
453,0.0
490,0.0
515,0.0
516,0.0
542,0.0
592,7720278.951825121
632,25079335.17537141
686,1.0
687,1.0
688,2.0
2,21, 1,21, 0,13, 0.00,10.00,Monday
250,9.061306657969949
251,32888430.20647693
336,0.0
385,21.833332489598384
386,28.785597081042553
387,5.384335486896555
388,0.0
425,0.0
450,0.0
451,0.0
452,14.499365314187374
453,0.0
490,0.0
515,0.0
516,0.0
542,0.0
592,7745410.487127082
632,24978632.069629636
686,1.0
687,1.0
688,2.0
2,21, 1,21, 0,13,10.00,20.00,Monday
250,9.243031345603985
251,32794319.052439377
336,0.0
385,21.833332489598384
386,28.785597081042553
387,5.603114022616281
388,0.0
425,0.0
450,0.0
451,0.0
452,14.728605011169423
453,0.0
490,0.0
515,0.0
516,0.0
542,0.0
592,7770439.060057996
632,24863076.69292441
686,1.0
687,1.0
688,2.0
2,21, 1,21, 0,13,20.00,30.00,Monday
250,9.425851940605083
251,32699798.422742188
336,0.0
385,21.833332489598384
386,28.785597081042553
387,5.808005640731092
388,0.0
425,0.0
450,0.0
451,0.0
452,14.911763688184408
453,0.0
490,0.0
515,0.0
516,0.0
542,0.0
592,7795364.67061786
632,24744234.534596458
686,1.0
687,1.0
688,2.0
2,21, 1,21, 0,13,30.00,40.00,Monday
250,9.608392822618386
251,32605456.308844354
336,0.0
385,21.833332489598384
386,28.785597081042553
387,6.003029980304955
388,0.0
425,0.0
450,0.0
451,0.0
452,15.060645176367444
453,0.0
490,0.0
515,0.0
516,0.0
542,0.0
592,7820187.318806683
632,24624931.46707073
686,1.0
687,1.0
688,2.0
2,21, 1,21, 0,13,40.00,50.00,Monday
250,9.790817927373073
251,32511210.298860345
336,0.0
385,21.833332489598384
386,28.785597081042553
387,6.191936361353861
388,0.0
425,0.0
450,0.0
451,0.0
452,15.17994308249888
453,0.0
490,0.0
515,0.0
516,0.0
542,0.0
592,7844907.0046244515
632,24505916.125983387
686,1.0
687,1.0
688,2.0
2,21, 1,21, 0,13,50.00,60.00,Monday
250,9.97327791969154
251,32416978.531249918
336,0.0
385,21.833332489598384
386,28.785597081042553
387,6.37602535544022
388,0.0
425,0.0
450,0.0
451,0.0
452,15.273304687320943
453,0.0
490,0.0
515,0.0
516,0.0
542,0.0
592,7869523.72807117
632,24387099.51732533
686,1.0
687,1.0
688,2.0
2,21, 1,21, 0,14, 0.00,10.00,Monday
250,10.173083221706769
251,32313411.35127318
336,0.0
385,21.833332489598384
386,28.785597081042553
387,6.5581343631817095
388,0.0
425,0.0
450,0.0
451,0.0
452,15.329344466087512
453,0.0
490,0.0
515,0.0
516,0.0
542,0.0
592,7896260.907308882
632,24266176.843385067
686,1.0
687,1.0
688,2.0
2,21, 1,21, 0,14,10.00,20.00,Monday
250,10.372089638148344
251,32209889.42682615
336,0.0
385,21.833332489598384
386,28.785597081042553
387,6.7383949106431595
388,0.0
425,0.0
450,0.0
451,0.0
452,15.329754503645631
453,0.0
490,0.0
515,0.0
516,0.0
542,0.0
592,7922875.552815756
632,24135622.014515143
686,1.0
687,1.0
688,2.0
2,21, 1,21, 0,14,20.00,30.00,Monday
250,10.570825955062793
251,32106516.336930886
336,0.0
385,21.833332489598384
386,28.785597081042553
387,6.914651014259907
388,0.0
425,0.0
450,0.0
451,0.0
452,15.274075685837785
453,0.0
490,0.0
515,0.0
516,0.0
542,0.0
592,7949367.664591794
632,24005624.221490256
686,1.0
687,1.0
688,2.0
2,21, 1,21, 0,14,30.00,40.00,Monday
250,10.769399008751392
251,32003258.732802957
336,0.0
385,21.833332489598384
386,28.785597081042553
387,7.080953209603086
388,0.0
425,0.0
450,0.0
451,0.0
452,15.151786111167342
453,0.0
490,0.0
515,0.0
516,0.0
542,0.0
592,7975737.242637001
632,23875922.317762885
686,1.0
687,1.0
688,2.0
2,21, 1,21, 0,14,40.00,50.00,Monday
250,10.967824488677373
251,31900102.365586545
336,0.0
385,21.833332489598384
386,28.785597081042553
387,7.233608110720861
388,0.0
425,0.0
450,0.0
451,0.0
452,14.943165905517624
453,0.0
490,0.0
515,0.0
516,0.0
542,0.0
592,8001984.286951372
632,23746452.8037122
686,1.0
687,1.0
688,2.0
2,21, 1,21, 0,14,50.00,60.00,Monday
250,11.166153998903685
251,31797020.067370556
336,0.0
385,21.833332489598384
386,28.785597081042553
387,7.372905167014737
388,0.0
425,0.0
450,0.0
451,0.0
452,14.6512597289512
453,0.0
490,0.0
515,0.0
516,0.0
542,0.0
592,8028108.797534912
632,23617207.928483613
686,1.0
687,1.0
688,2.0
2,21, 1,21, 0,15, 0.00,10.00,Monday
250,11.430668914663752