Program Version,EnergyPlus, Version 24.2.0-94a887817b, YMD=2025.02.04 15:39
1,5,Environment Title[],Latitude[deg],Longitude[deg],Time Zone[],Elevation[m]
2,8,Day of Simulation[],Month[],Day of Month[],DST Indicator[1=yes 0=no],Hour[],StartMinute[],EndMinute[],DayType
3,5,Cumulative Day of Simulation[],Month[],Day of Month[],DST Indicator[1=yes 0=no],DayType  ! When Daily Meters Requested
4,2,Cumulative Days of Simulation[],Month[]  ! When Monthly Meters Requested
5,1,Cumulative Days of Simulation[] ! When Run Period Meters Requested
6,1,Calendar Year of Simulation[] ! When Annual Meters Requested
11,9,Electricity:Facility [J] !Monthly [Value,Min,Day,Hour,Minute,Max,Day,Hour,Minute]
23,9,Electricity:Building [J] !Monthly [Value,Min,Day,Hour,Minute,Max,Day,Hour,Minute]
59,9,InteriorLights:Electricity [J] !Monthly [Value,Min,Day,Hour,Minute,Max,Day,Hour,Minute]
521,9,Electricity:HVAC [J] !Monthly [Value,Min,Day,Hour,Minute,Max,Day,Hour,Minute]
637,9,NaturalGas:Facility [J] !Monthly [Value,Min,Day,Hour,Minute,Max,Day,Hour,Minute]
649,9,NaturalGas:HVAC [J] !Monthly [Value,Min,Day,Hour,Minute,Max,Day,Hour,Minute]
13,11,Electricity:Facility [J] !RunPeriod [Value,Min,Month,Day,Hour,Minute,Max,Month,Day,Hour,Minute]
25,11,Electricity:Building [J] !RunPeriod [Value,Min,Month,Day,Hour,Minute,Max,Month,Day,Hour,Minute]
61,11,InteriorLights:Electricity [J] !RunPeriod [Value,Min,Month,Day,Hour,Minute,Max,Month,Day,Hour,Minute]
523,11,Electricity:HVAC [J] !RunPeriod [Value,Min,Month,Day,Hour,Minute,Max,Month,Day,Hour,Minute]
639,11,NaturalGas:Facility [J] !RunPeriod [Value,Min,Month,Day,Hour,Minute,Max,Month,Day,Hour,Minute]
651,11,NaturalGas:HVAC [J] !RunPeriod [Value,Min,Month,Day,Hour,Minute,Max,Month,Day,Hour,Minute]
End of Data Dictionary
1,RUN PERIOD 1,  41.98, -87.92,  -6.00, 201.00
4,31, 1
11,9830854591.681372,408891.4285714286, 5, 6,50,2985128.667644015,16,13,60
23,991804490.4504054,30000.0, 1, 1,10,615655.4278625906, 1, 9,10
59,970200000.0,30000.0, 1, 1,10,600000.0, 1, 8,10
521,8839050101.230986,378891.4285714286, 5, 6,50,2369473.239781425,16,13,60
637,178718631867.82993,28107028.378183935,21,16,10,41250000.0, 1, 1,20
649,178718631867.82993,28107028.378183935,21,16,10,41250000.0, 1, 1,20
4,59, 2
11,9363322634.498968,99999999999999.0, 5, 6,50,3026590.1079071374,22,15,30
23,866946513.4351301,99999999999999.0, 1, 1,10,-99999999999999.0, 1, 9,10
59,848160000.0,99999999999999.0, 1, 1,10,-99999999999999.0, 1, 8,10
521,8496376121.063895,99999999999999.0, 5, 6,50,2410934.680044547,22,15,30
637,158033776428.70044,26423561.859359883,23,12,10,-99999999999999.0, 1, 1,20
649,158033776428.70044,26423561.859359883,23,12,10,-99999999999999.0, 1, 1,20
4,90, 3
11,11019840092.40411,99999999999999.0, 5, 6,50,3283277.7925309353,27,16,10
23,917205839.1068888,99999999999999.0, 1, 1,10,-99999999999999.0, 1, 9,10
59,897480000.0,99999999999999.0, 1, 1,10,-99999999999999.0, 1, 8,10
521,10102634253.297224,99999999999999.0, 5, 6,50,2667622.3646683446,27,16,10
637,162185043443.87524,20884422.837713063,27,16,10,-99999999999999.0, 1, 1,20
649,162185043443.87524,20884422.837713063,27,16,10,-99999999999999.0, 1, 1,20
4,120, 4
11,9721529985.61229,30000.0,11,19,10,3283767.7600805294,11,14,10
23,950289119.4201005,99999999999999.0, 1, 1,10,639884.0189590531,24,16,10
59,929520000.0,99999999999999.0, 1, 1,10,-99999999999999.0, 1, 8,10
521,8771240866.192331,0.0,11,14,20,2668112.3322179387,11,14,10
637,122750683522.57776,0.0,11,14,20,-99999999999999.0, 1, 1,20
649,122750683522.57776,0.0,11,14,20,-99999999999999.0, 1, 1,20
4,151, 5
11,9375419183.272734,99999999999999.0,11,19,10,3285338.0659257974,23,17,30
23,992529262.6624588,99999999999999.0, 1, 1,10,-99999999999999.0,24,16,10
59,970200000.0,99999999999999.0, 1, 1,10,-99999999999999.0, 1, 8,10
521,8382889920.610459,99999999999999.0,11,14,20,2675405.2605332504,26,13,30
637,97983708456.212,99999999999999.0,11,14,20,-99999999999999.0, 1, 1,20
649,97983708456.212,99999999999999.0,11,14,20,-99999999999999.0, 1, 1,20
4,181, 6
11,6763462188.20367,99999999999999.0,11,19,10,3287962.2489140895,25, 9,20
23,875957300.8022442,99999999999999.0, 1, 1,10,652959.5497919216,10,10,20
59,856800000.0,99999999999999.0, 1, 1,10,-99999999999999.0, 1, 8,10
521,5887504887.4015,99999999999999.0,11,14,20,-99999999999999.0,26,13,30
637,48157531865.18159,99999999999999.0,11,14,20,-99999999999999.0, 1, 1,20
649,48157531865.18159,99999999999999.0,11,14,20,-99999999999999.0, 1, 1,20
4,212, 7
11,5828464540.711086,99999999999999.0,11,19,10,-99999999999999.0,25, 9,20
23,992128429.0741614,99999999999999.0, 1, 1,10,-99999999999999.0,10,10,20
59,970200000.0,99999999999999.0, 1, 1,10,-99999999999999.0, 1, 8,10
521,4836336111.637013,99999999999999.0,11,14,20,-99999999999999.0,26,13,30
637,24064418485.288063,99999999999999.0,11,14,20,-99999999999999.0, 1, 1,20
649,24064418485.288063,99999999999999.0,11,14,20,-99999999999999.0, 1, 1,20
4,243, 8
11,5662851973.70469,99999999999999.0,11,19,10,3291648.088182113, 6, 9,30
23,954920342.4320498,99999999999999.0, 1, 1,10,-99999999999999.0,10,10,20
59,933840000.0,99999999999999.0, 1, 1,10,-99999999999999.0, 1, 8,10
521,4707931631.272801,99999999999999.0,11,14,20,2675992.6603195225, 6, 9,30
637,38792237385.373055,99999999999999.0,11,14,20,-99999999999999.0, 1, 1,20
649,38792237385.373055,99999999999999.0,11,14,20,-99999999999999.0, 1, 1,20
4,273, 9
11,8081942708.329476,99999999999999.0,11,19,10,-99999999999999.0, 6, 9,30
23,913332320.0446186,99999999999999.0, 1, 1,10,-99999999999999.0,10,10,20
59,893160000.0,99999999999999.0, 1, 1,10,-99999999999999.0, 1, 8,10
521,7168610388.284883,99999999999999.0,11,14,20,-99999999999999.0, 6, 9,30
637,74017176014.18932,99999999999999.0,11,14,20,-99999999999999.0, 1, 1,20
649,74017176014.18932,99999999999999.0,11,14,20,-99999999999999.0, 1, 1,20
4,304,10
11,10777423958.440374,99999999999999.0,11,19,10,-99999999999999.0, 6, 9,30
23,992103171.2496761,99999999999999.0, 1, 1,10,-99999999999999.0,10,10,20
59,970200000.0,99999999999999.0, 1, 1,10,-99999999999999.0, 1, 8,10
521,9785320787.190765,99999999999999.0,11,14,20,-99999999999999.0, 6, 9,30
637,129599814007.77994,99999999999999.0,11,14,20,-99999999999999.0, 1, 1,20
649,129599814007.77994,99999999999999.0,11,14,20,-99999999999999.0, 1, 1,20
4,334,11
11,10606093343.402445,99999999999999.0,11,19,10,-99999999999999.0, 6, 9,30
23,912885839.1068888,99999999999999.0, 1, 1,10,-99999999999999.0,10,10,20
59,893160000.0,99999999999999.0, 1, 1,10,-99999999999999.0, 1, 8,10
521,9693207504.295593,99999999999999.0,11,14,20,-99999999999999.0, 6, 9,30
637,148352573701.1392,99999999999999.0,11,14,20,-99999999999999.0, 1, 1,20
649,148352573701.1392,99999999999999.0,11,14,20,-99999999999999.0, 1, 1,20
4,365,12
11,10443455785.162422,99999999999999.0,11,19,10,-99999999999999.0, 6, 9,30
23,954505164.7786471,99999999999999.0, 1, 1,10,-99999999999999.0,10,10,20
59,933840000.0,99999999999999.0, 1, 1,10,-99999999999999.0, 1, 8,10
521,9488950620.383821,99999999999999.0,11,14,20,-99999999999999.0, 6, 9,30
637,179533598058.2706,99999999999999.0,11,14,20,-99999999999999.0, 1, 1,20
649,179533598058.2706,99999999999999.0,11,14,20,-99999999999999.0, 1, 1,20
5,365
13,107474660985.42941,30000.0, 4,11,19,10,3291648.088182113, 8, 6, 9,30
25,11314607792.559132,30000.0, 1, 1, 1,10,652959.5497919216, 6,10,10,20
61,11066760000.0,30000.0, 1, 1, 1,10,600000.0, 1, 1, 8,10
523,96160053192.86624,0.0, 4,11,14,20,2675992.6603195225, 8, 6, 9,30
639,1362189193236.4087,0.0, 4,11,14,20,41250000.0, 1, 1, 1,20
651,1362189193236.4087,0.0, 4,11,14,20,41250000.0, 1, 1, 1,20
1,RUN PERIOD 2,  41.98, -87.92,  -6.00, 201.00
4,1, 7
11,63236278.40907219,99999999999999.0,11,19,10,-99999999999999.0, 6, 9,30
23,41619325.671755485,99999999999999.0, 1, 1,10,-99999999999999.0,10,10,20
59,40680000.0,99999999999999.0, 1, 1,10,-99999999999999.0, 1, 8,10
521,21616952.737316716,99999999999999.0,11,14,20,-99999999999999.0, 6, 9,30
637,0.0,99999999999999.0,11,14,20,-99999999999999.0, 1, 1,20
649,0.0,99999999999999.0,11,14,20,-99999999999999.0, 1, 1,20
5,1
13,63236278.40907219,99999999999999.0, 4,11,19,10,-99999999999999.0, 8, 6, 9,30
25,41619325.671755485,99999999999999.0, 1, 1, 1,10,-99999999999999.0, 6,10,10,20
61,40680000.0,99999999999999.0, 1, 1, 1,10,-99999999999999.0, 1, 1, 8,10
523,21616952.737316716,99999999999999.0, 4,11,14,20,-99999999999999.0, 8, 6, 9,30
639,0.0,99999999999999.0, 4,11,14,20,-99999999999999.0, 1, 1, 1,20
651,0.0,99999999999999.0, 4,11,14,20,-99999999999999.0, 1, 1, 1,20
End of Data
 Number of Records Written=          90
