Program Version,EnergyPlus, Version 24.1.0-9d7789a3ac, YMD=2025.04.05 15:39
1,5,Environment Title[],Latitude[deg],Longitude[deg],Time Zone[],Elevation[m]
2,8,Day of Simulation[],Month[],Day of Month[],DST Indicator[1=yes 0=no],Hour[],StartMinute[],EndMinute[],DayType
3,5,Cumulative Day of Simulation[],Month[],Day of Month[],DST Indicator[1=yes 0=no],DayType  ! When Daily Meters Requested
4,2,Cumulative Days of Simulation[],Month[]  ! When Monthly Meters Requested
5,1,Cumulative Days of Simulation[] ! When Run Period Meters Requested
6,1,Calendar Year of Simulation[] ! When Annual Meters Requested
11,9,Electricity:Facility [J] !Monthly [Value,Min,Day,Hour,Minute,Max,Day,Hour,Minute]
23,9,Electricity:Building [J] !Monthly [Value,Min,Day,Hour,Minute,Max,Day,Hour,Minute]
59,9,InteriorLights:Electricity [J] !Monthly [Value,Min,Day,Hour,Minute,Max,Day,Hour,Minute]
521,9,Electricity:HVAC [J] !Monthly [Value,Min,Day,Hour,Minute,Max,Day,Hour,Minute]
637,9,NaturalGas:Facility [J] !Monthly [Value,Min,Day,Hour,Minute,Max,Day,Hour,Minute]
649,9,NaturalGas:HVAC [J] !Monthly [Value,Min,Day,Hour,Minute,Max,Day,Hour,Minute]
13,11,Electricity:Facility [J] !RunPeriod [Value,Min,Month,Day,Hour,Minute,Max,Month,Day,Hour,Minute]
25,11,Electricity:Building [J] !RunPeriod [Value,Min,Month,Day,Hour,Minute,Max,Month,Day,Hour,Minute]
61,11,InteriorLights:Electricity [J] !RunPeriod [Value,Min,Month,Day,Hour,Minute,Max,Month,Day,Hour,Minute]
523,11,Electricity:HVAC [J] !RunPeriod [Value,Min,Month,Day,Hour,Minute,Max,Month,Day,Hour,Minute]
639,11,NaturalGas:Facility [J] !RunPeriod [Value,Min,Month,Day,Hour,Minute,Max,Month,Day,Hour,Minute]
651,11,NaturalGas:HVAC [J] !RunPeriod [Value,Min,Month,Day,Hour,Minute,Max,Month,Day,Hour,Minute]
End of Data Dictionary
1,RUN PERIOD 1,  41.98, -87.92,  -6.00, 201.00
4,31, 1
11,8251221663.414268,363945.1388100466,11,21,30,3342317.8144539157,15,10,60
23,1839900140.515367,104779.13460378328,11,20,60,1013833.3694984905,31,13,60
59,922373098.6950327,28521.122408627267, 1, 1,10,570422.4481725453, 1, 8,10
521,6411321522.898928,0.0,11,13,50,2398258.037404617,27,21,10
637,15445420707.513882,0.0, 1, 9,60,19957842.168427475,31, 7,40
649,15445420707.513882,0.0, 1, 9,60,19957842.168427475,31, 7,40
4,59, 2
11,6780178617.504042,239595.890238559, 9,14,30,-99999999999999.0,15,10,60
23,1622741528.1347423,99999999999999.0,11,20,60,1014160.6050588903, 4, 9,30
59,806349172.7367325,99999999999999.0, 1, 1,10,-99999999999999.0, 1, 8,10
521,5157437089.369289,99999999999999.0,11,13,50,2403983.9722496364, 5, 7,60
637,12652194573.574411,99999999999999.0, 1, 9,60,20710827.747967046, 3, 8,20
649,12652194573.574411,99999999999999.0, 1, 9,60,20710827.747967046, 3, 8,20
4,90, 3
11,6739687754.878016,91572.36807395662,31,16,60,-99999999999999.0,15,10,60
23,1712278165.2696602,91572.36807395662,31,16,60,1024188.032784506,18, 9,60
59,853237897.9765177,99999999999999.0, 1, 1,10,-99999999999999.0, 1, 8,10
521,5027409589.608359,99999999999999.0,11,13,50,-99999999999999.0, 5, 7,60
637,9094455997.35803,99999999999999.0, 1, 9,60,-99999999999999.0, 3, 8,20
649,9094455997.35803,99999999999999.0, 1, 9,60,-99999999999999.0, 3, 8,20
4,120, 4
11,4062531229.822935,28521.122408627267,12,19,10,-99999999999999.0,15,10,60
23,1660436067.3068712,28521.122408627267,12,19,10,-99999999999999.0,18, 9,60
59,883698456.7089325,99999999999999.0, 1, 1,10,-99999999999999.0, 1, 8,10
521,2402095162.5160613,99999999999999.0,11,13,50,-99999999999999.0, 5, 7,60
637,3663786169.361453,99999999999999.0, 1, 9,60,-99999999999999.0, 3, 8,20
649,3663786169.361453,99999999999999.0, 1, 9,60,-99999999999999.0, 3, 8,20
4,151, 5
11,2970546376.2698703,99999999999999.0,12,19,10,-99999999999999.0,15,10,60
23,1653594733.4959903,99999999999999.0,12,19,10,-99999999999999.0,18, 9,60
59,922373098.6950327,99999999999999.0, 1, 1,10,-99999999999999.0, 1, 8,10
521,1316951642.7738602,99999999999999.0,11,13,50,-99999999999999.0, 5, 7,60
637,825324939.139462,99999999999999.0, 1, 9,60,-99999999999999.0, 3, 8,20
649,825324939.139462,99999999999999.0, 1, 9,60,-99999999999999.0, 3, 8,20
4,181, 6
11,2789049191.45789,99999999999999.0,12,19,10,-99999999999999.0,15,10,60
23,1408352498.5593586,99999999999999.0,12,19,10,-99999999999999.0,18, 9,60
59,814563255.9904171,99999999999999.0, 1, 1,10,-99999999999999.0, 1, 8,10
521,1380696692.8985248,99999999999999.0,11,13,50,-99999999999999.0, 5, 7,60
637,28277523.64757794,99999999999999.0, 1, 9,60,-99999999999999.0, 3, 8,20
649,28277523.64757794,99999999999999.0, 1, 9,60,-99999999999999.0, 3, 8,20
4,212, 7
11,3571302754.6452947,99999999999999.0,12,19,10,-99999999999999.0,15,10,60
23,1528326807.2407746,99999999999999.0,12,19,10,-99999999999999.0,18, 9,60
59,922373098.6950327,99999999999999.0, 1, 1,10,-99999999999999.0, 1, 8,10
521,2042975947.4045067,99999999999999.0,11,13,50,-99999999999999.0, 5, 7,60
637,0.0,99999999999999.0, 1, 9,60,-99999999999999.0, 3, 8,20
649,0.0,99999999999999.0, 1, 9,60,-99999999999999.0, 3, 8,20
4,243, 8
11,3124350065.6640234,99999999999999.0,12,19,10,-99999999999999.0,15,10,60
23,1504687004.6601067,99999999999999.0,12,19,10,-99999999999999.0,18, 9,60
59,887805498.335775,99999999999999.0, 1, 1,10,-99999999999999.0, 1, 8,10
521,1619663061.0039341,99999999999999.0,11,13,50,-99999999999999.0, 5, 7,60
637,10146443.118936602,99999999999999.0, 1, 9,60,-99999999999999.0, 3, 8,20
649,10146443.118936602,99999999999999.0, 1, 9,60,-99999999999999.0, 3, 8,20
4,273, 9
11,2531383389.6931767,99999999999999.0,12,19,10,-99999999999999.0,15,10,60
23,1482541158.017544,99999999999999.0,12,19,10,-99999999999999.0,18, 9,60
59,849130856.3496748,99999999999999.0, 1, 1,10,-99999999999999.0, 1, 8,10
521,1048842231.6756349,99999999999999.0,11,13,50,-99999999999999.0, 5, 7,60
637,62650816.19214557,99999999999999.0, 1, 9,60,-99999999999999.0, 3, 8,20
649,62650816.19214557,99999999999999.0, 1, 9,60,-99999999999999.0, 3, 8,20
4,304,10
11,3236321457.7320743,99999999999999.0,12,19,10,-99999999999999.0,15,10,60
23,1686568382.6920068,99999999999999.0,12,19,10,-99999999999999.0,18, 9,60
59,922373098.6950327,99999999999999.0, 1, 1,10,-99999999999999.0, 1, 8,10
521,1549753075.040063,99999999999999.0,11,13,50,-99999999999999.0, 5, 7,60
637,1886279730.2503743,99999999999999.0, 1, 9,60,-99999999999999.0, 3, 8,20
649,1886279730.2503743,99999999999999.0, 1, 9,60,-99999999999999.0, 3, 8,20
4,334,11
11,5651987902.096901,99999999999999.0,12,19,10,-99999999999999.0,15,10,60
23,1651489866.5488424,99999999999999.0,12,19,10,-99999999999999.0,18, 9,60
59,849130856.3496752,99999999999999.0, 1, 1,10,-99999999999999.0, 1, 8,10
521,4000498035.548055,99999999999999.0,11,13,50,-99999999999999.0, 5, 7,60
637,7682172393.23129,99999999999999.0, 1, 9,60,-99999999999999.0, 3, 8,20
649,7682172393.23129,99999999999999.0, 1, 9,60,-99999999999999.0, 3, 8,20
4,365,12
11,7044713014.339549,99999999999999.0,12,19,10,-99999999999999.0,15,10,60
23,1741139506.749025,99999999999999.0,12,19,10,-99999999999999.0,18, 9,60
59,887805498.335775,99999999999999.0, 1, 1,10,-99999999999999.0, 1, 8,10
521,5303573507.590547,99999999999999.0,11,13,50,-99999999999999.0, 5, 7,60
637,9552626904.289944,99999999999999.0, 1, 9,60,-99999999999999.0, 3, 8,20
649,9552626904.289944,99999999999999.0, 1, 9,60,-99999999999999.0, 3, 8,20
5,365
13,56753273417.51877,28521.122408627267, 4,12,19,10,3342317.8144539157, 1,15,10,60
25,19492055859.189472,28521.122408627267, 4,12,19,10,1024188.032784506, 3,18, 9,60
61,10521213887.557692,28521.122408627267, 1, 1, 1,10,570422.4481725453, 1, 1, 8,10
523,37261217558.328064,0.0, 1,11,13,50,2403983.9722496364, 2, 5, 7,60
639,60903336197.677444,0.0, 1, 1, 9,60,20710827.747967046, 2, 3, 8,20
651,60903336197.677444,0.0, 1, 1, 9,60,20710827.747967046, 2, 3, 8,20
End of Data
 Number of Records Written=          78
