Program Version,EnergyPlus, Version 24.2.0-94a887817b, YMD=2025.02.04 17:10
1,5,Environment Title[],Latitude[deg],Longitude[deg],Time Zone[],Elevation[m]
2,8,Day of Simulation[],Month[],Day of Month[],DST Indicator[1=yes 0=no],Hour[],StartMinute[],EndMinute[],DayType
3,5,Cumulative Day of Simulation[],Month[],Day of Month[],DST Indicator[1=yes 0=no],DayType  ! When Daily Report Variables Requested
4,2,Cumulative Days of Simulation[],Month[]  ! When Monthly Report Variables Requested
5,1,Cumulative Days of Simulation[] ! When Run Period Report Variables Requested
6,1,Calendar Year of Simulation[] ! When Annual Report Variables Requested
250,1,LIVING ZONE,Zone Air Temperature [C] !TimeStep,REPORTSCH
251,1,LIVING ZONE,Zone Air System Sensible Heating Energy [J] !TimeStep,REPORTSCH
336,1,LIVING ZONE,Zone Air System Sensible Cooling Energy [J] !TimeStep,REPORTSCH
385,1,LIVING ZONE,Zone Thermostat Heating Setpoint Temperature [C] !TimeStep,REPORTSCH
386,1,LIVING ZONE,Zone Thermostat Cooling Setpoint Temperature [C] !TimeStep,REPORTSCH
387,1,GARAGE ZONE,Zone Air Temperature [C] !TimeStep,REPORTSCH
388,1,GARAGE ZONE,Zone Air System Sensible Heating Energy [J] !TimeStep,REPORTSCH
425,1,GARAGE ZONE,Zone Air System Sensible Cooling Energy [J] !TimeStep,REPORTSCH
450,1,GARAGE ZONE,Zone Thermostat Heating Setpoint Temperature [C] !TimeStep,REPORTSCH
451,1,GARAGE ZONE,Zone Thermostat Cooling Setpoint Temperature [C] !TimeStep,REPORTSCH
452,1,ATTIC ZONE,Zone Air Temperature [C] !TimeStep,REPORTSCH
453,1,ATTIC ZONE,Zone Air System Sensible Heating Energy [J] !TimeStep,REPORTSCH
490,1,ATTIC ZONE,Zone Air System Sensible Cooling Energy [J] !TimeStep,REPORTSCH
515,1,ATTIC ZONE,Zone Thermostat Heating Setpoint Temperature [C] !TimeStep,REPORTSCH
516,1,ATTIC ZONE,Zone Thermostat Cooling Setpoint Temperature [C] !TimeStep,REPORTSCH
542,1,ACDXCOIL 1,Cooling Coil Total Cooling Energy [J] !TimeStep,REPORTSCH
592,1,HEAT PUMP DX HEATING COIL 1,Heating Coil Heating Energy [J] !TimeStep,REPORTSCH
632,1,SUPP HEATING COIL 1,Heating Coil Heating Energy [J] !TimeStep,REPORTSCH
686,1,TWOSPEED HEAT PUMP 1,Unitary System DX Coil Cycling Ratio [] !TimeStep,REPORTSCH
687,1,TWOSPEED HEAT PUMP 1,Unitary System DX Coil Speed Ratio [] !TimeStep,REPORTSCH
688,1,TWOSPEED HEAT PUMP 1,Unitary System DX Coil Speed Level [] !TimeStep,REPORTSCH
End of Data Dictionary
1,YEARSIMULATION,  41.98, -87.92,  -6.00, 201.00
2,21, 1,21, 0, 1, 0.00,10.00,Sunday
250,24.47576905318354
251,8402950.648040377
336,0.0
385,24.52
386,28.77
387,0.6515920400586426
388,0.0
425,0.0
450,0.0
451,0.0
452,-1.5966232309962158
453,0.0
490,0.0
515,0.0
516,0.0
542,0.0
592,4876118.623349024
632,3390028.0051998678
686,1.0
687,1.0
688,2.0
2,21, 1,21, 0, 1,10.00,20.00,Sunday
250,23.396096524943996
251,6260186.111640784
336,0.0
385,23.186666666666667
386,28.769999999999996
387,0.6273648616067204
388,0.0
425,0.0
450,0.0
451,0.0
452,-1.587027358100749
453,0.0
490,0.0
515,0.0
516,0.0
542,0.0
592,2683926.3618681813
632,3487521.718519997
686,0.5721686835246174
687,0.5
688,1.1666666666666665
2,21, 1,21, 0, 1,20.00,30.00,Sunday
250,23.819159368268508
251,6157689.568961279
336,0.0
385,23.853333333333325
386,28.76999999999999
387,0.6022655188782827
388,0.0
425,0.0
450,0.0
451,0.0
452,-1.5788147580227405
453,0.0
490,0.0
515,0.0
516,0.0
542,0.0
592,3535065.900081595
632,2554315.229819279
686,0.754041404051136
687,0.6666666666666664
688,1.666666666666666
2,21, 1,21, 0, 1,30.00,40.00,Sunday
250,24.05654394535188
251,7368617.334968535
336,0.0
385,24.519999999999992
386,28.76999999999999
387,0.572496393646584
388,0.0
425,0.0
450,0.0
451,0.0
452,-1.5713969993831782
453,0.0
490,0.0
515,0.0
516,0.0
542,0.0
592,4831062.355717073
632,3073302.8447973295
686,0.9999999999999997
687,0.9999999999999997
688,1.9999999999999993
2,21, 1,21, 0, 1,40.00,50.00,Sunday
250,24.476076452726893
251,8478577.776591878
336,0.0
385,24.52
386,28.77
387,0.5464249665729566
388,0.0
425,0.0
450,0.0
451,0.0
452,-1.5672122424155788
453,0.0
490,0.0
515,0.0
516,0.0
542,0.0
592,4812841.12045753
632,3528271.7231436614
686,1.0
687,1.0
688,2.0
2,21, 1,21, 0, 1,50.00,60.00,Sunday
250,23.392443390911126
251,6331443.831231335
336,0.0
385,23.186666666666632
386,28.769999999999964
387,0.5245517052732285
388,0.0
425,0.0
450,0.0
451,0.0
452,-1.565875568605631
453,0.0
490,0.0
515,0.0
516,0.0
542,0.0
592,2664212.553225252
632,3579564.986138068
686,0.5765644758433035
687,0.49999999999999933
688,1.166666666666665
2,21, 1,21, 0, 2, 0.00,10.00,Sunday
250,23.820239861747865
251,6220498.680540185
336,0.0
385,23.85333333333333
386,28.770000000000003
387,0.5012539286025186
388,0.0
425,0.0
450,0.0
451,0.0
452,-1.5664647921811365
453,0.0
490,0.0
515,0.0
516,0.0
542,0.0
592,3519372.4108074866
632,2627797.4894293295
686,0.7595101211146178
687,0.6666666666666666
688,1.6666666666666665
2,21, 1,21, 0, 2,10.00,20.00,Sunday
250,24.0580692521804
251,7411529.759394066
336,0.0
385,24.52
386,28.77
387,0.4729466099374421
388,0.0
425,0.0
450,0.0
451,0.0
452,-1.5703184435568107
453,0.0
490,0.0
515,0.0
516,0.0
542,0.0
592,4799408.193643808
632,3146827.117823107
686,1.0
687,1.0
688,2.0
2,21, 1,21, 0, 2,20.00,30.00,Sunday
250,24.476245247246393
251,8507512.542129409
336,0.0
385,24.52
386,28.77
387,0.447660198757341
388,0.0
425,0.0
450,0.0
451,0.0
452,-1.5776588667000704
453,0.0
490,0.0
515,0.0
516,0.0
542,0.0
592,4797025.27600521
632,3572635.6464075227
686,1.0
687,1.0
688,2.0
2,21, 1,21, 0, 2,30.00,40.00,Sunday
250,23.39177765247897
251,6344363.238746053
336,0.0
385,23.18666666666665
386,28.769999999999985
387,0.42592121707352715
388,0.0
425,0.0
450,0.0
451,0.0
452,-1.5882245365333028
453,0.0
490,0.0
515,0.0
516,0.0
542,0.0
592,2666524.3251964757
632,3590392.845654105
686,0.5772317871428291
687,0.49999999999999967
688,1.1666666666666659
2,21, 1,21, 0, 2,40.00,50.00,Sunday
250,23.820412330330644
251,6233158.358163517
336,0.0
385,23.85333333333335
386,28.77000000000002
387,0.40238483455278873
388,0.0
425,0.0
450,0.0
451,0.0
452,-1.6021438993334312
453,0.0
490,0.0
515,0.0
516,0.0
542,0.0
592,3522350.8705442753
632,2636714.941440602
686,0.7603704088568287
687,0.6666666666666672
688,1.6666666666666679
2,21, 1,21, 0, 2,50.00,60.00,Sunday
250,24.058494539555916
251,7422835.464903278
336,0.0
385,24.52
386,28.77
387,0.3734107231107844
388,0.0
425,0.0
450,0.0
451,0.0
452,-1.6210148206525261
453,0.0
490,0.0
515,0.0
516,0.0
542,0.0
592,4799407.408086119
632,3158109.245915258
686,1.0
687,1.0
688,2.0
2,21, 1,21, 0, 3, 0.00,10.00,Sunday
250,24.47630178819859
251,8528887.36308915
336,0.0
385,24.52
386,28.77
387,0.34791447252508423
388,0.0
425,0.0
450,0.0
451,0.0
452,-1.6373350195841994
453,0.0
490,0.0
515,0.0
516,0.0
542,0.0
592,4797025.27600521
632,3593906.744148774
686,1.0
687,1.0
688,2.0
2,21, 1,21, 0, 3,10.00,20.00,Sunday
250,23.390164086221898
251,6375094.356470037
336,0.0
385,23.186666666666667
386,28.769999999999996
387,0.3268572925268551
388,0.0
425,0.0
450,0.0
451,0.0
452,-1.6475920137976066
453,0.0
490,0.0
515,0.0
516,0.0
542,0.0
592,2671929.838804042
632,3616253.8606188814
686,0.5787921048438482
687,0.5
688,1.1666666666666665
2,21, 1,21, 0, 3,20.00,30.00,Sunday
250,23.821113954099687
251,6277540.107646802
336,0.0
385,23.853333333333325
386,28.76999999999999
387,0.30494635301148854
388,0.0
425,0.0
450,0.0
451,0.0
452,-1.653321554518675
453,0.0
490,0.0
515,0.0
516,0.0
542,0.0
592,3534175.1901714634
632,2666031.2572605982
686,0.7637861673679088
687,0.6666666666666664
688,1.666666666666666
2,21, 1,21, 0, 3,30.00,40.00,Sunday
250,24.059646560034007
251,7476186.272305068
336,0.0
385,24.519999999999992
386,28.76999999999999
387,0.27910163223890866
388,0.0
425,0.0
450,0.0
451,0.0
452,-1.6542173981425847
453,0.0
490,0.0
515,0.0
516,0.0
542,0.0
592,4799404.06538418
632,3210906.6409713966
686,0.9999999999999997
687,0.9999999999999997
688,1.9999999999999993
2,21, 1,21, 0, 3,40.00,50.00,Sunday
250,24.476445216103823
251,8581003.23712588
336,0.0
385,24.52
386,28.77
387,0.25715120481501025
388,0.0
425,0.0
450,0.0
451,0.0
452,-1.6502718329022743
453,0.0
490,0.0
515,0.0
516,0.0
542,0.0
592,4797025.276005209
632,3645728.1332978
686,1.0
687,1.0
688,2.0
2,21, 1,21, 0, 3,50.00,60.00,Sunday
250,23.387560207808413
251,6424687.636701962
336,0.0
385,23.186666666666632
386,28.769999999999964
387,0.23958981403449642
388,0.0
425,0.0
450,0.0
451,0.0
452,-1.6429263234485199
453,0.0
490,0.0
515,0.0
516,0.0
542,0.0
592,2680620.950562512
632,3658020.9697126932
686,0.5813008326865134
687,0.49999999999999933
688,1.166666666666665
2,21, 1,21, 0, 4, 0.00,10.00,Sunday
250,23.823263896692122
251,6402747.530726567
336,0.0
385,23.85333333333333
386,28.770000000000003
387,0.21723547346092015
388,0.0
425,0.0
450,0.0
451,0.0
452,-1.6347481494014748
453,0.0
490,0.0
515,0.0
516,0.0
542,0.0
592,3565512.6427657627
632,2749926.0525183682
686,0.7739336333558813
687,0.6666666666666666
688,1.6666666666666665
2,21, 1,21, 0, 4,10.00,20.00,Sunday
250,24.062616993204816
251,7660804.911514826
336,0.0
385,24.52
386,28.77
387,0.18603873231296775
388,0.0
425,0.0
450,0.0
451,0.0
452,-1.6263192747907362
453,0.0
490,0.0
515,0.0
516,0.0
542,0.0
592,4789921.037204002
632,3403047.5450123125
686,1.0
687,1.0
688,2.0
2,21, 1,21, 0, 4,20.00,30.00,Sunday
250,24.476846670444274
251,8835809.773293443
336,0.0
385,24.52
386,28.77
387,0.15539802071274822
388,0.0
425,0.0
450,0.0
451,0.0
452,-1.6225559557727494
453,0.0
490,0.0
515,0.0
516,0.0
542,0.0
592,4781920.349114438
632,3914876.1842413587
686,1.0
687,1.0
688,2.0
2,21, 1,21, 0, 4,30.00,40.00,Sunday
250,23.37044725682711
251,6748777.470532445
336,0.0
385,23.18666666666665
386,28.769999999999985
387,0.1269554112054312
388,0.0
425,0.0
450,0.0
451,0.0
452,-1.6246512961377861
453,0.0
490,0.0
515,0.0
516,0.0
542,0.0
592,2726822.0956799546
632,3941595.704810104
686,0.5980950328732534
687,0.49999999999999967
688,1.1666666666666659
2,21, 1,21, 0, 4,40.00,50.00,Sunday
250,23.82881325812413
251,6753940.958525223
336,0.0
385,23.85333333333335
386,28.77000000000002
387,0.09519967668508039
388,0.0
425,0.0
450,0.0
451,0.0
452,-1.6314888283426734
453,0.0
490,0.0
515,0.0
516,0.0
542,0.0
592,3648918.112439188
632,2991331.9949693186
686,0.8029446178003303
687,0.6666666666666672
688,1.6666666666666679
2,21, 1,21, 0, 4,50.00,60.00,Sunday
250,24.069344761448637
251,7977379.720099878
336,0.0
385,24.52
386,28.77
387,0.0547109805666354
388,0.0
425,0.0
450,0.0
451,0.0
452,-1.6432171348342708
453,0.0
490,0.0
515,0.0
516,0.0
542,0.0
592,4769079.669165742
632,3733989.77707401
686,1.0
687,1.0
688,2.0
2,21, 1,21, 0, 5, 0.00,10.00,Sunday
250,24.47758978958408
251,9046410.80752913
336,0.0
385,24.52
386,28.77
387,0.026225948608072765
388,0.0
425,0.0
450,0.0
451,0.0
452,-1.651686547743079
453,0.0
490,0.0
515,0.0
516,0.0
542,0.0
592,4759821.308645791
632,4145816.5457511274
686,1.0
687,1.0
688,2.0
2,21, 1,21, 0, 5,10.00,20.00,Sunday
250,23.36548193088854
251,6843763.382127558
336,0.0
385,23.186666666666667
386,28.769999999999996
387,0.010926574228643045
388,0.0
425,0.0
450,0.0
451,0.0
452,-1.6529853302796658
453,0.0
490,0.0
515,0.0
516,0.0
542,0.0
592,2731977.816338766
632,4033027.814932178
686,0.6033929517135814
687,0.5
688,1.1666666666666665
2,21, 1,21, 0, 5,20.00,30.00,Sunday
250,23.828298553022414
251,6736043.0166309755
336,0.0
385,23.853333333333325
386,28.76999999999999
387,-0.0010101825642114392
388,0.0
425,0.0
450,0.0
451,0.0
452,-1.646566616604885
453,0.0
490,0.0
515,0.0
516,0.0
542,0.0
592,3626574.4513801015
632,2997993.297883702
686,0.8016037942718932
687,0.6666666666666664
688,1.666666666666666
2,21, 1,21, 0, 5,30.00,40.00,Sunday
250,24.0688056084728
251,7840550.474958641
336,0.0
385,24.519999999999992
386,28.76999999999999
387,-0.011623364454019297
388,0.0
425,0.0
450,0.0
451,0.0
452,-1.629690127917408
453,0.0
490,0.0
515,0.0
516,0.0
542,0.0
592,4743242.11685095
632,3623182.2151726466
686,0.9999999999999997
687,0.9999999999999997
688,1.9999999999999993
2,21, 1,21, 0, 5,40.00,50.00,Sunday
250,24.477503457562978
251,8909590.60077578
336,0.0
385,24.52
386,28.77
387,-0.017943314809191355
388,0.0
425,0.0
450,0.0
451,0.0
452,-1.6066484158658343
453,0.0
490,0.0
515,0.0
516,0.0
542,0.0
592,4733209.018464269
632,4035748.0113023734
686,1.0
687,1.0
688,2.0
2,21, 1,21, 0, 5,50.00,60.00,Sunday
250,23.37287506368817
251,6704153.620084141
336,0.0
385,23.186666666666632
386,28.769999999999964
387,-0.020529136144530797
388,0.0
425,0.0
450,0.0
451,0.0
452,-1.5797144148521602
453,0.0
490,0.0
515,0.0
516,0.0
542,0.0
592,2693459.4743282786
632,3929363.230227164
686,0.5967777277531178
687,0.49999999999999933
688,1.166666666666665
2,21, 1,21, 0, 6, 0.00,10.00,Sunday
250,23.82773252372064
251,6678339.360099389
336,0.0
385,23.85333333333333
386,28.770000000000003
387,-0.029691626166362308
388,0.0
425,0.0
450,0.0
451,0.0
452,-1.5537824127324558
453,0.0
490,0.0
515,0.0
516,0.0
542,0.0
592,3592568.495256166
632,2977291.6733573843
686,0.7973274926460104
687,0.6666666666666666
688,1.6666666666666665
2,21, 1,21, 0, 6,10.00,20.00,Sunday
250,24.068442903330087
251,7882303.90453283
336,0.0
385,24.52
386,28.77
387,-0.04798592787200325
388,0.0
425,0.0
450,0.0
451,0.0
452,-1.532496947805699
453,0.0
490,0.0
515,0.0
516,0.0
542,0.0
592,4719923.379306177
632,3689632.5238092984
686,1.0
687,1.0
688,2.0
2,21, 1,21, 0, 6,20.00,30.00,Sunday
250,24.477516135881586
251,9035349.30876424
336,0.0
385,24.52
386,28.77
387,-0.06984143021910613
388,0.0
425,0.0
450,0.0
451,0.0
452,-1.5280229814960107
453,0.0
490,0.0
515,0.0
516,0.0
542,0.0
592,4712787.238344823
632,4182043.29997513
686,1.0
687,1.0
688,2.0
2,21, 1,21, 0, 6,30.00,40.00,Sunday
250,23.361552460608902
251,6918287.1150503075
336,0.0
385,23.18666666666665
386,28.769999999999985
387,-0.09312250792766161
388,0.0
425,0.0
450,0.0
451,0.0
452,-1.5387290107650242
453,0.0
490,0.0
515,0.0
516,0.0
542,0.0
592,2722077.6912946273
632,4118654.3653860493
686,0.6081911483369216
687,0.49999999999999967
688,1.1666666666666659
2,21, 1,21, 0, 6,40.00,50.00,Sunday
250,23.831465775121053
251,6910626.290584836
336,0.0
385,23.85333333333335
386,28.77000000000002
387,-0.12053846663372855
388,0.0
425,0.0
450,0.0
451,0.0
452,-1.5588561843010464
453,0.0
490,0.0
515,0.0
516,0.0
542,0.0
592,3645435.840500931
632,3138885.5313768066
686,0.8171718904490923
687,0.6666666666666672
688,1.6666666666666679
2,21, 1,21, 0, 6,50.00,60.00,Sunday
250,24.07269189244704
251,8089535.317999696
336,0.0
385,24.52
386,28.77
387,-0.15688341569651643
388,0.0
425,0.0
450,0.0
451,0.0
452,-1.5912722431889341
453,0.0
490,0.0
515,0.0
516,0.0
542,0.0
592,4702198.898709332
632,3910109.9196832944
686,1.0
687,1.0
688,2.0
2,21, 1,21, 0, 7, 0.00,10.00,Sunday
250,24.47797687301168
251,9209927.535600578
336,0.0
385,24.52
386,28.77
387,-0.19493091434622983
388,0.0
425,0.0
450,0.0
451,0.0
452,-1.6386320810436648
453,0.0
490,0.0
515,0.0
516,0.0
542,0.0
592,4720142.751070037
632,4348157.495550144
686,1.0
687,1.0
688,2.0
2,21, 1,21, 0, 7,10.00,20.00,Sunday
250,23.354350020992126
251,7054340.916363417
336,0.0
385,23.186666666666667
386,28.769999999999996
387,-0.23586603753079213
388,0.0
425,0.0
450,0.0
451,0.0
452,-1.7171496744915122
453,0.0
490,0.0
515,0.0
516,0.0
542,0.0
592,2762431.5374162043
632,4216900.584022002
686,0.6145371684213413
687,0.5
688,1.1666666666666665
2,21, 1,21, 0, 7,20.00,30.00,Sunday
250,23.832664400000954
251,7014684.750553625
336,0.0
385,23.853333333333325
386,28.76999999999999
387,-0.28667479289768005
388,0.0
425,0.0
450,0.0
451,0.0
452,-1.8373118347142063
453,0.0
490,0.0
515,0.0
516,0.0
542,0.0
592,3714437.875063923
632,3168029.083247857
686,0.8244342792964126
687,0.6666666666666664
688,1.666666666666666
2,21, 1,21, 0, 7,30.00,40.00,Sunday
250,24.073849387201967
251,8139759.7790601
336,0.0
385,24.519999999999992
386,28.76999999999999
387,-0.3574994926857711
388,0.0
425,0.0
450,0.0
451,0.0
452,-2.0190355536504434
453,0.0
490,0.0
515,0.0
516,0.0
542,0.0
592,4785458.424591925
632,3875125.3279522727
686,0.9999999999999997
687,0.9999999999999997
688,1.9999999999999993
2,21, 1,21, 0, 7,40.00,50.00,Sunday
250,24.478085684573635
251,9265570.003162941
336,0.0
385,24.52
386,28.77
387,-0.42802021045482047
388,0.0
425,0.0
450,0.0
451,0.0
452,-2.215551147510938
453,0.0
490,0.0
515,0.0
516,0.0
542,0.0
592,4800253.518875451
632,4323363.997424721
686,1.0
687,1.0
688,2.0
2,21, 1,21, 0, 7,50.00,60.00,Sunday
250,23.35125360619708
251,7111598.83893489
336,0.0
385,23.186666666666632
386,28.769999999999964
387,-0.4959297850024956
388,0.0
425,0.0
450,0.0
451,0.0
452,-2.4210838822738463
453,0.0
490,0.0
515,0.0
516,0.0
542,0.0
592,2811799.8434078516
632,4226083.0756514575
686,0.615781699119353
687,0.49999999999999933
688,1.166666666666665
2,21, 1,21, 0, 8, 0.00,10.00,Sunday
250,23.83310279747524
251,7069239.0190741
336,0.0
385,23.85333333333333
386,28.770000000000003
387,-0.5651864116410816
388,0.0
425,0.0
450,0.0
451,0.0
452,-2.642548617848437
453,0.0
490,0.0
515,0.0
516,0.0
542,0.0
592,3776490.342701195
632,3158348.2117595538
686,0.8271874433555709
687,0.6666666666666666
688,1.6666666666666665
2,21, 1,21, 0, 8,10.00,20.00,Sunday
250,24.074506231393556
251,8127608.176337171
336,0.0
385,24.52
386,28.77
387,-0.6372527939906716
388,0.0
425,0.0
450,0.0
451,0.0
452,-2.8213360246579744
453,0.0
490,0.0
515,0.0
516,0.0
542,0.0
592,4844631.685614428
632,3803026.3971073423
686,1.0
687,1.0
688,2.0
2,21, 1,21, 0, 8,20.00,30.00,Sunday
250,24.478128818847296
251,9214363.660849484
336,0.0
385,24.52
386,28.77
387,-0.6865329231880025
388,0.0
425,0.0
450,0.0
451,0.0
452,-2.8463006691803967
453,0.0
490,0.0
515,0.0
516,0.0
542,0.0
592,4850353.09097185
632,4221851.966706632
686,1.0
687,1.0
688,2.0
2,21, 1,21, 0, 8,30.00,40.00,Sunday
250,23.357846215441523
251,6986702.305041513
336,0.0
385,23.18666666666665
386,28.769999999999985
387,-0.7118694936892476
388,0.0
425,0.0
450,0.0
451,0.0
452,-2.7364048246513715
453,0.0
490,0.0
515,0.0
516,0.0
542,0.0
592,2811380.236772175
632,4099442.705738263
686,0.6086490685542016
687,0.49999999999999967
688,1.1666666666666659
2,21, 1,21, 0, 8,40.00,50.00,Sunday
250,23.829441911902318
251,6850937.540927166
336,0.0
385,23.85333333333335
386,28.77000000000002
387,-0.7249163254100801
388,0.0
425,0.0
450,0.0
451,0.0
452,-2.5203172643971303
453,0.0
490,0.0
515,0.0
516,0.0
542,0.0
592,3744373.856897365
632,2989387.486783197
686,0.8086207278490855
687,0.6666666666666672
688,1.6666666666666679
2,21, 1,21, 0, 8,50.00,60.00,Sunday
250,24.4533575297974
251,8747627.095322773
336,0.0
385,24.52
386,28.77
387,-0.721966545784241
388,0.0
425,0.0
450,0.0
451,0.0
452,-2.196439458428776
453,0.0
490,0.0
515,0.0
516,0.0
542,0.0
592,4881868.245072941
632,3787560.8377878037
686,1.0
687,1.0
688,2.0
2,21, 1,21, 0, 9, 0.00,10.00,Sunday
250,23.43243996864558
251,6134888.992844747
336,0.0
385,23.320000000000004
386,28.770000000000003
387,-0.6967463185764041
388,0.0
425,0.0
450,0.0
451,0.0
452,-1.8022549296393788
453,0.0
490,0.0
515,0.0
516,0.0
542,0.0
592,2657465.755729104
632,3494534.717835713
686,0.5977837161591504
687,0.4
688,1.0
2,21, 1,21, 0, 9,10.00,20.00,Sunday
250,23.79878990696477
251,8231882.174373178
336,0.0
385,23.85333333333333
386,28.77
387,-0.6521767117892854
388,0.0
425,0.0
450,0.0
451,0.0
452,-1.3178161745654509
453,0.0
490,0.0
515,0.0
516,0.0
542,0.0
592,4716284.821645543
632,3465177.2594231633
686,1.0
687,0.8539822901612455
688,2.0
2,21, 1,21, 0, 9,20.00,30.00,Sunday
250,23.838306111439916
251,6358582.534843878
336,0.0
385,23.853333333333325
386,28.76999999999999
387,-0.5730348260298481
388,0.0
425,0.0
450,0.0
451,0.0
452,-0.6126401654876521
453,0.0
490,0.0
515,0.0
516,0.0
542,0.0
592,3587433.9800151344
632,2635184.9617178515
686,0.7506313071015235
687,0.6666666666666664
688,1.666666666666666
2,21, 1,21, 0, 9,30.00,40.00,Sunday
250,23.856091771759896
251,7717136.04268238
336,0.0
385,23.853333333333342
386,28.77000000000001
387,-0.4861836798028664
388,0.0
425,0.0
450,0.0
451,0.0
452,0.03416094459574523
453,0.0
490,0.0
515,0.0
516,0.0
542,0.0
592,3456551.397109291
632,4056216.4787172587
686,0.8227218191356421
687,0.37856218543429226
688,1.666666666666667
2,21, 1,21, 0, 9,40.00,50.00,Sunday
250,23.85745044695856
251,7752407.601375706
336,0.0
385,23.85333333333335
386,28.77000000000002
387,-0.405376212171464
388,0.0
425,0.0
450,0.0
451,0.0
452,0.6482208679110891
453,0.0
490,0.0
515,0.0
516,0.0
542,0.0
592,3536720.8021371556
632,4003719.0067262207
686,0.8254835137291593
687,0.41965792110574446
688,1.6666666666666679
2,21, 1,21, 0, 9,50.00,60.00,Sunday
250,24.455599548327378
251,8461212.142229324
336,0.0
385,24.52
386,28.77
387,-0.3335829020276832
388,0.0
425,0.0
450,0.0
451,0.0
452,1.1545278203278952
453,0.0
490,0.0
515,0.0
516,0.0
542,0.0
592,4987886.41021877
632,3387702.11080458
686,1.0
687,1.0
688,2.0
2,21, 1,21, 0,10, 0.00,10.00,Sunday
250,23.382652173158238
251,6497371.777761521
336,0.0
385,23.186666666666664
386,28.770000000000003
387,-0.2612183532373095
388,0.0
425,0.0
450,0.0
451,0.0
452,1.6174132504896899
453,0.0
490,0.0
515,0.0
516,0.0
542,0.0
592,2806790.2856218764
632,3606814.632058165
686,0.5816338751222245
687,0.5
688,1.1666666666666667
2,21, 1,21, 0,10,10.00,20.00,Sunday
250,23.8199316105601
251,6266068.084944981
336,0.0
385,23.85333333333333
386,28.77
387,-0.17460958617547934
388,0.0
425,0.0
450,0.0
451,0.0
452,2.1255718113134954
453,0.0
490,0.0
515,0.0
516,0.0
542,0.0
592,3711892.3491639653
632,2481240.131591725
686,0.7607184650952066
687,0.6666666666666667
688,1.6666666666666667
2,21, 1,21, 0,10,20.00,30.00,Sunday
250,23.85185020417623
251,7571035.154654393
336,0.0
385,23.853333333333325
386,28.76999999999999
387,-0.03928785004432616
388,0.0
425,0.0
450,0.0
451,0.0
452,2.813938563562478
453,0.0
490,0.0
515,0.0
516,0.0
542,0.0
592,3429469.873337687
632,3958279.387013089
686,0.8067297899355865
687,0.33338578268242136
688,1.666666666666666
2,21, 1,21, 0,10,30.00,40.00,Sunday
250,23.852132426284562
251,7488005.949752346
336,0.0
385,23.853333333333342
386,28.77000000000001
387,0.09240496719099248
388,0.0
425,0.0
450,0.0
451,0.0
452,3.4432143835251816
453,0.0
490,0.0
515,0.0
516,0.0
542,0.0
592,3424118.9022472845
632,3881186.185187522
686,0.7992028907800934
687,0.3333333333333332
688,1.3333333333333335
2,21, 1,21, 0,10,40.00,50.00,Sunday
250,23.850411570797526
251,7383817.645597726
336,0.0
385,23.85333333333335
386,28.77000000000002
387,0.23305882375812395
388,0.0
425,0.0
450,0.0
451,0.0
452,4.118609172392822
453,0.0
490,0.0
515,0.0
516,0.0
542,0.0
592,3370881.322987698
632,3840840.240566028
686,0.7788451039734352
687,0.3333333333333336
688,1.3333333333333344
2,21, 1,21, 0,10,50.00,60.00,Sunday
250,23.848609853892413
251,7277356.966728157
336,0.0
385,23.85333333333335
386,28.77000000000002
387,0.39144552532266963
388,0.0
425,0.0
450,0.0
451,0.0
452,4.874637379547136
453,0.0
490,0.0
515,0.0
516,0.0
542,0.0
592,3314398.009300564
632,3801871.2196819433
686,0.7578800924338897
687,0.3333333333333336
688,1.3333333333333344
2,21, 1,21, 0,11, 0.00,10.00,Sunday
250,23.84686896776781
251,7171747.127725785
336,0.0
385,23.85333333333333
386,28.770000000000003
387,0.5614386612893758
388,0.0
425,0.0
450,0.0
451,0.0
452,5.69484013015148
453,0.0
490,0.0
515,0.0
516,0.0
542,0.0
592,3252969.1210853457
632,3768163.315668989
686,0.7383256304138694
687,0.3333333333333333
688,1.3333333333333335
2,21, 1,21, 0,11,10.00,20.00,Sunday
250,23.844851780356905
251,7063495.374685735
336,0.0
385,23.85333333333333
386,28.77
387,0.7427826741090977
388,0.0
425,0.0
450,0.0
451,0.0
452,6.560354855308667
453,0.0
490,0.0
515,0.0
516,0.0
542,0.0
592,3190182.4368923386
632,3732937.7847139714
686,0.7185492807794196
687,0.33333333333333337
688,1.3333333333333333
2,21, 1,21, 0,11,20.00,30.00,Sunday
250,23.585660390062177
251,6232292.703205468
336,0.0
385,23.52
386,28.77
387,0.892893803177435
388,0.0
425,0.0
450,0.0
451,0.0
452,7.33273595450543
453,0.0
490,0.0
515,0.0
516,0.0
542,0.0
592,3933391.9873034526
632,2157347.9267966165
686,0.75
687,0.75
688,1.5
2,21, 1,21, 0,11,30.00,40.00,Sunday
250,23.534692110430758
251,6691864.098622715
336,0.0
385,23.52
386,28.77
387,1.1256009167129406
388,0.0
425,0.0
450,0.0
451,0.0
452,8.355916829874232
453,0.0
490,0.0
515,0.0
516,0.0
542,0.0
592,3311257.804010115
632,3313761.569813691
686,0.6793786457342488
687,0.5
688,1.25
2,21, 1,21, 0,11,40.00,50.00,Sunday
250,23.537536867169933
251,6525944.082091706
336,0.0
385,23.52
386,28.77
387,1.3541234343692863
388,0.0
425,0.0
450,0.0
451,0.0
452,9.22761763206566
453,0.0
490,0.0
515,0.0
516,0.0
542,0.0
592,3323262.005546258
632,3140466.700867093
686,0.6794741349965814
687,0.5
688,1.25
2,21, 1,21, 0,11,50.00,60.00,Sunday
250,23.811656183569845
251,5253749.527241845
336,0.0
385,23.85333333333335
386,28.77000000000002
387,1.5316100140245343
388,0.0
425,0.0
450,0.0
451,0.0
452,9.875808094235076
453,0.0
490,0.0
515,0.0
516,0.0
542,0.0
592,3638358.583655348
632,1585350.0591241426
686,0.694373466552326
687,0.6666666666666672
688,1.6666666666666679
2,21, 1,21, 0,12, 0.00,10.00,Sunday
250,23.837369026293317
251,6711095.379553393
336,0.0
385,23.85333333333333
386,28.770000000000003
387,1.775698799611285
388,0.0
425,0.0
450,0.0
451,0.0
452,10.5908439188157
453,0.0
490,0.0
515,0.0
516,0.0
542,0.0
592,2956963.2074354687
632,3655228.863311075
686,0.644454622049508
687,0.3333333333333333
688,1.3333333333333335
2,21, 1,21, 0,12,10.00,20.00,Sunday
250,24.451399158385996
251,7312248.455833704
336,0.0
385,24.52
386,28.77
387,1.9608996775694407
388,0.0
425,0.0
450,0.0
451,0.0
452,11.055955094524808
453,0.0
490,0.0
515,0.0
516,0.0
542,0.0
592,5313791.733726392
632,1917644.696164734
686,1.0
687,1.0
688,2.0
2,21, 1,21, 0,12,20.00,30.00,Sunday
250,23.586824148857772
251,4917214.277546866
336,0.0
385,23.52
386,28.77
387,2.1759413826771716
388,0.0
425,0.0
450,0.0
451,0.0
452,11.464256413552292
453,0.0
490,0.0
515,0.0
516,0.0
542,0.0
592,3597181.758793367
632,953535.1316083907
686,0.7445699433590076
687,0.5
688,1.5
2,21, 1,21, 0,12,30.00,40.00,Sunday
250,24.426390110157104
251,8351019.16729434
336,0.0
385,24.52
386,28.77
387,2.3563670744765224
388,0.0
425,0.0
450,0.0
451,0.0
452,11.708423495814674
453,0.0
490,0.0
515,0.0
516,0.0
542,0.0
592,4795536.110712707
632,3553274.8190279547
686,1.0
687,0.6431536825222752
688,2.0
2,21, 1,21, 0,12,40.00,50.00,Sunday
250,24.514069580569476
251,6656335.775539008
336,0.0
385,24.52
386,28.77
387,2.506930273846741
388,0.0
425,0.0
450,0.0
451,0.0
452,11.802416956180998
453,0.0
490,0.0
515,0.0
516,0.0
542,0.0
592,5335923.472596241
632,1071750.288362484
686,1.0
687,1.0
688,2.0
2,21, 1,21, 0,12,50.00,60.00,Sunday
250,23.451980046959253
251,5197020.918441258
336,0.0
385,23.186666666666632
386,28.769999999999964
387,2.602235706384369
388,0.0
425,0.0
450,0.0
451,0.0
452,11.752326336628567
453,0.0
490,0.0
515,0.0
516,0.0
542,0.0
592,2504480.310671596
632,2605836.692407792
686,0.5146042090906114
687,0.35030074744462525
688,1.166666666666665
2,21, 1,21, 0,13, 0.00,10.00,Sunday
250,24.40876052027231
251,7109789.172927819
336,0.0
385,24.52
386,28.77
387,2.6964253085562677
388,0.0
425,0.0
450,0.0
451,0.0
452,11.65302593165071
453,0.0
490,0.0
515,0.0
516,0.0
542,0.0
592,5339548.690346628
632,1789372.1759488166
686,1.0
687,1.0
688,2.0
2,21, 1,21, 0,13,10.00,20.00,Sunday
250,24.511990248435946
251,6333654.867693449
336,0.0
385,24.52
386,28.77
387,2.800680768897714
388,0.0
425,0.0
450,0.0
451,0.0
452,11.539172781168691
453,0.0
490,0.0
515,0.0
516,0.0
542,0.0
592,5335793.470214102
632,752642.0730010966
686,1.0
687,1.0
688,2.0
2,21, 1,21, 0,13,20.00,30.00,Sunday
250,23.46380051810593
251,4945983.868140856
336,0.0
385,23.186666666666685
386,28.770000000000017
387,2.8741594782352395
388,0.0
425,0.0
450,0.0
451,0.0
452,11.484421409959122
453,0.0
490,0.0
515,0.0
516,0.0
542,0.0
592,2362284.4823827446
632,2505479.0132061574
686,0.48554261043343955
687,0.3333333333333336
688,1.0000000000000009
2,21, 1,21, 0,13,30.00,40.00,Sunday
250,24.407620305320094
251,6787426.137081705
336,0.0
385,24.52
386,28.77
387,2.948867460129284
388,0.0
425,0.0
450,0.0
451,0.0
452,11.449731642675218
453,0.0
490,0.0
515,0.0
516,0.0
542,0.0
592,5253837.937455174
632,1551031.4333207668
686,1.0
687,0.9501595934056825
688,2.0
2,21, 1,21, 0,13,40.00,50.00,Sunday
250,24.511813889209286
251,6105313.210906575
336,0.0
385,24.52
386,28.77
387,3.035716144577035
388,0.0
425,0.0
450,0.0
451,0.0
452,11.426905760732424
453,0.0
490,0.0
515,0.0
516,0.0
542,0.0
592,5324520.0164072765
632,535741.0666956799
686,1.0
687,1.0
688,2.0
2,21, 1,21, 0,13,50.00,60.00,Sunday
250,23.48728659653907
251,4715290.515280947
336,0.0
385,23.186666666666632
386,28.769999999999964
387,3.1016190925721454
388,0.0
425,0.0
450,0.0
451,0.0
452,11.415868808092402
453,0.0
490,0.0
515,0.0
516,0.0
542,0.0
592,2180342.784014626
632,2467944.10396194
686,0.4632922199230386
687,0.27180572606447684
688,0.8333333333333321
2,21, 1,21, 0,14, 0.00,10.00,Sunday
250,24.411263327969696
251,6693083.626794376
336,0.0
385,24.52
386,28.77
387,3.1719725760804023
388,0.0
425,0.0
450,0.0
451,0.0
452,11.374631348852066
453,0.0
490,0.0
515,0.0
516,0.0
542,0.0
592,5225107.240428293
632,1480273.355978559
686,1.0
687,0.9279173875167388
688,2.0
2,21, 1,21, 0,14,10.00,20.00,Sunday
250,24.512147239936564
251,5976540.616291082
336,0.0
385,24.52
386,28.77
387,3.2541313120142616
388,0.0
425,0.0
450,0.0
451,0.0
452,11.26200290223028
453,0.0
490,0.0
515,0.0
516,0.0
542,0.0
592,5344642.0475104805
632,386206.6805223734
686,1.0
687,1.0
688,2.0
2,21, 1,21, 0,14,20.00,30.00,Sunday
250,23.499366055595168
251,4605289.086198302
336,0.0
385,23.186666666666685
386,28.770000000000017
387,3.3126298888044956
388,0.0
425,0.0
450,0.0
451,0.0
452,11.096160424288263
453,0.0
490,0.0
515,0.0
516,0.0
542,0.0
592,2086061.1945579094
632,2460289.9024351286
686,0.4529503755671811
687,0.2252491047173531
688,0.833333333333334
2,21, 1,21, 0,14,30.00,40.00,Sunday
250,24.411652885551828
251,6566597.698499219
336,0.0
385,24.52
386,28.77
387,3.3634467240790755
388,0.0
425,0.0
450,0.0
451,0.0
452,10.83892698166853
453,0.0
490,0.0
515,0.0
516,0.0
542,0.0
592,5190891.69125857
632,1386372.9368498074
686,1.0
687,0.8816903130198583
688,2.0
2,21, 1,21, 0,14,40.00,50.00,Sunday
250,23.56215983777733