Program Version,EnergyPlus, Version 24.2.0-94a887817b, YMD=2025.02.11 00:15
1,5,Environment Title[],Latitude[deg],Longitude[deg],Time Zone[],Elevation[m]
2,8,Day of Simulation[],Month[],Day of Month[],DST Indicator[1=yes 0=no],Hour[],StartMinute[],EndMinute[],DayType
3,5,Cumulative Day of Simulation[],Month[],Day of Month[],DST Indicator[1=yes 0=no],DayType  ! When Daily Report Variables Requested
4,2,Cumulative Days of Simulation[],Month[]  ! When Monthly Report Variables Requested
5,1,Cumulative Days of Simulation[] ! When Run Period Report Variables Requested
6,1,Calendar Year of Simulation[] ! When Annual Report Variables Requested
250,1,LIVING ZONE,Zone Air Temperature [C] !TimeStep,REPORTSCH
251,1,LIVING ZONE,Zone Air System Sensible Heating Energy [J] !TimeStep,REPORTSCH
336,1,LIVING ZONE,Zone Air System Sensible Cooling Energy [J] !TimeStep,REPORTSCH
385,1,LIVING ZONE,Zone Thermostat Heating Setpoint Temperature [C] !TimeStep,REPORTSCH
386,1,LIVING ZONE,Zone Thermostat Cooling Setpoint Temperature [C] !TimeStep,REPORTSCH
387,1,GARAGE ZONE,Zone Air Temperature [C] !TimeStep,REPORTSCH
388,1,GARAGE ZONE,Zone Air System Sensible Heating Energy [J] !TimeStep,REPORTSCH
425,1,GARAGE ZONE,Zone Air System Sensible Cooling Energy [J] !TimeStep,REPORTSCH
450,1,GARAGE ZONE,Zone Thermostat Heating Setpoint Temperature [C] !TimeStep,REPORTSCH
451,1,GARAGE ZONE,Zone Thermostat Cooling Setpoint Temperature [C] !TimeStep,REPORTSCH
452,1,ATTIC ZONE,Zone Air Temperature [C] !TimeStep,REPORTSCH
453,1,ATTIC ZONE,Zone Air System Sensible Heating Energy [J] !TimeStep,REPORTSCH
490,1,ATTIC ZONE,Zone Air System Sensible Cooling Energy [J] !TimeStep,REPORTSCH
515,1,ATTIC ZONE,Zone Thermostat Heating Setpoint Temperature [C] !TimeStep,REPORTSCH
516,1,ATTIC ZONE,Zone Thermostat Cooling Setpoint Temperature [C] !TimeStep,REPORTSCH
542,1,ACDXCOIL 1,Cooling Coil Total Cooling Energy [J] !TimeStep,REPORTSCH
592,1,HEAT PUMP DX HEATING COIL 1,Heating Coil Heating Energy [J] !TimeStep,REPORTSCH
632,1,SUPP HEATING COIL 1,Heating Coil Heating Energy [J] !TimeStep,REPORTSCH
686,1,TWOSPEED HEAT PUMP 1,Unitary System DX Coil Cycling Ratio [] !TimeStep,REPORTSCH
687,1,TWOSPEED HEAT PUMP 1,Unitary System DX Coil Speed Ratio [] !TimeStep,REPORTSCH
688,1,TWOSPEED HEAT PUMP 1,Unitary System DX Coil Speed Level [] !TimeStep,REPORTSCH
End of Data Dictionary
1,RUN PERIOD 1,  41.98, -87.92,  -6.00, 201.00
2,21, 1,21, 0, 1, 0.00,10.00,Monday
250,23.30376355857446
251,7712729.917479451
336,0.0
385,23.35
386,25.1
387,0.5936920501468512
388,0.0
425,0.0
450,0.0
451,0.0
452,-1.6414268287845342
453,0.0
490,0.0
515,0.0
516,0.0
542,0.0
592,4877330.13923786
632,2703644.325043236
686,1.0
687,1.0
688,2.0
2,21, 1,21, 0, 1,10.00,20.00,Monday
250,22.26384356873131
251,5568047.491224498
336,0.0
385,22.01666666666667
386,25.1
387,0.5721950380411746
388,0.0
425,0.0
450,0.0
451,0.0
452,-1.6310570571457845
453,0.0
490,0.0
515,0.0
516,0.0
542,0.0
592,2540389.225668465
632,2928498.071785368
686,0.5366266179811563
687,0.48519814227484864
688,1.1666666666666665
2,21, 1,21, 0, 1,20.00,30.00,Monday
250,22.63683319758815
251,5401855.398638587
336,0.0
385,22.683333333333326
386,25.09999999999999
387,0.5488065866105454
388,0.0
425,0.0
450,0.0
451,0.0
452,-1.6220694296861065
453,0.0
490,0.0
515,0.0
516,0.0
542,0.0
592,3321171.5932472968
632,2071263.7943814353
686,0.6925162863032737
687,0.6666666666666664
688,1.666666666666666
2,21, 1,21, 0, 1,30.00,40.00,Monday
250,22.872551027861043
251,6702705.823963308
336,0.0
385,23.349999999999994
386,25.099999999999994
387,0.5202832444565213
388,0.0
425,0.0
450,0.0
451,0.0
452,-1.6138208352898318
453,0.0
490,0.0
515,0.0
516,0.0
542,0.0
592,4830397.017585024
632,2423290.163212766
686,0.9999999999999997
687,0.9999999999999997
688,1.9999999999999993
2,21, 1,21, 0, 1,40.00,50.00,Monday
250,23.30460451841548
251,7804042.138448574
336,0.0
385,23.35
386,25.1
387,0.49489524068203594
388,0.0
425,0.0
450,0.0
451,0.0
452,-1.6090402569145776
453,0.0
490,0.0
515,0.0
516,0.0
542,0.0
592,4814024.711215947
632,2856222.1281538387
686,1.0
687,1.0
688,2.0
2,21, 1,21, 0, 1,50.00,60.00,Monday
250,22.259780676371378
251,5651251.601343447
336,0.0
385,22.01666666666664
386,25.099999999999962
387,0.47329736658421784
388,0.0
425,0.0
450,0.0
451,0.0
452,-1.6073320433575762
453,0.0
490,0.0
515,0.0
516,0.0
542,0.0
592,2543006.201118611
632,3008422.936547333
686,0.5413503408575547
687,0.49999999999999933
688,1.166666666666665
2,21, 1,21, 0, 2, 0.00,10.00,Monday
250,22.63799777627252
251,5474430.865044933
336,0.0
385,22.683333333333334
386,25.1
387,0.45020285327335263
388,0.0
425,0.0
450,0.0
451,0.0
452,-1.607611454819804
453,0.0
490,0.0
515,0.0
516,0.0
542,0.0
592,3307935.2710153437
632,2151765.3363517793
686,0.698090424576869
687,0.6666666666666666
688,1.6666666666666665
2,21, 1,21, 0, 2,10.00,20.00,Monday
250,22.874345486696267
251,6753705.830877567
336,0.0
385,23.35
386,25.1
387,0.4220925521051661
388,0.0
425,0.0
450,0.0
451,0.0
452,-1.6111999728236326
453,0.0
490,0.0
515,0.0
516,0.0
542,0.0
592,4798762.258871237
632,2504966.772633371
686,1.0
687,1.0
688,2.0
2,21, 1,21, 0, 2,20.00,30.00,Monday
250,23.304804487657144
251,7840210.070345279
336,0.0
385,23.35
386,25.1
387,0.39692801343844364
388,0.0
425,0.0
450,0.0
451,0.0
452,-1.6183920215770917
453,0.0
490,0.0
515,0.0
516,0.0
542,0.0
592,4798202.37939007
632,2907769.166892846
686,1.0
687,1.0
688,2.0
2,21, 1,21, 0, 2,30.00,40.00,Monday
250,22.258769507733245
251,5670790.535263684
336,0.0
385,22.016666666666655
386,25.09999999999998
387,0.3752365521169883
388,0.0
425,0.0
450,0.0
451,0.0
452,-1.628904148187415
453,0.0
490,0.0
515,0.0
516,0.0
542,0.0
592,2546474.6851586504
632,3024815.3794065
686,0.542351136224791
687,0.49999999999999967
688,1.1666666666666659
2,21, 1,21, 0, 2,40.00,50.00,Monday
250,22.638281165032133
251,5493687.138051687
336,0.0
385,22.68333333333335
386,25.100000000000023
387,0.3517309852513012
388,0.0
425,0.0
450,0.0
451,0.0
452,-1.642820164920502
453,0.0
490,0.0
515,0.0
516,0.0
542,0.0
592,3312548.9725812366
632,2165165.2921755034
686,0.6994232377424815
687,0.6666666666666672
688,1.6666666666666679
2,21, 1,21, 0, 2,50.00,60.00,Monday
250,22.874969558416865
251,6770754.996984302
336,0.0
385,23.35
386,25.1
387,0.3228044260792382
388,0.0
425,0.0
450,0.0
451,0.0
452,-1.6617727530099873
453,0.0
490,0.0
515,0.0
516,0.0
542,0.0
592,4798764.475461743
632,2521947.7210754873
686,1.0
687,1.0
688,2.0
2,21, 1,21, 0, 3, 0.00,10.00,Monday
250,23.304883486363032
251,7866380.428351222
336,0.0
385,23.35
386,25.1
387,0.297338124518311
388,0.0
425,0.0
450,0.0
451,0.0
452,-1.6782022647229053
453,0.0
490,0.0
515,0.0
516,0.0
542,0.0
592,4798201.501445768
632,2933792.2425263645
686,1.0
687,1.0
688,2.0
2,21, 1,21, 0, 3,10.00,20.00,Monday
250,22.256955709602206
251,5705339.07443371
336,0.0
385,22.01666666666667
386,25.1
387,0.2762835995470762
388,0.0
425,0.0
450,0.0
451,0.0
452,-1.688572149178015
453,0.0
490,0.0
515,0.0
516,0.0
542,0.0
592,2552523.248232688
632,3053895.1116805314
686,0.5440964002252722
687,0.5
688,1.1666666666666665
2,21, 1,21, 0, 3,20.00,30.00,Monday
250,22.639068281951943
251,5541474.513057874
336,0.0
385,22.683333333333326
386,25.09999999999999
387,0.2543657722489614
388,0.0
425,0.0
450,0.0
451,0.0
452,-1.6944368168090915
453,0.0
490,0.0
515,0.0
516,0.0
542,0.0
592,3325102.4255910944
632,2196803.7478303425
686,0.7030498018279335
687,0.6666666666666664
688,1.666666666666666
2,21, 1,21, 0, 3,30.00,40.00,Monday
250,22.876293691133068
251,6826559.980478464
336,0.0
385,23.349999999999994
386,25.099999999999994
387,0.2285378940439486
388,0.0
425,0.0
450,0.0
451,0.0
452,-1.695500560411953
453,0.0
490,0.0
515,0.0
516,0.0
542,0.0
592,4798770.818287761
632,2577160.5198843847
686,0.9999999999999997
687,0.9999999999999997
688,1.9999999999999993
2,21, 1,21, 0, 3,40.00,50.00,Monday
250,23.305047525554244
251,7920761.31901295
336,0.0
385,23.35
386,25.1
387,0.20659223978488356
388,0.0
425,0.0
450,0.0
451,0.0
452,-1.6916829656633272
453,0.0
490,0.0
515,0.0
516,0.0
542,0.0
592,4798199.410653699
632,2987840.0003718305
686,1.0
687,1.0
688,2.0
2,21, 1,21, 0, 3,50.00,60.00,Monday
250,22.25424143818354
251,5757020.929733663
336,0.0
385,22.01666666666664
386,25.099999999999962
387,0.1890066180208813
388,0.0
425,0.0
450,0.0
451,0.0
452,-1.6844258534740195
453,0.0
490,0.0
515,0.0
516,0.0
542,0.0
592,2561535.466793623
632,3097433.5543360603
686,0.5466967807137776
687,0.49999999999999933
688,1.166666666666665
2,21, 1,21, 0, 4, 0.00,10.00,Monday
250,22.641276992041167
251,5665982.686791974
336,0.0
385,22.683333333333334
386,25.1
387,0.1664190243056952
388,0.0
425,0.0
450,0.0
451,0.0
452,-1.676210344772818
453,0.0
490,0.0
515,0.0
516,0.0
542,0.0
592,3356022.094156169
632,2280201.981159065
686,0.7129534186381872
687,0.6666666666666666
688,1.6666666666666665
2,21, 1,21, 0, 4,10.00,20.00,Monday
250,22.87944203187964
251,7007547.028330505
336,0.0
385,23.35
386,25.1
387,0.13485307281300654
388,0.0
425,0.0
450,0.0
451,0.0
452,-1.667585362008099
453,0.0
490,0.0
515,0.0
516,0.0
542,0.0
592,4789956.624162626
632,2765009.059295349
686,1.0
687,1.0
688,2.0
2,21, 1,21, 0, 4,20.00,30.00,Monday
250,23.30547357528387
251,8168998.31361824
336,0.0
385,23.35
386,25.1
387,0.10384413522374185
388,0.0
425,0.0
450,0.0
451,0.0
452,-1.6635279101340892
453,0.0
490,0.0
515,0.0
516,0.0
542,0.0
592,4783360.914584557
632,3250108.0610023495
686,1.0
687,1.0
688,2.0
2,21, 1,21, 0, 4,30.00,40.00,Monday
250,22.2376236320914
251,6071818.290553771
336,0.0
385,22.016666666666655
386,25.09999999999998
387,0.07506237474512965
388,0.0
425,0.0
450,0.0
451,0.0
452,-1.6652738544385652
453,0.0
490,0.0
515,0.0
516,0.0
542,0.0
592,2606444.512043414
632,3372670.956066693
686,0.5627285210572148
687,0.49999999999999967
688,1.1666666666666659
2,21, 1,21, 0, 4,40.00,50.00,Monday
250,22.646858532404195
251,6007119.643737823
336,0.0
385,22.68333333333335
386,25.100000000000023
387,0.042953898312350136
388,0.0
425,0.0
450,0.0
451,0.0
452,-1.6717020424008533
453,0.0
490,0.0
515,0.0
516,0.0
542,0.0
592,3436395.4601488556
632,2514555.185606795
686,0.7405680440929254
687,0.6666666666666672
688,1.6666666666666679
2,21, 1,21, 0, 4,50.00,60.00,Monday
250,22.88636556806587
251,7314923.494546082
336,0.0
385,23.35
386,25.1
387,0.002119971761883361
388,0.0
425,0.0
450,0.0
451,0.0
452,-1.682932563432563
453,0.0
490,0.0
515,0.0
516,0.0
542,0.0
592,4770489.534059129
632,3085465.8217029492
686,1.0
687,1.0
688,2.0
2,21, 1,21, 0, 5, 0.00,10.00,Monday
250,23.306243657658527
251,8374351.064042373
336,0.0
385,23.35
386,25.1
387,-0.02629439553836808
388,0.0
425,0.0
450,0.0
451,0.0
452,-1.6911638553841066
453,0.0
490,0.0
515,0.0
516,0.0
542,0.0
592,4761423.787279127
632,3475587.3155472428
686,1.0
687,1.0
688,2.0
2,21, 1,21, 0, 5,10.00,20.00,Monday
250,22.232704330725927
251,6165960.948533965
336,0.0
385,22.01666666666667
386,25.1
387,-0.04129215505577924
388,0.0
425,0.0
450,0.0
451,0.0
452,-1.6924644432111438
453,0.0
490,0.0
515,0.0
516,0.0
542,0.0
592,2611389.9816778307
632,3463416.9205142874
686,0.5677940902245793
687,0.5
688,1.1666666666666665
2,21, 1,21, 0, 5,20.00,30.00,Monday
250,22.646350022828152
251,5992643.582444288
336,0.0
385,22.683333333333326
386,25.09999999999999
387,-0.052868906590687506
388,0.0
425,0.0
450,0.0
451,0.0
452,-1.686164325628372
453,0.0
490,0.0
515,0.0
516,0.0
542,0.0
592,3414836.181557686
632,2523862.3816730296
686,0.7392730753504683
687,0.6666666666666664
688,1.666666666666666
2,21, 1,21, 0, 5,30.00,40.00,Monday
250,22.885866084797936
251,7186302.176669067
336,0.0
385,23.349999999999994
386,25.099999999999994
387,-0.0630371295647496
388,0.0
425,0.0
450,0.0
451,0.0
452,-1.6695038822245583
453,0.0
490,0.0
515,0.0
516,0.0
542,0.0
592,4743349.43686553
632,2984186.5981105827
686,0.9999999999999997
687,0.9999999999999997
688,1.9999999999999993
2,21, 1,21, 0, 5,40.00,50.00,Monday
250,23.30616216750112
251,8245539.88807972
336,0.0
385,23.35
386,25.1
387,-0.06905842396821507
388,0.0
425,0.0
450,0.0
451,0.0
452,-1.6467093138895446
453,0.0
490,0.0
515,0.0
516,0.0
542,0.0
592,4734441.378200305
632,3373887.641536759
686,1.0
687,1.0
688,2.0
2,21, 1,21, 0, 5,50.00,60.00,Monday
250,22.239685519996492
251,6034120.0395720815
336,0.0
385,22.01666666666664
386,25.099999999999962
387,-0.07111528941501111
388,0.0
425,0.0
450,0.0
451,0.0
452,-1.620043869616697
453,0.0
490,0.0
515,0.0
516,0.0
542,0.0
592,2573791.75948271
632,3366837.319607464
686,0.5614743753321622
687,0.49999999999999933
688,1.166666666666665
2,21, 1,21, 0, 6, 0.00,10.00,Monday
250,22.64575592949737
251,5939649.195193036
336,0.0
385,22.683333333333334
386,25.1
387,-0.08015013733862358
388,0.0
425,0.0
450,0.0
451,0.0
452,-1.5941795415426356
453,0.0
490,0.0
515,0.0
516,0.0
542,0.0
592,3382078.112355066
632,2506755.394118119
686,0.7351456427582247
687,0.6666666666666666
688,1.6666666666666665
2,21, 1,21, 0, 6,10.00,20.00,Monday
250,22.885541846711433
251,7229157.700641334
336,0.0
385,23.35
386,25.1
387,-0.09859316874693218
388,0.0
425,0.0
450,0.0
451,0.0
452,-1.5727246321891057
453,0.0
490,0.0
515,0.0
516,0.0
542,0.0
592,4720018.813683787
632,3051793.8840893777
686,1.0
687,1.0
688,2.0
2,21, 1,21, 0, 6,20.00,30.00,Monday
250,23.306182043752017
251,8369296.591760965
336,0.0
385,23.35
386,25.1
387,-0.12072305108691829
388,0.0
425,0.0
450,0.0
451,0.0
452,-1.567966562965617
453,0.0
490,0.0
515,0.0
516,0.0
542,0.0
592,4714194.367088425
632,3517997.001433361
686,1.0
687,1.0
688,2.0
2,21, 1,21, 0, 6,30.00,40.00,Monday
250,22.228646094389724
251,6243029.330395477
336,0.0
385,22.016666666666655
386,25.09999999999998
387,-0.14433867185856547
388,0.0
425,0.0
450,0.0
451,0.0
452,-1.5783637911699655
453,0.0
490,0.0
515,0.0
516,0.0
542,0.0
592,2601914.533390994
632,3551194.6272770474
686,0.5723728841085849
687,0.49999999999999967
688,1.1666666666666659
2,21, 1,21, 0, 6,40.00,50.00,Monday
250,22.64950771015661
251,6166220.92608505
336,0.0
385,22.68333333333335
386,25.100000000000023
387,-0.17213955030824624
388,0.0
425,0.0
450,0.0
451,0.0
452,-1.598164780418833
453,0.0
490,0.0
515,0.0
516,0.0
542,0.0
592,3433398.9844373097
632,2664151.72307209
686,0.7540482622973964
687,0.6666666666666672
688,1.6666666666666679
2,21, 1,21, 0, 6,50.00,60.00,Monday
250,22.88990849722907
251,7431169.268544721
336,0.0
385,23.35
386,25.1
387,-0.20896721033017976
388,0.0
425,0.0
450,0.0
451,0.0
452,-1.6302521828523533
453,0.0
490,0.0
515,0.0
516,0.0
542,0.0
592,4703625.020334449
632,3265772.4497431386
686,1.0
687,1.0
688,2.0
2,21, 1,21, 0, 7, 0.00,10.00,Monday
250,23.30665922872491
251,8576351.401394915
336,0.0
385,23.35
386,25.1
387,-0.24738044420190874
388,0.0
425,0.0
450,0.0
451,0.0
452,-1.6772888512039217
453,0.0
490,0.0
515,0.0
516,0.0
542,0.0
592,4721890.899958076
632,3716215.64657195
686,1.0
687,1.0
688,2.0
2,21, 1,21, 0, 7,10.00,20.00,Monday
250,22.21968428288452
251,6412401.320662184
336,0.0
385,22.01666666666667
386,25.1
387,-0.28857637529052793
388,0.0
425,0.0
450,0.0
451,0.0
452,-1.755444832767637
453,0.0
490,0.0
515,0.0
516,0.0
542,0.0
592,2648283.8817642275
632,3677228.43058847
686,0.5805038403312222
687,0.5
688,1.1666666666666665
2,21, 1,21, 0, 7,20.00,30.00,Monday
250,22.651748519330635
251,6320440.167215753
336,0.0
385,22.683333333333326
386,25.09999999999999
387,-0.3397123154703957
388,0.0
425,0.0
450,0.0
451,0.0
452,-1.8752773024253075
453,0.0
490,0.0
515,0.0
516,0.0
542,0.0
592,3516813.1844816045
632,2724078.84649386
686,0.7660616485492375
687,0.6666666666666664
688,1.666666666666666
2,21, 1,21, 0, 7,30.00,40.00,Monday
250,22.892020060117712
251,7528392.645205955
336,0.0
385,23.349999999999994
386,25.099999999999994
387,-0.4106800117078083
388,0.0
425,0.0
450,0.0
451,0.0
452,-2.057003081385501
453,0.0
490,0.0
515,0.0
516,0.0
542,0.0
592,4788038.938527392
632,3275218.119373943
686,0.9999999999999997
687,0.9999999999999997
688,1.9999999999999993
2,21, 1,21, 0, 7,40.00,50.00,Monday
250,23.30686790044042
251,8635094.256001212
336,0.0
385,23.35
386,25.1
387,-0.48114033430614295
388,0.0
425,0.0
450,0.0
451,0.0
452,-2.253623406644572
453,0.0
490,0.0
515,0.0
516,0.0
542,0.0
592,4802337.964474496
632,3693917.430190538
686,1.0
687,1.0
688,2.0
2,21, 1,21, 0, 7,50.00,60.00,Monday
250,22.21644350009722
251,6472458.917288472
336,0.0
385,22.01666666666664
386,25.099999999999962
387,-0.5489334941445083
388,0.0
425,0.0
450,0.0
451,0.0
452,-2.459196247390341
453,0.0
490,0.0
515,0.0
516,0.0
542,0.0
592,2698541.3292213324
632,3688279.7485130625
686,0.5823483645563288
687,0.49999999999999933
688,1.166666666666665
2,21, 1,21, 0, 8, 0.00,10.00,Monday
250,22.64520192531436
251,5991081.836364273
336,0.0
385,22.683333333333334
386,25.1
387,-0.6178774762070016
388,0.0
425,0.0
450,0.0
451,0.0
452,-2.6809432521824483
453,0.0
490,0.0
515,0.0
516,0.0
542,0.0
592,3466836.933789343
632,2475330.7615844756
686,0.7371908435536892
687,0.6666666666666666
688,1.6666666666666665
2,21, 1,21, 0, 8,10.00,20.00,Monday
250,22.886979146440723
251,7126282.967815861
336,0.0
385,23.35
386,25.1
387,-0.6894262117615187
388,0.0
425,0.0
450,0.0
451,0.0
452,-2.8608610649296082
453,0.0
490,0.0
515,0.0
516,0.0
542,0.0
592,4847830.954879645
632,2820699.397746416
686,1.0
687,1.0
688,2.0
2,21, 1,21, 0, 8,20.00,30.00,Monday
250,23.306327425907575
251,8188532.393344168
336,0.0
385,23.35
386,25.1
387,-0.7382806812105396
388,0.0
425,0.0
450,0.0
451,0.0
452,-2.8867466745288315
453,0.0
490,0.0
515,0.0
516,0.0
542,0.0
592,4852556.092887159
632,3198412.199901417
686,1.0
687,1.0
688,2.0
2,21, 1,21, 0, 8,30.00,40.00,Monday
250,22.24490944005248
251,5932948.479725532
336,0.0
385,22.016666666666655
386,25.09999999999998
387,-0.7633458986452428
388,0.0
425,0.0
450,0.0
451,0.0
452,-2.7773932294816537
453,0.0
490,0.0
515,0.0
516,0.0
542,0.0
592,2627720.8546401933
632,3210199.8704989464
686,0.5553894902795697
687,0.49999999999999967
688,1.1666666666666659
2,21, 1,21, 0, 8,40.00,50.00,Monday
250,22.641407502450612
251,5705585.952122397
336,0.0
385,22.68333333333335
386,25.100000000000023
387,-0.776187997935373
388,0.0
425,0.0
450,0.0
451,0.0
452,-2.561805028812944
453,0.0
490,0.0
515,0.0
516,0.0
542,0.0
592,3419261.0932651134
632,2255933.013455219
686,0.7149880230359711
687,0.6666666666666672
688,1.6666666666666679
2,21, 1,21, 0, 8,50.00,60.00,Monday
250,23.281153863647624
251,7692729.734307213
336,0.0
385,23.35
386,25.1
387,-0.7731336273469803
388,0.0
425,0.0
450,0.0
451,0.0
452,-2.2384720304459105
453,0.0
490,0.0
515,0.0
516,0.0
542,0.0
592,4884884.633583084
632,2734339.864403909
686,1.0
687,1.0
688,2.0
2,21, 1,21, 0, 9, 0.00,10.00,Monday
250,22.266151506529656
251,5498970.46265436
336,0.0
385,22.01666666666667
386,25.1
387,-0.7477680792065576
388,0.0
425,0.0
450,0.0
451,0.0
452,-1.845764098771247
453,0.0
490,0.0
515,0.0
516,0.0
542,0.0
592,2517657.2006344595
632,2884736.2081030207
686,0.5338017057106826
687,0.4595856560456062
688,1.1666666666666667
2,21, 1,21, 0, 9,10.00,20.00,Monday
250,22.63259890145345
251,5179409.017454219
336,0.0
385,22.683333333333334
386,25.1
387,-0.7032063797629589
388,0.0
425,0.0
450,0.0
451,0.0
452,-1.359627467044803
453,0.0
490,0.0
515,0.0
516,0.0
542,0.0
592,3303944.5888781454
632,1886627.478152659
686,0.6733847945939061
687,0.6666666666666667
688,1.6666666666666667
2,21, 1,21, 0, 9,20.00,30.00,Monday
250,22.663302535505196
251,6557932.181912509
336,0.0
385,22.683333333333326
386,25.09999999999999
387,-0.6245173439386977
388,0.0
425,0.0
450,0.0
451,0.0
452,-0.6497900828113161
453,0.0
490,0.0
515,0.0
516,0.0
542,0.0
592,2696897.8369166697
632,3781903.996772754
686,0.6292268181319306
687,0.3333333333333332
688,1.3333333333333328
2,21, 1,21, 0, 9,30.00,40.00,Monday
250,22.66416658892861
251,6510166.534954413
336,0.0
385,22.683333333333344
386,25.100000000000012
387,-0.5387462776762045
388,0.0
425,0.0
450,0.0
451,0.0
452,0.00038153049409943296
453,0.0
490,0.0
515,0.0
516,0.0
542,0.0
592,2710062.552217841
632,3717744.9634557953
686,0.6301374884718655
687,0.3333333333333332
688,1.3333333333333335
2,21, 1,21, 0, 9,40.00,50.00,Monday
250,22.663666846539517
251,6479954.114372029
336,0.0
385,22.68333333333335
386,25.100000000000023
387,-0.4583829478751059
388,0.0
425,0.0
450,0.0
451,0.0
452,0.616429310610269
453,0.0
490,0.0
515,0.0
516,0.0
542,0.0
592,2696897.7611172344
632,3703845.7393406397
686,0.6236492251510377
687,0.3333333333333336
688,1.3333333333333344
2,21, 1,21, 0, 9,50.00,60.00,Monday
250,23.282811248782757
251,7167935.272905394
336,0.0
385,23.35
386,25.1
387,-0.38678473531093926
388,0.0
425,0.0
450,0.0
451,0.0
452,1.123602230512399
453,0.0
490,0.0
515,0.0
516,0.0
542,0.0
592,4990213.928653214
632,2098308.529140767
686,1.0
687,1.0
688,2.0
2,21, 1,21, 0,10, 0.00,10.00,Monday
250,22.28211508607079
251,5170491.367476868
336,0.0
385,22.01666666666667
386,25.1
387,-0.31456785300668977
388,0.0
425,0.0
450,0.0
451,0.0
452,1.5870997744048845
453,0.0
490,0.0
515,0.0
516,0.0
542,0.0
592,2375278.194906315
632,2707292.179812758
686,0.5158140686812936
687,0.3583593010067568
688,1.1666666666666667
2,21, 1,21, 0,10,10.00,20.00,Monday
250,23.244365752593943
251,7133919.703043161
336,0.0
385,23.35
386,25.1
387,-0.2247920077132697
388,0.0
425,0.0
450,0.0
451,0.0
452,2.1111271500787003
453,0.0
490,0.0
515,0.0
516,0.0
542,0.0
592,5057659.96958453
632,2096467.8327263603
686,1.0
687,1.0
688,2.0
2,21, 1,21, 0,10,20.00,30.00,Monday
250,22.059853871437532
251,5079371.901223588
336,0.0
385,22.01666666666666
386,25.09999999999999
387,-0.12569330230237818
388,0.0
425,0.0
450,0.0
451,0.0
452,2.655822043976294
453,0.0
490,0.0
515,0.0
516,0.0
542,0.0
592,3394078.9928256907
632,1509354.838583385
686,0.6666666666666664
687,0.6666666666666664
688,1.3333333333333328
2,21, 1,21, 0,10,30.00,40.00,Monday
250,22.62278400783613
251,4718852.502465511
336,0.0
385,22.683333333333344
386,25.100000000000012
387,0.02311154039629435
388,0.0
425,0.0
450,0.0
451,0.0
452,3.3832210911764737
453,0.0
490,0.0
515,0.0
516,0.0
542,0.0
592,2805948.6299306527
632,1984377.709424272
686,0.63043407985291
687,0.3333333333333332
688,1.0
2,21, 1,21, 0,10,40.00,50.00,Monday
250,22.30444210061488
251,4657768.100614751
336,0.0
385,22.150000000000002
386,25.1
387,0.13197564464677944
388,0.0
425,0.0
450,0.0
451,0.0
452,3.9619863870231233
453,0.0
490,0.0
515,0.0
516,0.0
542,0.0
592,2331798.492481844
632,2377339.1471825684
686,0.4720674860458579
687,0.4
688,1.0
2,21, 1,21, 0,10,50.00,60.00,Monday
250,22.61298561374263
251,6236794.235750088
336,0.0
385,22.68333333333335
386,25.100000000000023
387,0.261620692551276
388,0.0
425,0.0
450,0.0
451,0.0
452,4.653546127077618
453,0.0
490,0.0
515,0.0
516,0.0
542,0.0
592,3564908.3611560175
632,2737321.808322901
686,0.8219811997659033
687,0.3333333333333336
688,1.3333333333333344
2,21, 1,21, 0,11, 0.00,10.00,Monday
250,22.747344918381664
251,4533993.817467561
336,0.0
385,22.683333333333334
386,25.1
387,0.46906030277417077
388,0.0
425,0.0
450,0.0
451,0.0
452,5.623953349188483
453,0.0
490,0.0
515,0.0
516,0.0
542,0.0
592,3472579.28240873
632,1018994.4606392714
686,0.6666666666666666
687,0.6666666666666666
688,1.3333333333333333
2,21, 1,21, 0,11,10.00,20.00,Monday
250,22.349437361719566
251,4326861.889019133
336,0.0
385,22.150000000000002
386,25.1
387,0.6170837682585344
388,0.0
425,0.0
450,0.0
451,0.0
452,6.3695199542420315
453,0.0
490,0.0
515,0.0
516,0.0
542,0.0
592,2264374.307999783
632,2103009.4440735043
686,0.4457158154519089
687,0.4
688,1.0
2,21, 1,21, 0,11,20.00,30.00,Monday
250,22.42904452363207
251,4420622.070062771
336,0.0
385,22.35
386,25.1
387,0.7844095830446881
388,0.0
425,0.0
450,0.0
451,0.0
452,7.20979677156766
453,0.0
490,0.0
515,0.0
516,0.0
542,0.0
592,1906968.9945122078
632,2637970.559773437
686,0.40695976067317463
687,0.25
688,1.0
2,21, 1,21, 0,11,30.00,40.00,Monday
250,22.46148185771142
251,5280082.881267209
336,0.0
385,22.35
386,25.1
387,1.0459816876301984
388,0.0
425,0.0
450,0.0
451,0.0
452,8.314095082842677
453,0.0
490,0.0
515,0.0
516,0.0
542,0.0
592,3137176.4528815886
632,2091662.0444462835
686,0.632728910826023
687,0.5
688,1.25
2,21, 1,21, 0,11,40.00,50.00,Monday
250,22.466001761985716
251,5203855.376847339
336,0.0
385,22.35
386,25.1
387,1.2868646043644636
388,0.0
425,0.0
450,0.0
451,0.0
452,9.206757172966944
453,0.0
490,0.0
515,0.0
516,0.0
542,0.0
592,3128120.9306522645
632,2020819.166732316
686,0.6274586565596741
687,0.5
688,1.25
2,21, 1,21, 0,11,50.00,60.00,Monday
250,22.46893913097838
251,5151446.71402752
336,0.0
385,22.35
386,25.1
387,1.5144358208448752
388,0.0
425,0.0
450,0.0
451,0.0
452,9.968278301009617
453,0.0
490,0.0
515,0.0
516,0.0
542,0.0
592,3122024.9270076747
632,1974435.318689418
686,0.6229941745410181
687,0.5
688,1.25
2,21, 1,21, 0,12, 0.00,10.00,Monday
250,22.470128987319534
251,5125221.929513672
336,0.0
385,22.35
386,25.1
387,1.7330395040058784
388,0.0
425,0.0
450,0.0
451,0.0
452,10.609338563178095
453,0.0
490,0.0
515,0.0
516,0.0
542,0.0
592,3118751.6874470054
632,1951321.6160600127
686,0.6210043826668199
687,0.5
688,1.25
2,21, 1,21, 0,12,10.00,20.00,Monday
250,22.47148947540547
251,5100865.344437605
336,0.0
385,22.35
386,25.1
387,1.9399089416025812
388,0.0
425,0.0
450,0.0
451,0.0
452,11.11256602384562
453,0.0
490,0.0
515,0.0
516,0.0
542,0.0
592,3114804.9199675615
632,1930996.7837076867
686,0.6188437445960985
687,0.5
688,1.25
2,21, 1,21, 0,12,20.00,30.00,Monday
250,22.472906029475396
251,5074821.095437984
336,0.0
385,22.35
386,25.1
387,2.131474567361458
388,0.0
425,0.0
450,0.0
451,0.0
452,11.486271837576894
453,0.0
490,0.0
515,0.0
516,0.0
542,0.0
592,3110394.703919723
632,1909440.8021515417
686,0.6165681941700747
687,0.5
688,1.25
2,21, 1,21, 0,12,30.00,40.00,Monday
250,22.47376956201734
251,5055450.203315876
336,0.0
385,22.35
386,25.1
387,2.3034090826132108
388,0.0
425,0.0
450,0.0
451,0.0
452,11.73258362354404
453,0.0
490,0.0
515,0.0
516,0.0
542,0.0
592,3108064.4258230315
632,1892400.4082226604
686,0.6148399287634269
687,0.5
688,1.25
2,21, 1,21, 0,12,40.00,50.00,Monday
250,22.474357683399948
251,5042540.394265339
336,0.0
385,22.35
386,25.1
387,2.4522698302594947
388,0.0
425,0.0
450,0.0
451,0.0
452,11.828373996950083
453,0.0
490,0.0
515,0.0
516,0.0
542,0.0
592,3107717.900480372
632,1879853.17314457
686,0.6136316970911139
687,0.5
688,1.25
2,21, 1,21, 0,12,50.00,60.00,Monday
250,22.474846519384354
251,5031878.850563595
336,0.0
385,22.35
386,25.1
387,2.5772237333088803
388,0.0
425,0.0
450,0.0
451,0.0
452,11.782268877559515
453,0.0
490,0.0
515,0.0
516,0.0
542,0.0
592,3107970.0282699647
632,1868974.0727393122
686,0.6125819380324509
687,0.5
688,1.25
2,21, 1,21, 0,13, 0.00,10.00,Monday
250,22.474923839863234
251,5025404.238662402
336,0.0
385,22.35
386,25.1
387,2.6815433595633107
388,0.0
425,0.0
450,0.0
451,0.0
452,11.663479633313402
453,0.0
490,0.0
515,0.0
516,0.0
542,0.0
592,3103832.4256534358
632,1866634.9717105841
686,0.6120744005825536
687,0.5
688,1.25
2,21, 1,21, 0,13,10.00,20.00,Monday
250,22.478213727637506
251,4979193.992253442
336,0.0
385,22.35
386,25.1
387,2.770852483282876
388,0.0
425,0.0
450,0.0
451,0.0
452,11.553342065751709
453,0.0
490,0.0
515,0.0
516,0.0
542,0.0
592,3086821.3630618216
632,1837906.937423161
686,0.608221280923154
687,0.5
688,1.25
2,21, 1,21, 0,13,20.00,30.00,Monday
250,22.481193437113756
251,4920832.758918555
336,0.0
385,22.35
386,25.1
387,2.850285430722393
388,0.0
425,0.0
450,0.0
451,0.0
452,11.485498702689661
453,0.0
490,0.0
515,0.0
516,0.0
542,0.0
592,3038632.429694185
632,1830755.6687976548
686,0.6036497507906549
687,0.4806428184163595
688,1.25
2,21, 1,21, 0,13,30.00,40.00,Monday
250,22.48407589974751
251,4862727.511479864
336,0.0
385,22.35
386,25.1
387,2.924818360865599
388,0.0
425,0.0
450,0.0
451,0.0
452,11.451140764951539
453,0.0
490,0.0
515,0.0
516,0.0
542,0.0
592,2987391.069793916
632,1827273.2748492796
686,0.5990424444138893
687,0.45925790881319234
688,1.25
2,21, 1,21, 0,13,40.00,50.00,Monday
250,22.486904641967307
251,4805875.1772597395
336,0.0
385,22.35
386,25.1
387,2.997536820126755
388,0.0
425,0.0
450,0.0
451,0.0
452,11.433542339530787
453,0.0
490,0.0
515,0.0
516,0.0
542,0.0
592,2936968.1163644986
632,1824223.2512596434
686,0.5945442271497847
687,0.43810070255719263
688,1.25
2,21, 1,21, 0,13,50.00,60.00,Monday
250,22.489688699750364
251,4749803.665477719
336,0.0
385,22.35
386,25.1
387,3.069083360216215
388,0.0
425,0.0
450,0.0
451,0.0
452,11.421792398255961
453,0.0
490,0.0
515,0.0
516,0.0
542,0.0
592,2887370.0230103047
632,1821091.1181292892
686,0.5900887162900611
687,0.4173502754313473
688,1.25
2,21, 1,21, 0,14, 0.00,10.00,Monday
250,22.493772186418948
251,4676563.593073676
336,0.0
385,22.35
386,25.1
387,3.1411469336633187
388,0.0
425,0.0
450,0.0
451,0.0
452,11.37935642267958
453,0.0
490,0.0
515,0.0
516,0.0
542,0.0
592,2830367.76523714
632,1809387.6897280286
686,0.5838774380757322
687,0.3903286987310773
688,1.25
2,21, 1,21, 0,14,10.00,20.00,Monday
250,22.494966877892868
251,4638443.336353037
336,0.0
385,22.35
386,25.1
387,3.211892150902552
388,0.0
425,0.0
450,0.0
451,0.0
452,11.262603461645083
453,0.0
490,0.0
515,0.0
516,0.0
542,0.0
592,2788385.412166069
632,1817000.3486603403
686,0.5810011494423433
687,0.3649544533057322
688,1.25
2,21, 1,21, 0,14,20.00,30.00,Monday
250,22.496459117989563
251,4608183.503535985
336,0.0
385,22.35
386,25.1
387,3.2765646780455353
388,0.0
425,0.0
450,0.0
451,0.0
452,11.070381187690424
453,0.0
490,0.0
515,0.0
516,0.0
542,0.0
592,2765573.3130091955
632,1811714.2669029976
686,0.5783470633536753
687,0.35214370234149034
688,1.25
2,21, 1,21, 0,14,30.00,40.00,Monday
250,22.49697436399265
251,4590937.203469485
336,0.0
385,22.35
386,25.1
387,3.3276373025839465
388,0.0
425,0.0
450,0.0
451,0.0
452,10.787783191954837
453,0.0
490,0.0
515,0.0
516,0.0
542,0.0
592,2750518.8288638424
632,1811151.0072286965
686,0.5768347587250348
687,0.34168735802244876
688,1.25
2,21, 1,21, 0,14,40.00,50.00,Monday
250,22.49683150064796
251,4590412.9255476
336,0.0
385,22.35
386,25.1
387,3.358968091382759
388,0.0
425,0.0
450,0.0
451,0.0
452,10.37974492711385
453,0.0
490,0.0
515,0.0
516,0.0
542,0.0
592,2748883.3534730133
632,1813036.7432630907
686,0.5768333310837876
687,0.3364179257136617
688,1.25
2,21, 1,21, 0,14,50.00,60.00,Monday
250,22.49620031615187
251,4601065.340348756