Program Version,EnergyPlus, Version 24.2.0-94a887817b, YMD=2025.02.11 00:15
1,5,Environment Title[],Latitude[deg],Longitude[deg],Time Zone[],Elevation[m]
2,8,Day of Simulation[],Month[],Day of Month[],DST Indicator[1=yes 0=no],Hour[],StartMinute[],EndMinute[],DayType
3,5,Cumulative Day of Simulation[],Month[],Day of Month[],DST Indicator[1=yes 0=no],DayType  ! When Daily Meters Requested
4,2,Cumulative Days of Simulation[],Month[]  ! When Monthly Meters Requested
5,1,Cumulative Days of Simulation[] ! When Run Period Meters Requested
6,1,Calendar Year of Simulation[] ! When Annual Meters Requested
11,9,Electricity:Facility [J] !Monthly [Value,Min,Day,Hour,Minute,Max,Day,Hour,Minute]
23,9,Electricity:Building [J] !Monthly [Value,Min,Day,Hour,Minute,Max,Day,Hour,Minute]
59,9,InteriorLights:Electricity [J] !Monthly [Value,Min,Day,Hour,Minute,Max,Day,Hour,Minute]
521,9,Electricity:HVAC [J] !Monthly [Value,Min,Day,Hour,Minute,Max,Day,Hour,Minute]
637,9,NaturalGas:Facility [J] !Monthly [Value,Min,Day,Hour,Minute,Max,Day,Hour,Minute]
649,9,NaturalGas:HVAC [J] !Monthly [Value,Min,Day,Hour,Minute,Max,Day,Hour,Minute]
13,11,Electricity:Facility [J] !RunPeriod [Value,Min,Month,Day,Hour,Minute,Max,Month,Day,Hour,Minute]
25,11,Electricity:Building [J] !RunPeriod [Value,Min,Month,Day,Hour,Minute,Max,Month,Day,Hour,Minute]
61,11,InteriorLights:Electricity [J] !RunPeriod [Value,Min,Month,Day,Hour,Minute,Max,Month,Day,Hour,Minute]
523,11,Electricity:HVAC [J] !RunPeriod [Value,Min,Month,Day,Hour,Minute,Max,Month,Day,Hour,Minute]
639,11,NaturalGas:Facility [J] !RunPeriod [Value,Min,Month,Day,Hour,Minute,Max,Month,Day,Hour,Minute]
651,11,NaturalGas:HVAC [J] !RunPeriod [Value,Min,Month,Day,Hour,Minute,Max,Month,Day,Hour,Minute]
End of Data Dictionary
1,RUN PERIOD 1,  41.98, -87.92,  -6.00, 201.00
4,31, 1
11,8703721796.317667,232890.82557942506,11,19,30,3486100.096385894,14,13,40
23,1854883320.4403138,106331.40582529013,11,20,20,1020504.9607496382,31,13,60
59,962307275.1919249,29755.945429558713, 1, 1,10,595118.9085911743, 1, 8,10
521,6848838475.877396,0.0,11,13,50,2567888.2703960775,27,20,20
637,15597059469.563808,0.0, 1,10,60,19683107.513635784,31, 7,40
649,15597059469.563808,0.0, 1,10,60,19683107.513635784,31, 7,40
4,59, 2
11,7129369230.218689,99999999999999.0,11,19,30,3490097.1032137717,26,10,30
23,1636353868.7296495,99999999999999.0,11,20,20,-99999999999999.0,31,13,60
59,841260089.1844795,99999999999999.0, 1, 1,10,-99999999999999.0, 1, 8,10
521,5493015361.489041,99999999999999.0,11,13,50,-99999999999999.0,27,20,20
637,12820096002.655397,99999999999999.0, 1,10,60,20532168.798687153, 3, 8,30
649,12820096002.655397,99999999999999.0, 1,10,60,20532168.798687153, 3, 8,30
4,90, 3
11,7006023420.693714,92305.92497768406,31,16,60,-99999999999999.0,26,10,30
23,1725735065.4963691,92305.92497768406,31,16,60,1029921.8946189331,18, 9,60
59,890178863.4706748,99999999999999.0, 1, 1,10,-99999999999999.0, 1, 8,10
521,5280288355.197335,99999999999999.0,11,13,50,-99999999999999.0,27,20,20
637,9445884239.62619,99999999999999.0, 1,10,60,-99999999999999.0, 3, 8,30
649,9445884239.62619,99999999999999.0, 1,10,60,-99999999999999.0, 3, 8,30
4,120, 4
11,4269524161.068088,29755.945429558713, 5, 3,60,-99999999999999.0,26,10,30
23,1654306501.0449526,29755.945429558713, 5, 3,10,-99999999999999.0,18, 9,60
59,921958213.189444,99999999999999.0, 1, 1,10,-99999999999999.0, 1, 8,10
521,2615217660.023137,99999999999999.0,11,13,50,-99999999999999.0,27,20,20
637,3668081658.546925,99999999999999.0, 1,10,60,-99999999999999.0, 3, 8,30
649,3668081658.546925,99999999999999.0, 1,10,60,-99999999999999.0, 3, 8,30
4,151, 5
11,3243161773.496487,99999999999999.0, 5, 3,60,-99999999999999.0,26,10,30
23,1627339233.673951,99999999999999.0, 5, 3,10,-99999999999999.0,18, 9,60
59,962307275.1919249,99999999999999.0, 1, 1,10,-99999999999999.0, 1, 8,10
521,1615822539.8225565,99999999999999.0,11,13,50,-99999999999999.0,27,20,20
637,851541448.8227634,99999999999999.0, 1,10,60,-99999999999999.0, 3, 8,30
649,851541448.8227634,99999999999999.0, 1,10,60,-99999999999999.0, 3, 8,30
4,181, 6
11,3148707582.3466487,99999999999999.0, 5, 3,60,-99999999999999.0,26,10,30
23,1367707853.2607017,99999999999999.0, 5, 3,10,-99999999999999.0,18, 9,60
59,849829801.4681945,99999999999999.0, 1, 1,10,-99999999999999.0, 1, 8,10
521,1780999729.085971,99999999999999.0,11,13,50,-99999999999999.0,27,20,20
637,36814124.24946656,99999999999999.0, 1,10,60,-99999999999999.0, 3, 8,30
649,36814124.24946656,99999999999999.0, 1,10,60,-99999999999999.0, 3, 8,30
4,212, 7
11,4024213254.2481756,99999999999999.0, 5, 3,60,-99999999999999.0,26,10,30
23,1463708790.098471,99999999999999.0, 5, 3,10,-99999999999999.0,18, 9,60
59,962307275.1919249,99999999999999.0, 1, 1,10,-99999999999999.0, 1, 8,10
521,2560504464.149759,99999999999999.0,11,13,50,-99999999999999.0,27,20,20
637,0.0,99999999999999.0, 1,10,60,-99999999999999.0, 3, 8,30
649,0.0,99999999999999.0, 1,10,60,-99999999999999.0, 3, 8,30
4,243, 8
11,3558328601.7599707,99999999999999.0, 5, 3,60,-99999999999999.0,26,10,30
23,1436034994.6802416,99999999999999.0, 5, 3,10,-99999999999999.0,18, 9,60
59,926243069.3313011,99999999999999.0, 1, 1,10,-99999999999999.0, 1, 8,10
521,2122293607.0797749,99999999999999.0,11,13,50,-99999999999999.0,27,20,20
637,11509483.649380907,99999999999999.0, 1,10,60,-99999999999999.0, 3, 8,30
649,11509483.649380907,99999999999999.0, 1,10,60,-99999999999999.0, 3, 8,30
4,273, 9
11,2852896503.56832,99999999999999.0, 5, 3,60,-99999999999999.0,26,10,30
23,1447683005.8503683,99999999999999.0, 5, 3,10,-99999999999999.0,18, 9,60
59,885894007.3288193,99999999999999.0, 1, 1,10,-99999999999999.0, 1, 8,10
521,1405213497.7179518,99999999999999.0,11,13,50,-99999999999999.0,27,20,20
637,62785529.08831385,99999999999999.0, 1,10,60,-99999999999999.0, 3, 8,30
649,62785529.08831385,99999999999999.0, 1,10,60,-99999999999999.0, 3, 8,30
4,304,10
11,3405282030.71557,99999999999999.0, 5, 3,60,-99999999999999.0,26,10,30
23,1682705354.5606391,99999999999999.0, 5, 3,10,-99999999999999.0,18, 9,60
59,962307275.1919249,99999999999999.0, 1, 1,10,-99999999999999.0, 1, 8,10
521,1722576676.1549356,99999999999999.0,11,13,50,-99999999999999.0,27,20,20
637,1923648717.4184628,99999999999999.0, 1,10,60,-99999999999999.0, 3, 8,30
649,1923648717.4184628,99999999999999.0, 1,10,60,-99999999999999.0, 3, 8,30
4,334,11
11,5905056020.86177,99999999999999.0, 5, 3,60,-99999999999999.0,26,10,30
23,1662595456.9022555,99999999999999.0, 5, 3,10,-99999999999999.0,18, 9,60
59,885894007.3288176,99999999999999.0, 1, 1,10,-99999999999999.0, 1, 8,10
521,4242460563.9595156,99999999999999.0,11,13,50,-99999999999999.0,27,20,20
637,7827454649.905304,99999999999999.0, 1,10,60,-99999999999999.0, 3, 8,30
649,7827454649.905304,99999999999999.0, 1,10,60,-99999999999999.0, 3, 8,30
4,365,12
11,7387873037.153533,99999999999999.0, 5, 3,60,-99999999999999.0,26,10,30
23,1753714477.4729092,99999999999999.0, 5, 3,10,-99999999999999.0,18, 9,60
59,926243069.3313003,99999999999999.0, 1, 1,10,-99999999999999.0, 1, 8,10
521,5634158559.680632,99999999999999.0,11,13,50,-99999999999999.0,27,20,20
637,9678696129.726862,99999999999999.0, 1,10,60,-99999999999999.0, 3, 8,30
649,9678696129.726862,99999999999999.0, 1,10,60,-99999999999999.0, 3, 8,30
5,365
13,60634157412.44807,29755.945429558713, 4, 5, 3,60,3490097.1032137717, 2,26,10,30
25,19312767922.210545,29755.945429558713, 4, 5, 3,10,1029921.8946189331, 3,18, 9,60
61,10976730221.395123,29755.945429558713, 1, 1, 1,10,595118.9085911743, 1, 1, 8,10
523,41321389490.23818,0.0, 1,11,13,50,2567888.2703960775, 1,27,20,20
639,61923571453.25287,0.0, 1, 1,10,60,20532168.798687153, 2, 3, 8,30
651,61923571453.25287,0.0, 1, 1,10,60,20532168.798687153, 2, 3, 8,30
1,RUN PERIOD 2,  41.98, -87.92,  -6.00, 201.00
4,1, 7
11,120084506.6836905,99999999999999.0, 5, 3,60,-99999999999999.0,26,10,30
23,61793338.20912285,99999999999999.0, 5, 3,10,-99999999999999.0,18, 9,60
59,40349062.00248151,99999999999999.0, 1, 1,10,-99999999999999.0, 1, 8,10
521,58291168.47456767,99999999999999.0,11,13,50,-99999999999999.0,27,20,20
637,0.0,99999999999999.0, 1,10,60,-99999999999999.0, 3, 8,30
649,0.0,99999999999999.0, 1,10,60,-99999999999999.0, 3, 8,30
5,1
13,120084506.6836905,99999999999999.0, 4, 5, 3,60,-99999999999999.0, 2,26,10,30
25,61793338.20912285,99999999999999.0, 4, 5, 3,10,-99999999999999.0, 3,18, 9,60
61,40349062.00248151,99999999999999.0, 1, 1, 1,10,-99999999999999.0, 1, 1, 8,10
523,58291168.47456767,99999999999999.0, 1,11,13,50,-99999999999999.0, 1,27,20,20
639,0.0,99999999999999.0, 1, 1,10,60,-99999999999999.0, 2, 3, 8,30
651,0.0,99999999999999.0, 1, 1,10,60,-99999999999999.0, 2, 3, 8,30
End of Data
 Number of Records Written=          90
