Program Version,EnergyPlus, Version 24.2.0-94a887817b, YMD=2025.02.04 17:21
1,5,Environment Title[],Latitude[deg],Longitude[deg],Time Zone[],Elevation[m]
2,8,Day of Simulation[],Month[],Day of Month[],DST Indicator[1=yes 0=no],Hour[],StartMinute[],EndMinute[],DayType
3,5,Cumulative Day of Simulation[],Month[],Day of Month[],DST Indicator[1=yes 0=no],DayType  ! When Daily Meters Requested
4,2,Cumulative Days of Simulation[],Month[]  ! When Monthly Meters Requested
5,1,Cumulative Days of Simulation[] ! When Run Period Meters Requested
6,1,Calendar Year of Simulation[] ! When Annual Meters Requested
11,9,Electricity:Facility [J] !Monthly [Value,Min,Day,Hour,Minute,Max,Day,Hour,Minute]
23,9,Electricity:Building [J] !Monthly [Value,Min,Day,Hour,Minute,Max,Day,Hour,Minute]
59,9,InteriorLights:Electricity [J] !Monthly [Value,Min,Day,Hour,Minute,Max,Day,Hour,Minute]
521,9,Electricity:HVAC [J] !Monthly [Value,Min,Day,Hour,Minute,Max,Day,Hour,Minute]
637,9,NaturalGas:Facility [J] !Monthly [Value,Min,Day,Hour,Minute,Max,Day,Hour,Minute]
649,9,NaturalGas:HVAC [J] !Monthly [Value,Min,Day,Hour,Minute,Max,Day,Hour,Minute]
13,11,Electricity:Facility [J] !RunPeriod [Value,Min,Month,Day,Hour,Minute,Max,Month,Day,Hour,Minute]
25,11,Electricity:Building [J] !RunPeriod [Value,Min,Month,Day,Hour,Minute,Max,Month,Day,Hour,Minute]
61,11,InteriorLights:Electricity [J] !RunPeriod [Value,Min,Month,Day,Hour,Minute,Max,Month,Day,Hour,Minute]
523,11,Electricity:HVAC [J] !RunPeriod [Value,Min,Month,Day,Hour,Minute,Max,Month,Day,Hour,Minute]
639,11,NaturalGas:Facility [J] !RunPeriod [Value,Min,Month,Day,Hour,Minute,Max,Month,Day,Hour,Minute]
651,11,NaturalGas:HVAC [J] !RunPeriod [Value,Min,Month,Day,Hour,Minute,Max,Month,Day,Hour,Minute]
End of Data Dictionary
1,YEARSIMULATION,  41.98, -87.92,  -6.00, 201.00
4,31, 1
11,8506409492.651881,352638.1462470198,11,19,30,3511025.569060746,26,16,20
23,1895068419.8049176,105415.91437099187,11,20,50,1050155.9647603645,30,11,60
59,974036492.100061,30118.629935069283, 1, 1,10,602372.5987013855, 1, 8,10
521,6611341072.846995,0.0,11,13,30,2541592.7192501402,27,20,40
637,15102265997.171408,0.0, 1,10,20,19504730.75412026,31, 7,50
649,15102265997.171408,0.0, 1,10,20,19504730.75412026,31, 7,50
4,59, 2
11,6991904572.851866,243253.96923346224,11,14,60,-99999999999999.0,26,16,20
23,1671001032.8310587,99999999999999.0,11,20,50,-99999999999999.0,30,11,60
59,851513905.5242351,99999999999999.0, 1, 1,10,-99999999999999.0, 1, 8,10
521,5320903540.020814,99999999999999.0,11,13,30,-99999999999999.0,27,20,40
637,12348259173.872355,99999999999999.0, 1,10,20,20180657.58100931, 3, 8,30
649,12348259173.872355,99999999999999.0, 1,10,20,20180657.58100931, 3, 8,30
4,90, 3
11,6970568334.8449545,92037.02614405478,31,16,60,-99999999999999.0,26,16,20
23,1816430974.5703561,92037.02614405478,31,16,60,-99999999999999.0,30,11,60
59,937532712.6187772,99999999999999.0, 1, 1,10,-99999999999999.0, 1, 8,10
521,5154137360.274618,99999999999999.0,11,13,30,-99999999999999.0,27,20,40
637,8857859178.762817,99999999999999.0, 1,10,20,-99999999999999.0, 3, 8,30
649,8857859178.762817,99999999999999.0, 1,10,20,-99999999999999.0, 3, 8,30
4,120, 4
11,4044565703.566666,30118.629935069283, 5, 2,40,-99999999999999.0,26,16,20
23,1647406313.9165456,30118.629935069283, 5, 1,60,-99999999999999.0,30,11,60
59,896691850.4268125,99999999999999.0, 1, 1,10,-99999999999999.0, 1, 8,10
521,2397159389.650119,99999999999999.0,11,13,30,-99999999999999.0,27,20,40
637,3589159997.6470466,99999999999999.0, 1,10,20,-99999999999999.0, 3, 8,30
649,3589159997.6470466,99999999999999.0, 1,10,20,-99999999999999.0, 3, 8,30
4,151, 5
11,2984641395.9021864,99999999999999.0, 5, 2,40,-99999999999999.0,26,16,20
23,1692809532.8917851,99999999999999.0, 5, 1,60,-99999999999999.0,30,11,60
59,974036492.100061,99999999999999.0, 1, 1,10,-99999999999999.0, 1, 8,10
521,1291831863.0103924,99999999999999.0,11,13,30,-99999999999999.0,27,20,40
637,730451004.3295026,99999999999999.0, 1,10,20,-99999999999999.0, 3, 8,30
649,730451004.3295026,99999999999999.0, 1,10,20,-99999999999999.0, 3, 8,30
4,181, 6
11,2936470385.1418886,99999999999999.0, 5, 2,40,-99999999999999.0,26,16,20
23,1492103688.039245,99999999999999.0, 5, 1,60,-99999999999999.0,30,11,60
59,896691850.426819,99999999999999.0, 1, 1,10,-99999999999999.0, 1, 8,10
521,1444366697.1026301,99999999999999.0,11,13,30,-99999999999999.0,27,20,40
637,30812923.571634647,99999999999999.0, 1,10,20,-99999999999999.0, 3, 8,30
649,30812923.571634647,99999999999999.0, 1,10,20,-99999999999999.0, 3, 8,30
4,212, 7
11,3672145161.819976,99999999999999.0, 5, 2,40,-99999999999999.0,26,16,20
23,1496509175.9057283,99999999999999.0, 5, 1,60,-99999999999999.0,30,11,60
59,937532712.6187617,99999999999999.0, 1, 1,10,-99999999999999.0, 1, 8,10
521,2175635985.9142103,99999999999999.0,11,13,30,-99999999999999.0,27,20,40
637,0.0,99999999999999.0, 1,10,20,-99999999999999.0, 3, 8,30
649,0.0,99999999999999.0, 1,10,20,-99999999999999.0, 3, 8,30
4,243, 8
11,3342023780.760134,99999999999999.0, 5, 2,40,-99999999999999.0,26,16,20
23,1582013658.6584032,99999999999999.0, 5, 1,60,-99999999999999.0,30,11,60
59,974036492.1000654,99999999999999.0, 1, 1,10,-99999999999999.0, 1, 8,10
521,1760010122.1017113,99999999999999.0,11,13,30,-99999999999999.0,27,20,40
637,2778000.469776226,99999999999999.0, 1,10,20,-99999999999999.0, 3, 8,30
649,2778000.469776226,99999999999999.0, 1,10,20,-99999999999999.0, 3, 8,30
4,273, 9
11,2513134291.007369,99999999999999.0, 5, 2,40,-99999999999999.0,26,16,20
23,1461264226.3221993,99999999999999.0, 5, 1,60,-99999999999999.0,30,11,60
59,860188070.9455131,99999999999999.0, 1, 1,10,-99999999999999.0, 1, 8,10
521,1051870064.6851614,99999999999999.0,11,13,30,-99999999999999.0,27,20,40
637,36226738.45161597,99999999999999.0, 1,10,20,-99999999999999.0, 3, 8,30
649,36226738.45161597,99999999999999.0, 1,10,20,-99999999999999.0, 3, 8,30
4,304,10
11,3299131483.7595115,99999999999999.0, 5, 2,40,-99999999999999.0,26,16,20
23,1733566945.5029972,99999999999999.0, 5, 1,60,-99999999999999.0,30,11,60
59,974036492.100061,99999999999999.0, 1, 1,10,-99999999999999.0, 1, 8,10
521,1565564538.2564988,99999999999999.0,11,13,30,-99999999999999.0,27,20,40
637,1754009658.2303383,99999999999999.0, 1,10,20,-99999999999999.0, 3, 8,30
649,1754009658.2303383,99999999999999.0, 1,10,20,-99999999999999.0, 3, 8,30
4,334,11
11,5793158462.015576,99999999999999.0, 5, 2,40,-99999999999999.0,26,16,20
23,1753931414.5860493,99999999999999.0, 5, 1,60,-99999999999999.0,30,11,60
59,933195629.9081334,99999999999999.0, 1, 1,10,-99999999999999.0, 1, 8,10
521,4039227047.4295278,99999999999999.0,11,13,30,-99999999999999.0,27,20,40
637,7361608314.607826,99999999999999.0, 1,10,20,-99999999999999.0, 3, 8,30
649,7361608314.607826,99999999999999.0, 1,10,20,-99999999999999.0, 3, 8,30
4,365,12
11,7154650549.784016,99999999999999.0, 5, 2,40,-99999999999999.0,26,16,20
23,1737573351.8920755,99999999999999.0, 5, 1,60,-99999999999999.0,30,11,60
59,901028933.1374623,99999999999999.0, 1, 1,10,-99999999999999.0, 1, 8,10
521,5417077197.891924,99999999999999.0,11,13,30,-99999999999999.0,27,20,40
637,9417977925.702463,99999999999999.0, 1,10,20,-99999999999999.0, 3, 8,30
649,9417977925.702463,99999999999999.0, 1,10,20,-99999999999999.0, 3, 8,30
5,365
13,58208803614.10605,30118.629935069283, 4, 5, 2,40,3511025.569060746, 1,26,16,20
25,19979678734.921535,30118.629935069283, 4, 5, 1,60,1050155.9647603645, 1,30,11,60
61,11110521634.006762,30118.629935069283, 1, 1, 1,10,602372.5987013855, 1, 1, 8,10
523,38229124879.18432,0.0, 1,11,13,30,2541592.7192501402, 1,27,20,40
639,59231408912.816734,0.0, 1, 1,10,20,20180657.58100931, 2, 3, 8,30
651,59231408912.816734,0.0, 1, 1,10,20,20180657.58100931, 2, 3, 8,30
End of Data
 Number of Records Written=          78
