Program Version,EnergyPlus, Version 24.2.0-94a887817b, YMD=2025.02.12 11:46
1,5,Environment Title[],Latitude[deg],Longitude[deg],Time Zone[],Elevation[m]
2,8,Day of Simulation[],Month[],Day of Month[],DST Indicator[1=yes 0=no],Hour[],StartMinute[],EndMinute[],DayType
3,5,Cumulative Day of Simulation[],Month[],Day of Month[],DST Indicator[1=yes 0=no],DayType  ! When Daily Meters Requested
4,2,Cumulative Days of Simulation[],Month[]  ! When Monthly Meters Requested
5,1,Cumulative Days of Simulation[] ! When Run Period Meters Requested
6,1,Calendar Year of Simulation[] ! When Annual Meters Requested
11,9,Electricity:Facility [J] !Monthly [Value,Min,Day,Hour,Minute,Max,Day,Hour,Minute]
23,9,Electricity:Building [J] !Monthly [Value,Min,Day,Hour,Minute,Max,Day,Hour,Minute]
59,9,InteriorLights:Electricity [J] !Monthly [Value,Min,Day,Hour,Minute,Max,Day,Hour,Minute]
521,9,Electricity:HVAC [J] !Monthly [Value,Min,Day,Hour,Minute,Max,Day,Hour,Minute]
637,9,NaturalGas:Facility [J] !Monthly [Value,Min,Day,Hour,Minute,Max,Day,Hour,Minute]
649,9,NaturalGas:HVAC [J] !Monthly [Value,Min,Day,Hour,Minute,Max,Day,Hour,Minute]
13,11,Electricity:Facility [J] !RunPeriod [Value,Min,Month,Day,Hour,Minute,Max,Month,Day,Hour,Minute]
25,11,Electricity:Building [J] !RunPeriod [Value,Min,Month,Day,Hour,Minute,Max,Month,Day,Hour,Minute]
61,11,InteriorLights:Electricity [J] !RunPeriod [Value,Min,Month,Day,Hour,Minute,Max,Month,Day,Hour,Minute]
523,11,Electricity:HVAC [J] !RunPeriod [Value,Min,Month,Day,Hour,Minute,Max,Month,Day,Hour,Minute]
639,11,NaturalGas:Facility [J] !RunPeriod [Value,Min,Month,Day,Hour,Minute,Max,Month,Day,Hour,Minute]
651,11,NaturalGas:HVAC [J] !RunPeriod [Value,Min,Month,Day,Hour,Minute,Max,Month,Day,Hour,Minute]
End of Data Dictionary
1,RUN PERIOD 1,  41.98, -87.92,  -6.00, 201.00
4,31, 1
11,8973992412.366936,262214.01579025213,11,19,60,3468802.528112957,23,13,30
23,1803873985.1904635,105456.67785371341,11,20,50,990933.3575465349,31,13,60
59,867272125.2107754,26817.31988901466, 1, 1,10,536346.3977802931, 1, 8,10
521,7170118427.176509,0.0,11,13,60,2573870.3728012173,27,20,10
637,16001314475.845304,0.0, 1,10,40,20093983.493600048,31, 7,40
649,16001314475.845304,0.0, 1,10,40,20093983.493600048,31, 7,40
4,59, 2
11,7339136359.62886,240808.97977540852, 9,14,30,3473538.963597143,21,12,30
23,1591697255.7082698,99999999999999.0,11,20,50,-99999999999999.0,31,13,60
59,758179267.9022546,99999999999999.0, 1, 1,10,-99999999999999.0, 1, 8,10
521,5747439103.920571,99999999999999.0,11,13,60,2574692.2920045876, 5, 4,10
637,13271401399.572098,99999999999999.0, 1,10,40,20939282.818288863, 3, 7,60
649,13271401399.572098,99999999999999.0, 1,10,40,20939282.818288863, 3, 7,60
4,90, 3
11,7336028689.701541,90054.20283567041,31,16,60,-99999999999999.0,21,12,30
23,1678406969.0285945,90054.20283567041,31,16,60,999804.772784434,18, 9,60
59,802266941.799814,99999999999999.0, 1, 1,10,-99999999999999.0, 1, 8,10
521,5657621720.672987,99999999999999.0,11,13,60,-99999999999999.0, 5, 4,10
637,9730768750.996319,99999999999999.0, 1,10,40,-99999999999999.0, 3, 7,60
649,9730768750.996319,99999999999999.0, 1,10,40,-99999999999999.0, 3, 7,60
4,120, 4
11,4229213747.569721,26817.31988901466,12,19,10,-99999999999999.0,21,12,30
23,1617558278.4258108,26817.31988901466, 5, 3,40,-99999999999999.0,18, 9,60
59,830907839.4412849,99999999999999.0, 1, 1,10,-99999999999999.0, 1, 8,10
521,2611655469.143913,99999999999999.0,11,13,60,-99999999999999.0, 5, 4,10
637,3994080051.330522,99999999999999.0, 1,10,40,-99999999999999.0, 3, 7,60
649,3994080051.330522,99999999999999.0, 1,10,40,-99999999999999.0, 3, 7,60
4,151, 5
11,2904108666.7475414,99999999999999.0,12,19,10,-99999999999999.0,21,12,30
23,1605404039.6201723,99999999999999.0, 5, 3,40,-99999999999999.0,18, 9,60
59,867272125.2107754,99999999999999.0, 1, 1,10,-99999999999999.0, 1, 8,10
521,1298704627.127349,99999999999999.0,11,13,60,-99999999999999.0, 5, 4,10
637,958428987.6874754,99999999999999.0, 1,10,40,-99999999999999.0, 3, 7,60
649,958428987.6874754,99999999999999.0, 1,10,40,-99999999999999.0, 3, 7,60
4,181, 6
11,2657262147.3052406,99999999999999.0,12,19,10,-99999999999999.0,21,12,30
23,1362064851.6861365,99999999999999.0, 5, 3,40,-99999999999999.0,18, 9,60
59,765902656.0303057,99999999999999.0, 1, 1,10,-99999999999999.0, 1, 8,10
521,1295197295.619112,99999999999999.0,11,13,60,-99999999999999.0, 5, 4,10
637,41408002.57822461,99999999999999.0, 1,10,40,-99999999999999.0, 3, 7,60
649,41408002.57822461,99999999999999.0, 1,10,40,-99999999999999.0, 3, 7,60
4,212, 7
11,3415395466.9276667,99999999999999.0,12,19,10,-99999999999999.0,21,12,30
23,1470032502.2881165,99999999999999.0, 5, 3,40,-99999999999999.0,18, 9,60
59,867272125.2107925,99999999999999.0, 1, 1,10,-99999999999999.0, 1, 8,10
521,1945362964.6395755,99999999999999.0,11,13,60,-99999999999999.0, 5, 4,10
637,0.0,99999999999999.0, 1,10,40,-99999999999999.0, 3, 7,60
649,0.0,99999999999999.0, 1,10,40,-99999999999999.0, 3, 7,60
4,243, 8
11,2978574351.6404014,99999999999999.0,12,19,10,-99999999999999.0,21,12,30
23,1450333484.603047,99999999999999.0, 5, 3,40,-99999999999999.0,18, 9,60
59,834769533.5052935,99999999999999.0, 1, 1,10,-99999999999999.0, 1, 8,10
521,1528240867.0373602,99999999999999.0,11,13,60,-99999999999999.0, 5, 4,10
637,10833634.905088222,99999999999999.0, 1,10,40,-99999999999999.0, 3, 7,60
649,10833634.905088222,99999999999999.0, 1,10,40,-99999999999999.0, 3, 7,60
4,273, 9
11,2410647669.666615,99999999999999.0,12,19,10,-99999999999999.0,21,12,30
23,1436137146.7555125,99999999999999.0, 5, 3,40,-99999999999999.0,18, 9,60
59,798405247.7357954,99999999999999.0, 1, 1,10,-99999999999999.0, 1, 8,10
521,974510522.9111007,99999999999999.0,11,13,60,-99999999999999.0, 5, 4,10
637,65033869.643325396,99999999999999.0, 1,10,40,-99999999999999.0, 3, 7,60
649,65033869.643325396,99999999999999.0, 1,10,40,-99999999999999.0, 3, 7,60
4,304,10
11,3321923202.157111,99999999999999.0,12,19,10,-99999999999999.0,21,12,30
23,1641647809.7164657,99999999999999.0, 5, 3,40,-99999999999999.0,18, 9,60
59,867272125.2107754,99999999999999.0, 1, 1,10,-99999999999999.0, 1, 8,10
521,1680275392.440632,99999999999999.0,11,13,60,-99999999999999.0, 5, 4,10
637,2129101333.7259433,99999999999999.0, 1,10,40,-99999999999999.0, 3, 7,60
649,2129101333.7259433,99999999999999.0, 1,10,40,-99999999999999.0, 3, 7,60
4,334,11
11,6019761036.713143,99999999999999.0,12,19,10,-99999999999999.0,21,12,30
23,1615534099.5922594,99999999999999.0, 5, 3,40,-99999999999999.0,18, 9,60
59,798405247.7357881,99999999999999.0, 1, 1,10,-99999999999999.0, 1, 8,10
521,4404226937.1209,99999999999999.0,11,13,60,-99999999999999.0, 5, 4,10
637,8385433948.509478,99999999999999.0, 1,10,40,-99999999999999.0, 3, 7,60
649,8385433948.509478,99999999999999.0, 1,10,40,-99999999999999.0, 3, 7,60
4,365,12
11,7607993726.768544,99999999999999.0,12,19,10,-99999999999999.0,21,12,30
23,1704191190.5941465,99999999999999.0, 5, 3,40,-99999999999999.0,18, 9,60
59,834769533.505303,99999999999999.0, 1, 1,10,-99999999999999.0, 1, 8,10
521,5903802536.174395,99999999999999.0,11,13,60,-99999999999999.0, 5, 4,10
637,10435190141.187048,99999999999999.0, 1,10,40,-99999999999999.0, 3, 7,60
649,10435190141.187048,99999999999999.0, 1,10,40,-99999999999999.0, 3, 7,60
5,365
13,59194037477.192314,26817.31988901466, 4,12,19,10,3473538.963597143, 2,21,12,30
25,18976881613.208702,26817.31988901466, 4, 5, 3,40,999804.772784434, 3,18, 9,60
61,9892694768.49961,26817.31988901466, 1, 1, 1,10,536346.3977802931, 1, 1, 8,10
523,40217155863.984886,0.0, 1,11,13,60,2574692.2920045876, 2, 5, 4,10
639,65022994595.980774,0.0, 1, 1,10,40,20939282.818288863, 2, 3, 7,60
651,65022994595.980774,0.0, 1, 1,10,40,20939282.818288863, 2, 3, 7,60
1,RUN PERIOD 2,  41.98, -87.92,  -6.00, 201.00
4,1, 7
11,102003807.22784851,99999999999999.0,12,19,10,-99999999999999.0,21,12,30
23,61745364.67652624,99999999999999.0, 5, 3,40,-99999999999999.0,18, 9,60
59,36364285.76950393,99999999999999.0, 1, 1,10,-99999999999999.0, 1, 8,10
521,40258442.551322274,99999999999999.0,11,13,60,-99999999999999.0, 5, 4,10
637,0.0,99999999999999.0, 1,10,40,-99999999999999.0, 3, 7,60
649,0.0,99999999999999.0, 1,10,40,-99999999999999.0, 3, 7,60
5,1
13,102003807.22784851,99999999999999.0, 4,12,19,10,-99999999999999.0, 2,21,12,30
25,61745364.67652624,99999999999999.0, 4, 5, 3,40,-99999999999999.0, 3,18, 9,60
61,36364285.76950393,99999999999999.0, 1, 1, 1,10,-99999999999999.0, 1, 1, 8,10
523,40258442.551322274,99999999999999.0, 1,11,13,60,-99999999999999.0, 2, 5, 4,10
639,0.0,99999999999999.0, 1, 1,10,40,-99999999999999.0, 2, 3, 7,60
651,0.0,99999999999999.0, 1, 1,10,40,-99999999999999.0, 2, 3, 7,60
End of Data
 Number of Records Written=          90
