Program Version,EnergyPlus, Version 24.2.0-94a887817b, YMD=2025.02.04 17:10
1,5,Environment Title[],Latitude[deg],Longitude[deg],Time Zone[],Elevation[m]
2,8,Day of Simulation[],Month[],Day of Month[],DST Indicator[1=yes 0=no],Hour[],StartMinute[],EndMinute[],DayType
3,5,Cumulative Day of Simulation[],Month[],Day of Month[],DST Indicator[1=yes 0=no],DayType  ! When Daily Meters Requested
4,2,Cumulative Days of Simulation[],Month[]  ! When Monthly Meters Requested
5,1,Cumulative Days of Simulation[] ! When Run Period Meters Requested
6,1,Calendar Year of Simulation[] ! When Annual Meters Requested
11,9,Electricity:Facility [J] !Monthly [Value,Min,Day,Hour,Minute,Max,Day,Hour,Minute]
23,9,Electricity:Building [J] !Monthly [Value,Min,Day,Hour,Minute,Max,Day,Hour,Minute]
59,9,InteriorLights:Electricity [J] !Monthly [Value,Min,Day,Hour,Minute,Max,Day,Hour,Minute]
521,9,Electricity:HVAC [J] !Monthly [Value,Min,Day,Hour,Minute,Max,Day,Hour,Minute]
637,9,NaturalGas:Facility [J] !Monthly [Value,Min,Day,Hour,Minute,Max,Day,Hour,Minute]
649,9,NaturalGas:HVAC [J] !Monthly [Value,Min,Day,Hour,Minute,Max,Day,Hour,Minute]
13,11,Electricity:Facility [J] !RunPeriod [Value,Min,Month,Day,Hour,Minute,Max,Month,Day,Hour,Minute]
25,11,Electricity:Building [J] !RunPeriod [Value,Min,Month,Day,Hour,Minute,Max,Month,Day,Hour,Minute]
61,11,InteriorLights:Electricity [J] !RunPeriod [Value,Min,Month,Day,Hour,Minute,Max,Month,Day,Hour,Minute]
523,11,Electricity:HVAC [J] !RunPeriod [Value,Min,Month,Day,Hour,Minute,Max,Month,Day,Hour,Minute]
639,11,NaturalGas:Facility [J] !RunPeriod [Value,Min,Month,Day,Hour,Minute,Max,Month,Day,Hour,Minute]
651,11,NaturalGas:HVAC [J] !RunPeriod [Value,Min,Month,Day,Hour,Minute,Max,Month,Day,Hour,Minute]
End of Data Dictionary
1,YEARSIMULATION,  41.98, -87.92,  -6.00, 201.00
4,31, 1
11,9274321720.326134,330823.0245194561,11,19,60,3536399.2345277644,23,14,10
23,1884185598.3837807,108705.82178543802,11,20,40,1041109.5797492175,30,13,60
59,906685077.4899936,28036.025896411906, 1, 1,10,560720.517928238, 1, 8,10
521,7390136121.942425,0.0,11,13,30,2578343.3771823416,27,19,50
637,16969547418.225615,0.0, 1, 2,60,20896166.088057704,31, 7,60
649,16969547418.225615,0.0, 1, 2,60,20896166.088057704,31, 7,60
4,59, 2
11,7713069209.700678,248012.86625952896,11,14,60,-99999999999999.0,23,14,10
23,1662008051.8547282,99999999999999.0,11,20,40,-99999999999999.0,30,13,60
59,792634524.1433914,99999999999999.0, 1, 1,10,-99999999999999.0, 1, 8,10
521,6051061157.8459635,99999999999999.0,11,13,30,2615115.1402974594, 5, 2,10
637,13726140207.41536,99999999999999.0, 1, 2,60,21461286.99891925, 3, 8,30
649,13726140207.41536,99999999999999.0, 1, 2,60,21461286.99891925, 3, 8,30
4,90, 3
11,7705018647.453262,96959.44818566291,31,16,40,-99999999999999.0,23,14,10
23,1806303427.5297506,94482.82027254015,31,16,50,-99999999999999.0,30,13,60
59,872705414.1035483,99999999999999.0, 1, 1,10,-99999999999999.0, 1, 8,10
521,5898715219.923525,99999999999999.0,11,13,30,-99999999999999.0, 5, 2,10
637,10174329274.35631,99999999999999.0, 1, 2,60,-99999999999999.0, 3, 8,30
649,10174329274.35631,99999999999999.0, 1, 2,60,-99999999999999.0, 3, 8,30
4,120, 4
11,4485917580.49959,49176.15159195883,13,19,60,-99999999999999.0,23,14,10
23,1646307802.2377594,28036.025896411906,13,19,30,-99999999999999.0,30,13,60
59,834688562.988006,99999999999999.0, 1, 1,10,-99999999999999.0, 1, 8,10
521,2839609778.2618365,99999999999999.0,11,13,30,-99999999999999.0, 5, 2,10
637,4316654015.717406,99999999999999.0, 1, 2,60,-99999999999999.0, 3, 8,30
649,4316654015.717406,99999999999999.0, 1, 2,60,-99999999999999.0, 3, 8,30
4,151, 5
11,2949349016.2020564,28036.025896411906,23,19,20,-99999999999999.0,23,14,10
23,1692496510.2471907,99999999999999.0,13,19,30,-99999999999999.0,30,13,60
59,906685077.4899936,99999999999999.0, 1, 1,10,-99999999999999.0, 1, 8,10
521,1256852505.9548795,99999999999999.0,11,13,30,-99999999999999.0, 5, 2,10
637,1060528491.2852789,99999999999999.0, 1, 2,60,-99999999999999.0, 3, 8,30
649,1060528491.2852789,99999999999999.0, 1, 2,60,-99999999999999.0, 3, 8,30
4,181, 6
11,2639537655.7528415,99999999999999.0,23,19,20,-99999999999999.0,23,14,10
23,1496344918.3179088,99999999999999.0,13,19,30,-99999999999999.0,30,13,60
59,834688562.9880043,99999999999999.0, 1, 1,10,-99999999999999.0, 1, 8,10
521,1143192737.4349296,99999999999999.0,11,13,30,-99999999999999.0, 5, 2,10
637,61658887.61783859,99999999999999.0, 1, 2,60,-99999999999999.0, 3, 8,30
649,61658887.61783859,99999999999999.0, 1, 2,60,-99999999999999.0, 3, 8,30
4,212, 7
11,3203582671.632851,99999999999999.0,23,19,20,-99999999999999.0,23,14,10
23,1517671107.5256858,99999999999999.0,13,19,30,-99999999999999.0,30,13,60
59,872705414.1035415,99999999999999.0, 1, 1,10,-99999999999999.0, 1, 8,10
521,1685911564.1071517,99999999999999.0,11,13,30,-99999999999999.0, 5, 2,10
637,687079.2703601433,99999999999999.0, 1, 2,60,-99999999999999.0, 3, 8,30
649,687079.2703601433,99999999999999.0, 1, 2,60,-99999999999999.0, 3, 8,30
4,243, 8
11,2919352072.491003,99999999999999.0,23,19,20,-99999999999999.0,23,14,10
23,1597963250.3113248,99999999999999.0,13,19,30,-99999999999999.0,30,13,60
59,906685077.4899979,99999999999999.0, 1, 1,10,-99999999999999.0, 1, 8,10
521,1321388822.1796794,99999999999999.0,11,13,30,-99999999999999.0, 5, 2,10
637,14159283.130272185,99999999999999.0, 1, 2,60,-99999999999999.0, 3, 8,30
649,14159283.130272185,99999999999999.0, 1, 2,60,-99999999999999.0, 3, 8,30
4,273, 9
11,2308951696.576016,99999999999999.0,23,19,20,-99999999999999.0,23,14,10
23,1465791710.6347287,99999999999999.0,13,19,30,-99999999999999.0,30,13,60
59,800708899.6015538,99999999999999.0, 1, 1,10,-99999999999999.0, 1, 8,10
521,843159985.9412944,99999999999999.0,11,13,30,-99999999999999.0, 5, 2,10
637,79450803.93030426,99999999999999.0, 1, 2,60,-99999999999999.0, 3, 8,30
649,79450803.93030426,99999999999999.0, 1, 2,60,-99999999999999.0, 3, 8,30
4,304,10
11,3561780287.954024,99999999999999.0,23,19,20,-99999999999999.0,23,14,10
23,1724394152.1078258,99999999999999.0,13,19,30,-99999999999999.0,30,13,60
59,906685077.4899936,99999999999999.0, 1, 1,10,-99999999999999.0, 1, 8,10
521,1837386135.8462,99999999999999.0,11,13,30,-99999999999999.0, 5, 2,10
637,2351755264.3531256,99999999999999.0, 1, 2,60,-99999999999999.0, 3, 8,30
649,2351755264.3531256,99999999999999.0, 1, 2,60,-99999999999999.0, 3, 8,30
4,334,11
11,6416997754.626258,99999999999999.0,23,19,20,-99999999999999.0,23,14,10
23,1742917282.4953694,99999999999999.0,13,19,30,-99999999999999.0,30,13,60
59,868668226.3744624,99999999999999.0, 1, 1,10,-99999999999999.0, 1, 8,10
521,4674080472.130897,99999999999999.0,11,13,30,-99999999999999.0, 5, 2,10
637,8669008669.361969,99999999999999.0, 1, 2,60,-99999999999999.0, 3, 8,30
649,8669008669.361969,99999999999999.0, 1, 2,60,-99999999999999.0, 3, 8,30
4,365,12
11,8051169135.67224,99999999999999.0,23,19,20,3547347.1652772985,18,11,60
23,1728162627.6495006,99999999999999.0,13,19,30,-99999999999999.0,30,13,60
59,838725750.7170893,99999999999999.0, 1, 1,10,-99999999999999.0, 1, 8,10
521,6323006508.022721,99999999999999.0,11,13,30,-99999999999999.0, 5, 2,10
637,10538456513.74477,99999999999999.0, 1, 2,60,-99999999999999.0, 3, 8,30
649,10538456513.74477,99999999999999.0, 1, 2,60,-99999999999999.0, 3, 8,30
5,365
13,61229047448.88686,28036.025896411906, 5,23,19,20,3547347.1652772985,12,18,11,60
25,19964546439.296043,28036.025896411906, 4,13,19,30,1041109.5797492175, 1,30,13,60
61,10342265664.974283,28036.025896411906, 1, 1, 1,10,560720.517928238, 1, 1, 8,10
523,41264501009.59162,0.0, 1,11,13,30,2615115.1402974594, 2, 5, 2,10
639,67962375908.40874,0.0, 1, 1, 2,60,21461286.99891925, 2, 3, 8,30
651,67962375908.40874,0.0, 1, 1, 2,60,21461286.99891925, 2, 3, 8,30
End of Data
 Number of Records Written=          78
