Program Version,EnergyPlus, Version 24.2.0-94a887817b, YMD=2025.02.04 17:21
1,5,Environment Title[],Latitude[deg],Longitude[deg],Time Zone[],Elevation[m]
2,8,Day of Simulation[],Month[],Day of Month[],DST Indicator[1=yes 0=no],Hour[],StartMinute[],EndMinute[],DayType
3,5,Cumulative Day of Simulation[],Month[],Day of Month[],DST Indicator[1=yes 0=no],DayType  ! When Daily Report Variables Requested
4,2,Cumulative Days of Simulation[],Month[]  ! When Monthly Report Variables Requested
5,1,Cumulative Days of Simulation[] ! When Run Period Report Variables Requested
6,1,Calendar Year of Simulation[] ! When Annual Report Variables Requested
250,1,LIVING ZONE,Zone Air Temperature [C] !TimeStep,REPORTSCH
251,1,LIVING ZONE,Zone Air System Sensible Heating Energy [J] !TimeStep,REPORTSCH
336,1,LIVING ZONE,Zone Air System Sensible Cooling Energy [J] !TimeStep,REPORTSCH
385,1,LIVING ZONE,Zone Thermostat Heating Setpoint Temperature [C] !TimeStep,REPORTSCH
386,1,LIVING ZONE,Zone Thermostat Cooling Setpoint Temperature [C] !TimeStep,REPORTSCH
387,1,GARAGE ZONE,Zone Air Temperature [C] !TimeStep,REPORTSCH
388,1,GARAGE ZONE,Zone Air System Sensible Heating Energy [J] !TimeStep,REPORTSCH
425,1,GARAGE ZONE,Zone Air System Sensible Cooling Energy [J] !TimeStep,REPORTSCH
450,1,GARAGE ZONE,Zone Thermostat Heating Setpoint Temperature [C] !TimeStep,REPORTSCH
451,1,GARAGE ZONE,Zone Thermostat Cooling Setpoint Temperature [C] !TimeStep,REPORTSCH
452,1,ATTIC ZONE,Zone Air Temperature [C] !TimeStep,REPORTSCH
453,1,ATTIC ZONE,Zone Air System Sensible Heating Energy [J] !TimeStep,REPORTSCH
490,1,ATTIC ZONE,Zone Air System Sensible Cooling Energy [J] !TimeStep,REPORTSCH
515,1,ATTIC ZONE,Zone Thermostat Heating Setpoint Temperature [C] !TimeStep,REPORTSCH
516,1,ATTIC ZONE,Zone Thermostat Cooling Setpoint Temperature [C] !TimeStep,REPORTSCH
542,1,ACDXCOIL 1,Cooling Coil Total Cooling Energy [J] !TimeStep,REPORTSCH
592,1,HEAT PUMP DX HEATING COIL 1,Heating Coil Heating Energy [J] !TimeStep,REPORTSCH
632,1,SUPP HEATING COIL 1,Heating Coil Heating Energy [J] !TimeStep,REPORTSCH
686,1,TWOSPEED HEAT PUMP 1,Unitary System DX Coil Cycling Ratio [] !TimeStep,REPORTSCH
687,1,TWOSPEED HEAT PUMP 1,Unitary System DX Coil Speed Ratio [] !TimeStep,REPORTSCH
688,1,TWOSPEED HEAT PUMP 1,Unitary System DX Coil Speed Level [] !TimeStep,REPORTSCH
End of Data Dictionary
1,YEARSIMULATION,  41.98, -87.92,  -6.00, 201.00
2,21, 1,21, 0, 1, 0.00,10.00,Sunday
250,21.82014712847229
251,5281383.168373985
336,0.0
385,21.55666666666667
386,26.79
387,0.6171047617175808
388,0.0
425,0.0
450,0.0
451,0.0
452,-1.6379871333547547
453,0.0
490,0.0
515,0.0
516,0.0
542,0.0
592,2378930.575953137
632,2809278.817581406
686,0.5202643040496719
687,0.39994768633807787
688,1.1666666666666667
2,21, 1,21, 0, 1,10.00,20.00,Sunday
250,22.784165859922958
251,7441352.868119028
336,0.0
385,22.89
386,26.79
387,0.5904189885792479
388,0.0
425,0.0
450,0.0
451,0.0
452,-1.6274619396534025
453,0.0
490,0.0
515,0.0
516,0.0
542,0.0
592,4862688.196631074
632,2599475.9710572516
686,1.0
687,1.0
688,2.0
2,21, 1,21, 0, 1,20.00,30.00,Sunday
250,22.88287166536741
251,6700332.228441472
336,0.0
385,22.89
386,26.79
387,0.5599053781611627
388,0.0
425,0.0
450,0.0
451,0.0
452,-1.6172557577108189
453,0.0
490,0.0
515,0.0
516,0.0
542,0.0
592,4846335.7524592
632,1607755.4548502155
686,1.0
687,1.0
688,2.0
2,21, 1,21, 0, 1,30.00,40.00,Sunday
250,21.81751591575726
251,5338082.907627912
336,0.0
385,21.55666666666665
386,26.789999999999978
387,0.5365096080958479
388,0.0
425,0.0
450,0.0
451,0.0
452,-1.6121854949849523
453,0.0
490,0.0
515,0.0
516,0.0
542,0.0
592,2393957.947616594
632,2848937.329935222
686,0.5234726868500349
687,0.42062124916334975
688,1.1666666666666659
2,21, 1,21, 0, 1,40.00,50.00,Sunday
250,22.78408055193824
251,7500212.4240222555
336,0.0
385,22.89
386,26.79
387,0.512184474964925
388,0.0
425,0.0
450,0.0
451,0.0
452,-1.608665616240652
453,0.0
490,0.0
515,0.0
516,0.0
542,0.0
592,4815207.61944908
632,2706536.0037978226
686,1.0
687,1.0
688,2.0
2,21, 1,21, 0, 1,50.00,60.00,Sunday
250,22.88288362133257
251,6753767.009000486
336,0.0
385,22.89
386,26.79
387,0.4835941752436523
388,0.0
425,0.0
450,0.0
451,0.0
452,-1.6062978783383197
453,0.0
490,0.0
515,0.0
516,0.0
542,0.0
592,4798865.798839498
632,1708660.3021139856
686,1.0
687,1.0
688,2.0
2,21, 1,21, 0, 2, 0.00,10.00,Sunday
250,21.815650882323727
251,5378224.945222453
336,0.0
385,21.55666666666667
386,26.79
387,0.46119914886705504
388,0.0
425,0.0
450,0.0
451,0.0
452,-1.6069321947305757
453,0.0
490,0.0
515,0.0
516,0.0
542,0.0
592,2405256.0887296093
632,2876373.4677999746
686,0.5257751123595716
687,0.4352760167130424
688,1.1666666666666667
2,21, 1,21, 0, 2,10.00,20.00,Sunday
250,22.784000675648727
251,7529681.363776406
336,0.0
385,22.89
386,26.79
387,0.43753738913220713
388,0.0
425,0.0
450,0.0
451,0.0
452,-1.6107819403232366
453,0.0
490,0.0
515,0.0
516,0.0
542,0.0
592,4799383.160304904
632,2752348.131112168
686,1.0
687,1.0
688,2.0
2,21, 1,21, 0, 2,20.00,30.00,Sunday
250,22.882886270625036
251,6767289.238637751
336,0.0
385,22.89
386,26.79
387,0.4092915369751887
388,0.0
425,0.0
450,0.0
451,0.0
452,-1.6191500214820373
453,0.0
490,0.0
515,0.0
516,0.0
542,0.0
592,4798865.868597527
632,1722184.9705462416
686,1.0
687,1.0
688,2.0
2,21, 1,21, 0, 2,30.00,40.00,Sunday
250,21.815067884399458
251,5390258.811461983
336,0.0
385,21.55666666666665
386,26.789999999999978
387,0.3868379045741915
388,0.0
425,0.0
450,0.0
451,0.0
452,-1.6296781485825138
453,0.0
490,0.0
515,0.0
516,0.0
542,0.0
592,2411925.440204935
632,2881466.161581588
686,0.5264362609296855
687,0.4386512888968429
688,1.1666666666666659
2,21, 1,21, 0, 2,40.00,50.00,Sunday
250,22.784009103369073
251,7542412.314394894
336,0.0
385,22.89
386,26.79
387,0.362826872104273
388,0.0
425,0.0
450,0.0
451,0.0
452,-1.6436029937131007
453,0.0
490,0.0
515,0.0
516,0.0
542,0.0
592,4799382.8524070475
632,2765253.062166476
686,1.0
687,1.0
688,2.0
2,21, 1,21, 0, 2,50.00,60.00,Sunday
250,22.882892278210097
251,6777260.199848914
336,0.0
385,22.89
386,26.79
387,0.33387684581181953
388,0.0
425,0.0
450,0.0
451,0.0
452,-1.6626109040997943
453,0.0
490,0.0
515,0.0
516,0.0
542,0.0
592,4798865.870140665
632,1732150.6241130382
686,1.0
687,1.0
688,2.0
2,21, 1,21, 0, 3, 0.00,10.00,Sunday
250,21.814121300293785
251,5409712.3145020455
336,0.0
385,21.55666666666667
386,26.79
387,0.3113932863517166
388,0.0
425,0.0
450,0.0
451,0.0
452,-1.6774753631709016
453,0.0
490,0.0
515,0.0
516,0.0
542,0.0
592,2422725.2263991004
632,2889678.970636008
686,0.5274903648263103
687,0.4441618015164007
688,1.1666666666666667
2,21, 1,21, 0, 3,10.00,20.00,Sunday
250,22.174951652051732
251,5279105.5759570515
336,0.0
385,22.223333333333333
386,26.79
387,0.28908594742514926
388,0.0
425,0.0
450,0.0
451,0.0
452,-1.6888326514077825
453,0.0
490,0.0
515,0.0
516,0.0
542,0.0
592,3254913.113668446
632,2023829.2789280368
686,0.682598967988869
687,0.6666666666666667
688,1.6666666666666667
2,21, 1,21, 0, 3,20.00,30.00,Sunday
250,22.409627887943717
251,6607729.593745981
336,0.0
385,22.89
386,26.79
387,0.26242629039047954
388,0.0
425,0.0
450,0.0
451,0.0
452,-1.6964248646651028
453,0.0
490,0.0
515,0.0
516,0.0
542,0.0
592,4797179.00645321
632,2363701.4170330185
686,1.0
687,1.0
688,2.0
2,21, 1,21, 0, 3,30.00,40.00,Sunday
250,22.84429365869061
251,7712234.686589774
336,0.0
385,22.89
386,26.79
387,0.23920535991471942
388,0.0
425,0.0
450,0.0
451,0.0
452,-1.6972990441822746
453,0.0
490,0.0
515,0.0
516,0.0
542,0.0
592,4799299.10899772
632,2779896.8644514587
686,1.0
687,1.0
688,2.0
2,21, 1,21, 0, 3,40.00,50.00,Sunday
250,21.80475539299356
251,5563697.562592749
336,0.0
385,21.556666666666636
386,26.78999999999996
387,0.22030194176605072
388,0.0
425,0.0
450,0.0
451,0.0
452,-1.693457958783238
453,0.0
490,0.0
515,0.0
516,0.0
542,0.0
592,2511495.1906259377
632,2952169.8898479156
686,0.5360963099824793
687,0.4896359497059285
688,1.166666666666665
2,21, 1,21, 0, 3,50.00,60.00,Sunday
250,22.176927470900914
251,5408676.028843724
336,0.0
385,22.22333333333335
386,26.79000000000002
387,0.20082946267759166
388,0.0
425,0.0
450,0.0
451,0.0
452,-1.686751130384263
453,0.0
490,0.0
515,0.0
516,0.0
542,0.0
592,3289014.7376359077
632,2110213.6547740498
686,0.6924145989115986
687,0.6666666666666672
688,1.6666666666666679
2,21, 1,21, 0, 4, 0.00,10.00,Sunday
250,22.413468169170507
251,6781115.471151439
336,0.0
385,22.89
386,26.79
387,0.17361044798285794
388,0.0
425,0.0
450,0.0
451,0.0
452,-1.677785106124135
453,0.0
490,0.0
515,0.0
516,0.0
542,0.0
592,4792991.168422481
632,2539660.187239159
686,1.0
687,1.0
688,2.0
2,21, 1,21, 0, 4,10.00,20.00,Sunday
250,22.844801393751716
251,7934274.098604449
336,0.0
385,22.89
386,26.79
387,0.14507505407649085
388,0.0
425,0.0
450,0.0
451,0.0
452,-1.6714763318213235
453,0.0
490,0.0
515,0.0
516,0.0
542,0.0
592,4789812.6764421
632,3010436.6760154366
686,1.0
687,1.0
688,2.0
2,21, 1,21, 0, 4,20.00,30.00,Sunday
250,21.79026177446599
251,5841196.177440648
336,0.0
385,21.556666666666686
386,26.79000000000002
387,0.11754933620896876
388,0.0
425,0.0
450,0.0
451,0.0
452,-1.6697442366624433
453,0.0
490,0.0
515,0.0
516,0.0
542,0.0
592,2566514.5734614064
632,3177947.3544486896
686,0.5502211691455083
687,0.5000000000000004
688,1.1666666666666674
2,21, 1,21, 0, 4,30.00,40.00,Sunday
250,22.18306885497593
251,5772370.81444947
336,0.0
385,22.22333333333335
386,26.79000000000002
387,0.08662723843457268
388,0.0
425,0.0
450,0.0
451,0.0
452,-1.6718756248271371
453,0.0
490,0.0
515,0.0
516,0.0
542,0.0
592,3375820.0299914107
632,2358389.7788045136
686,0.7214039955923575
687,0.6666666666666672
688,1.6666666666666679
2,21, 1,21, 0, 4,40.00,50.00,Sunday
250,22.421202104188108
251,7108767.833639826
336,0.0
385,22.89
386,26.79
387,0.04730071389683097
388,0.0
425,0.0
450,0.0
451,0.0
452,-1.6794154553216907
453,0.0
490,0.0
515,0.0
516,0.0
542,0.0
592,4774661.849385799
632,2879019.985707516
686,1.0
687,1.0
688,2.0
2,21, 1,21, 0, 4,50.00,60.00,Sunday
250,22.845716155969598
251,8267629.413894977
336,0.0
385,22.89
386,26.79
387,0.010926537105579672
388,0.0
425,0.0
450,0.0
451,0.0
452,-1.6900093078250298
453,0.0
490,0.0
515,0.0
516,0.0
542,0.0
592,4768996.148373873
632,3362597.2066016495
686,1.0
687,1.0
688,2.0
2,21, 1,21, 0, 5, 0.00,10.00,Sunday
250,21.778655717624993
251,6062243.022477455
336,0.0
385,21.55666666666667
386,26.79
387,-0.012306685207983566
388,0.0
425,0.0
450,0.0
451,0.0
452,-1.698015112190382
453,0.0
490,0.0
515,0.0
516,0.0
542,0.0
592,2594236.8141371184
632,3374979.7674333034
686,0.5615904599087106
687,0.5
688,1.1666666666666667
2,21, 1,21, 0, 5,10.00,20.00,Sunday
250,22.18477575628834
251,5895291.353764705
336,0.0
385,22.223333333333333
386,26.79
387,-0.030417690018714545
388,0.0
425,0.0
450,0.0
451,0.0
452,-1.7009492463348597
453,0.0
490,0.0
515,0.0
516,0.0
542,0.0
592,3393034.103966131
632,2455842.047329685
686,0.7310926890879023
687,0.6666666666666667
688,1.6666666666666667
2,21, 1,21, 0, 5,20.00,30.00,Sunday
250,22.423461431917698
251,7104728.423823503
336,0.0
385,22.89
386,26.79
387,-0.04673319448076783
388,0.0
425,0.0
450,0.0
451,0.0
452,-1.6954359337491747
453,0.0
490,0.0
515,0.0
516,0.0
542,0.0
592,4749608.100568346
632,2897696.0308574648
686,1.0
687,1.0
688,2.0
2,21, 1,21, 0, 5,30.00,40.00,Sunday
250,22.845912804252432
251,8154814.4718023045
336,0.0
385,22.89
386,26.79
387,-0.057139352092616905
388,0.0
425,0.0
450,0.0
451,0.0
452,-1.6808383442207684
453,0.0
490,0.0
515,0.0
516,0.0
542,0.0
592,4743161.810244647
632,3275018.9518052815
686,1.0
687,1.0
688,2.0
2,21, 1,21, 0, 5,40.00,50.00,Sunday
250,21.784833442422574
251,5945804.055706062
336,0.0
385,21.556666666666636
386,26.78999999999996
387,-0.062268687788298
388,0.0
425,0.0
450,0.0
451,0.0
452,-1.6594589972569698
453,0.0
490,0.0
515,0.0
516,0.0
542,0.0
592,2559969.757954144
632,3290743.775035111
686,0.5560522315206206
687,0.49999999999999933
688,1.166666666666665
2,21, 1,21, 0, 5,50.00,60.00,Sunday
250,22.182730261314983
251,5769385.967917932
336,0.0
385,22.22333333333335
386,26.79000000000002
387,-0.06536118764890242
388,0.0
425,0.0
450,0.0
451,0.0
452,-1.63144435028191
453,0.0
490,0.0
515,0.0
516,0.0
542,0.0
592,3337160.3661786513
632,2395658.0653831074
686,0.72081016393897
687,0.6666666666666672
688,1.6666666666666679
2,21, 1,21, 0, 6, 0.00,10.00,Sunday
250,22.42186631175561
251,7076322.650190072
336,0.0
385,22.89
386,26.79
387,-0.07523059441591116
388,0.0
425,0.0
450,0.0
451,0.0
452,-1.5997756424894038
453,0.0
490,0.0
515,0.0
516,0.0
542,0.0
592,4722326.616637861
632,2899562.9050424765
686,1.0
687,1.0
688,2.0
2,21, 1,21, 0, 6,10.00,20.00,Sunday
250,22.845790812020297
251,8205050.590589273
336,0.0
385,22.89
386,26.79
387,-0.09219575882895116
388,0.0
425,0.0
450,0.0
451,0.0
452,-1.5825152500087127
453,0.0
490,0.0
515,0.0
516,0.0
542,0.0
592,4719839.191515517
632,3349014.3075469574
686,1.0
687,1.0
688,2.0
2,21, 1,21, 0, 6,20.00,30.00,Sunday
250,21.777858383158975
251,6077944.376104706
336,0.0
385,21.556666666666686
386,26.79000000000002
387,-0.11289747206205936
388,0.0
425,0.0
450,0.0
451,0.0
452,-1.581969454542216
453,0.0
490,0.0
515,0.0
516,0.0
542,0.0
592,2573044.2391503886
632,3412035.972094768
686,0.5630047676321766
687,0.5000000000000004
688,1.1666666666666674
2,21, 1,21, 0, 6,30.00,40.00,Sunday
250,22.186773475743415
251,6000150.626863981
336,0.0
385,22.22333333333335
386,26.79000000000002
387,-0.13793409492207453
388,0.0
425,0.0
450,0.0
451,0.0
452,-1.5915576796193578
453,0.0
490,0.0
515,0.0
516,0.0
542,0.0
592,3390475.1703212946
632,2554138.1040706174
686,0.7398917260593219
687,0.6666666666666672
688,1.6666666666666679
2,21, 1,21, 0, 6,40.00,50.00,Sunday
250,22.4264481824869
251,7287524.8243861105
336,0.0
385,22.89
386,26.79
387,-0.1716856100978491
388,0.0
425,0.0
450,0.0
451,0.0
452,-1.6133874622983324
453,0.0
490,0.0
515,0.0
516,0.0
542,0.0
592,4707073.516429915
632,3121594.1222098833
686,1.0
687,1.0
688,2.0
2,21, 1,21, 0, 6,50.00,60.00,Sunday
250,22.846318248125435
251,8420481.691624036
336,0.0
385,22.89
386,26.79
387,-0.20411344986817576
388,0.0
425,0.0
450,0.0
451,0.0
452,-1.6416719934164945
453,0.0
490,0.0
515,0.0
516,0.0
542,0.0
592,4702136.403030828
632,3580960.923114216
686,1.0
687,1.0
688,2.0
2,21, 1,21, 0, 7, 0.00,10.00,Sunday
250,21.768428782468362
251,6256854.8503977265
336,0.0
385,21.55666666666667
386,26.79
387,-0.23780248734712003
388,0.0
425,0.0
450,0.0
451,0.0
452,-1.6867337946583107
453,0.0
490,0.0
515,0.0
516,0.0
542,0.0
592,2608604.6041228455
632,3558477.3266967363
686,0.5720247689431415
687,0.5
688,1.1666666666666667
2,21, 1,21, 0, 7,10.00,20.00,Sunday
250,22.189076276015584
251,6154052.64653195
336,0.0
385,22.223333333333333
386,26.79
387,-0.28100891680250073
388,0.0
425,0.0
450,0.0
451,0.0
452,-1.7670280613568714
453,0.0
490,0.0
515,0.0
516,0.0
542,0.0
592,3456277.09378387
632,2631141.294839585
686,0.752080153627809
687,0.6666666666666667
688,1.6666666666666667
2,21, 1,21, 0, 7,20.00,30.00,Sunday
250,22.428942201312427
251,7384566.102857528
336,0.0
385,22.89
386,26.79
387,-0.34269888052017383
388,0.0
425,0.0
450,0.0
451,0.0
452,-1.903628857646181
453,0.0
490,0.0
515,0.0
516,0.0
542,0.0
592,4767357.418654093
632,3155247.5682220613
686,1.0
687,1.0
688,2.0
2,21, 1,21, 0, 7,30.00,40.00,Sunday
250,22.846559718246162
251,8485570.24286154
336,0.0
385,22.89
386,26.79
387,-0.4054822829848143
388,0.0
425,0.0
450,0.0
451,0.0
452,-2.065509779723609
453,0.0
490,0.0
515,0.0
516,0.0
542,0.0
592,4785408.1598762665
632,3562108.0701599587
686,1.0
687,1.0
688,2.0
2,21, 1,21, 0, 7,40.00,50.00,Sunday
250,21.76487267210287
251,6323168.108091943
336,0.0
385,21.556666666666636
386,26.78999999999996
387,-0.46714694134082635
388,0.0
425,0.0
450,0.0
451,0.0
452,-2.2456557801963593
453,0.0
490,0.0
515,0.0
516,0.0
542,0.0
592,2661297.925730933
632,3573442.8991093943
686,0.5742620796095058
687,0.49999999999999933
688,1.166666666666665
2,21, 1,21, 0, 7,50.00,60.00,Sunday
250,22.18997208614079
251,6224725.766183579
336,0.0
385,22.22333333333335
386,26.79000000000002
387,-0.5397237315044482
388,0.0
425,0.0
450,0.0
451,0.0
452,-2.4651332484410515
453,0.0
490,0.0
515,0.0
516,0.0
542,0.0
592,3529897.857756886
632,2623847.0020812806
686,0.7568406806370589
687,0.6666666666666672
688,1.6666666666666679
2,21, 1,21, 0, 8, 0.00,10.00,Sunday
250,22.430050796411606
251,7442465.971227319
336,0.0
385,22.89
386,26.79
387,-0.6260532123843356
388,0.0
425,0.0
450,0.0
451,0.0
452,-2.729762456113756
453,0.0
490,0.0
515,0.0
516,0.0
542,0.0
592,4837157.631514993
632,3142046.811869034
686,1.0
687,1.0
688,2.0
2,21, 1,21, 0, 8,10.00,20.00,Sunday
250,22.846686278919137
251,8480049.681273166
336,0.0
385,22.89
386,26.79
387,-0.6885133634442733
388,0.0
425,0.0
450,0.0
451,0.0
452,-2.8771020624777153
453,0.0
490,0.0
515,0.0
516,0.0
542,0.0
592,4844587.345057003
632,3497088.62074654
686,1.0
687,1.0
688,2.0
2,21, 1,21, 0, 8,20.00,30.00,Sunday
250,21.767068089155455
251,6281154.119187514
336,0.0
385,21.556666666666686
386,26.79000000000002
387,-0.7267615590227897
388,0.0
425,0.0
450,0.0
451,0.0
452,-2.8758918834472995
453,0.0
490,0.0
515,0.0
516,0.0
542,0.0
592,2679489.6685863095
632,3512606.6739889877
686,0.5714793187283722
687,0.5000000000000004
688,1.1666666666666674
2,21, 1,21, 0, 8,30.00,40.00,Sunday
250,22.18782843435044
251,6107599.2441293
336,0.0
385,22.22333333333335
386,26.79000000000002
387,-0.7559532340575081
388,0.0
425,0.0
450,0.0
451,0.0
452,-2.778771495986842
453,0.0
490,0.0
515,0.0
516,0.0
542,0.0
592,3525503.1034125555
632,2521146.5216628117
686,0.7468097440261772
687,0.6666666666666672
688,1.6666666666666679
2,21, 1,21, 0, 8,40.00,50.00,Sunday
250,22.426922430475365
251,7243760.056763781
336,0.0
385,22.89
386,26.79
387,-0.7752644278139743
388,0.0
425,0.0
450,0.0
451,0.0
452,-2.545001385981491
453,0.0
490,0.0
515,0.0
516,0.0
542,0.0
592,4879241.653911434
632,2902966.0574948234
686,1.0
687,1.0
688,2.0
2,21, 1,21, 0, 8,50.00,60.00,Sunday
250,22.84625037309806
251,8234550.651513008
336,0.0
385,22.89
386,26.79
387,-0.7734267713996119
388,0.0
425,0.0
450,0.0
451,0.0
452,-2.2329316371123227
453,0.0
490,0.0
515,0.0
516,0.0
542,0.0
592,4886657.671450532
632,3210293.9344830513
686,1.0
687,1.0
688,2.0
2,21, 1,21, 0, 9, 0.00,10.00,Sunday
250,21.78265477026961
251,5984447.195451635
336,0.0
385,21.55666666666667
386,26.79
387,-0.7476521507502907
388,0.0
425,0.0
450,0.0
451,0.0
452,-1.854118590339047
453,0.0
490,0.0
515,0.0
516,0.0
542,0.0
592,2652291.778891729
632,3238057.6265430357
686,0.5562191149611733
687,0.5
688,1.1666666666666667
2,21, 1,21, 0, 9,10.00,20.00,Sunday
250,22.182457062772535
251,5769823.00466353
336,0.0
385,22.223333333333333
386,26.79
387,-0.7027354306457827
388,0.0
425,0.0
450,0.0
451,0.0
452,-1.3732271484490806
453,0.0
490,0.0
515,0.0
516,0.0
542,0.0
592,3472456.9413444833
632,2261412.062631004
686,0.7205037057744283
687,0.6666666666666667
688,1.6666666666666667
2,21, 1,21, 0, 9,20.00,30.00,Sunday
250,22.214211905936565
251,7137247.1506868275
336,0.0
385,22.223333333333326
386,26.78999999999999
387,-0.6235347120156408
388,0.0
425,0.0
450,0.0
451,0.0
452,-0.6672439598325314
453,0.0
490,0.0
515,0.0
516,0.0
542,0.0
592,3071368.9030584972
632,3926352.7711263914
686,0.7329337350536717
687,0.3333333333333332
688,1.3333333333333328
2,21, 1,21, 0, 9,30.00,40.00,Sunday
250,22.21536027669003
251,7104681.699879751
336,0.0
385,22.223333333333343
386,26.79000000000001
387,-0.5372174847719441
388,0.0
425,0.0
450,0.0
451,0.0
452,-0.018696104778460433
453,0.0
490,0.0
515,0.0
516,0.0
542,0.0
592,3093003.9389519235
632,3867380.627411951
686,0.7358126819615736
687,0.3333333333333332
688,1.3333333333333335
2,21, 1,21, 0, 9,40.00,50.00,Sunday
250,22.215067454339625
251,7086040.899135595
336,0.0
385,22.22333333333335
386,26.79000000000002
387,-0.45676961348283307
388,0.0
425,0.0
450,0.0
451,0.0
452,0.5966311379747278
453,0.0
490,0.0
515,0.0
516,0.0
542,0.0
592,3087298.7042816305
632,3856536.9605377275
686,0.7310256238718633
687,0.3333333333333336
688,1.3333333333333344
2,21, 1,21, 0, 9,50.00,60.00,Sunday
250,22.824196215380034
251,7777163.661280638
336,0.0
385,22.89
386,26.79
387,-0.38534823109753746
388,0.0
425,0.0
450,0.0
451,0.0
452,1.1029348173043347
453,0.0
490,0.0
515,0.0
516,0.0
542,0.0
592,4991926.383936492
632,2702825.4067805717
686,1.0
687,1.0
688,2.0
2,21, 1,21, 0,10, 0.00,10.00,Sunday
250,21.79207524988759
251,5786862.363170407
336,0.0
385,21.55666666666667
386,26.79
387,-0.31335428935063997
388,0.0
425,0.0
450,0.0
451,0.0
452,1.5653784208497876
453,0.0
490,0.0
515,0.0
516,0.0
542,0.0
592,2678935.3407102833
632,3011080.365963372
686,0.545631338676789
687,0.5
688,1.1666666666666667
2,21, 1,21, 0,10,10.00,20.00,Sunday
250,22.177827696221303
251,5494665.428734742
336,0.0
385,22.223333333333333
386,26.79
387,-0.2271123071362883
388,0.0
425,0.0
450,0.0
451,0.0
452,2.0733163721423016
453,0.0
490,0.0
515,0.0
516,0.0
542,0.0
592,3492058.9302362497
632,1987688.592879069
686,0.6993615791797099
687,0.6666666666666667
688,1.6666666666666667
2,21, 1,21, 0,10,20.00,30.00,Sunday
250,22.208636368255938
251,6851235.535736527
336,0.0
385,22.223333333333326
386,26.78999999999999
387,-0.09215849849099574
388,0.0
425,0.0
450,0.0
451,0.0
452,2.7630383457525394
453,0.0
490,0.0
515,0.0
516,0.0
542,0.0
592,2943275.858161985
632,3800000.4883497125
686,0.6718656963460332
687,0.3333333333333332
688,1.3333333333333328
2,21, 1,21, 0,10,30.00,40.00,Sunday
250,22.20884613855179
251,6767621.076992163
336,0.0
385,22.223333333333343
386,26.79000000000001
387,0.039256407804559516
388,0.0
425,0.0
450,0.0
451,0.0
452,3.3938090549578854
453,0.0
490,0.0
515,0.0
516,0.0
542,0.0
592,2939001.957069739
632,3721323.3050759854
686,0.6655170448742662
687,0.3333333333333332
688,1.3333333333333335
2,21, 1,21, 0,10,40.00,50.00,Sunday
250,22.207066192974224
251,6663401.557841804
336,0.0
385,22.22333333333335
386,26.79000000000002
387,0.17868840736134733
388,0.0
425,0.0
450,0.0
451,0.0
452,4.070641434310479
453,0.0
490,0.0
515,0.0
516,0.0
542,0.0
592,2885903.2655204553
632,3680621.347868824
686,0.6461442030656486
687,0.3333333333333336
688,1.3333333333333344
2,21, 1,21, 0,10,50.00,60.00,Sunday
250,22.20520104996688
251,6557149.684592946
336,0.0
385,22.22333333333335
386,26.79000000000002
387,0.33610926838729904
388,0.0
425,0.0
450,0.0
451,0.0
452,4.828351581234051
453,0.0
490,0.0
515,0.0
516,0.0
542,0.0
592,2829877.6938019954
632,3641172.3406569515
686,0.6262393930108114
687,0.3333333333333336
688,1.3333333333333344
2,21, 1,21, 0,11, 0.00,10.00,Sunday
250,22.203381670335368
251,6452070.668289217
336,0.0
385,22.223333333333336
386,26.79
387,0.5070389733192897
388,0.0
425,0.0
450,0.0
451,0.0
452,5.650422811139354
453,0.0
490,0.0
515,0.0
516,0.0
542,0.0
592,2769254.205363097
632,3607105.845541261
686,0.6074532324050927
687,0.3333333333333333
688,1.3333333333333335
2,21, 1,21, 0,11,10.00,20.00,Sunday
250,22.201531493749023
251,6344152.253825498
336,0.0
385,22.223333333333333
386,26.79
387,0.6886500009841467
388,0.0
425,0.0
450,0.0
451,0.0
452,6.5178419590512515
453,0.0
490,0.0
515,0.0
516,0.0
542,0.0
592,2707252.2672064407
632,3571719.665597943
686,0.5884352983367365
687,0.33333333333333337
688,1.3333333333333333
2,21, 1,21, 0,11,20.00,30.00,Sunday
250,21.998057158117412
251,5486142.8804739015
336,0.0
385,21.89
386,26.79
387,0.8392563223707525
388,0.0
425,0.0
450,0.0
451,0.0
452,7.2909091504530945
453,0.0
490,0.0
515,0.0
516,0.0
542,0.0
592,3926213.3360101124
632,1401796.73097178
686,0.75
687,0.7432206845549673
688,1.5
2,21, 1,21, 0,11,30.00,40.00,Sunday
250,21.94941424075679
251,6034659.785170784
336,0.0
385,21.89
386,26.79
387,1.0734232532200836
388,0.0
425,0.0
450,0.0
451,0.0
452,8.316543126872961
453,0.0
490,0.0
515,0.0
516,0.0
542,0.0
592,3115691.560958796
632,2836583.9179035765
686,0.6266483451727377
687,0.5
688,1.25
2,21, 1,21, 0,11,40.00,50.00,Sunday
250,21.95256509914514
251,5864371.29221897
336,0.0
385,21.89
386,26.79
387,1.3032919255624746
388,0.0
425,0.0
450,0.0
451,0.0
452,9.190279083657522
453,0.0
490,0.0
515,0.0
516,0.0
542,0.0
592,3126070.7860177057
632,2660093.762182446
686,0.6264830674012022
687,0.5
688,1.25
2,21, 1,21, 0,11,50.00,60.00,Sunday
250,22.212385888969507
251,4621230.593138514
336,0.0
385,22.22333333333335
386,26.79000000000002
387,1.4816348974939233
388,0.0
425,0.0
450,0.0
451,0.0
452,9.839601096242571
453,0.0
490,0.0
515,0.0
516,0.0
542,0.0
592,3449396.3507593954
632,1166649.43647899
686,0.6666666666666672
687,0.6078636152337568
688,1.3333333333333344
2,21, 1,21, 0,12, 0.00,10.00,Sunday
250,21.841921906599442
251,4703908.746807925
336,0.0
385,21.69
386,26.790000000000003
387,1.6589015799136353
388,0.0
425,0.0
450,0.0
451,0.0
452,10.405600119591927
453,0.0
490,0.0
515,0.0
516,0.0
542,0.0
592,2396663.105280864
632,2358489.463255102
686,0.4708581039581842
687,0.4
688,1.0
2,21, 1,21, 0,12,10.00,20.00,Sunday
250,22.153404007372593
251,6337615.574877401
336,0.0
385,22.223333333333333
386,26.79
387,1.8465851738097019
388,0.0
425,0.0
450,0.0
451,0.0
452,10.89853495344683
453,0.0
490,0.0
515,0.0
516,0.0
542,0.0
592,3687264.277227577
632,2709996.5232776725
686,0.8294627396243499
687,0.33333333333333337
688,1.3333333333333333
2,21, 1,21, 0,12,20.00,30.00,Sunday
250,22.271039011022232
251,4625607.662212879
336,0.0
385,22.223333333333326
386,26.78999999999999
387,2.1012295575197526
388,0.0
425,0.0
450,0.0
451,0.0
452,11.397630102593135
453,0.0
490,0.0
515,0.0
516,0.0
542,0.0
592,3550331.730661703
632,1032609.6259909384
686,0.6666666666666664
687,0.6666666666666664
688,1.3333333333333328
2,21, 1,21, 0,12,30.00,40.00,Sunday
250,21.864910319636408
251,4524536.4476424325
336,0.0
385,21.689999999999994
386,26.789999999999992
387,2.246394964245069
388,0.0
425,0.0
450,0.0
451,0.0
452,11.609401879615485
453,0.0
490,0.0
515,0.0
516,0.0
542,0.0
592,2350824.622167442
632,2219447.895411299
686,0.4563740487997259
687,0.3999999999999997
688,0.9999999999999993
2,21, 1,21, 0,12,40.00,50.00,Sunday
250,22.15199463316067
251,6176462.543542744
336,0.0
385,22.22333333333335
386,26.79000000000002
387,2.383130945524842
388,0.0
425,0.0
450,0.0
451,0.0
452,11.709173894831583
453,0.0
490,0.0
515,0.0
516,0.0
542,0.0
592,3583834.089106513
632,2660403.4039909393
686,0.7988598488063945
687,0.3333333333333336
688,1.3333333333333344
2,21, 1,21, 0,12,50.00,60.00,Sunday
250,22.279058592623276
251,4547083.074108597
336,0.0
385,22.22333333333335
386,26.79000000000002
387,2.5549613901226502
388,0.0
425,0.0
450,0.0
451,0.0
452,11.707196272897917
453,0.0
490,0.0
515,0.0
516,0.0
542,0.0
592,3565101.630700742
632,939515.252858823
686,0.6666666666666672
687,0.6666666666666672
688,1.3333333333333344
2,21, 1,21, 0,13, 0.00,10.00,Sunday
250,21.875239494932067
251,4423144.997687666
336,0.0
385,21.69
386,26.790000000000003
387,2.6461728220874416
388,0.0
425,0.0
450,0.0
451,0.0
452,11.615615221409795
453,0.0
490,0.0
515,0.0
516,0.0
542,0.0
592,2324500.34903391
632,2142664.1820575492
686,0.44830332538808193
687,0.4
688,1.0
2,21, 1,21, 0,13,10.00,20.00,Sunday
250,22.15056288465429
251,6002549.28822674
336,0.0
385,22.223333333333333
386,26.79
387,2.7310841149621883
388,0.0
425,0.0
450,0.0
451,0.0
452,11.523486774847644
453,0.0
490,0.0
515,0.0
516,0.0
542,0.0
592,3469307.5589946005
632,2610452.337203967
686,0.7693575237661632
687,0.33333333333333337
688,1.3333333333333333
2,21, 1,21, 0,13,20.00,30.00,Sunday
250,22.29708858862357
251,4394662.637275701
336,0.0
385,22.223333333333326
386,26.78999999999999
387,2.8404206894057826
388,0.0
425,0.0
450,0.0
451,0.0
452,11.435665351042102
453,0.0
490,0.0
515,0.0
516,0.0
542,0.0
592,3557586.6581867132
632,794795.8888477341
686,0.6666666666666664
687,0.6666666666666664
688,1.3333333333333328
2,21, 1,21, 0,13,30.00,40.00,Sunday
250,21.89363055278631
251,4259714.524780091
336,0.0
385,21.689999999999994
386,26.789999999999992
387,2.9062887375587243
388,0.0
425,0.0
450,0.0
451,0.0
452,11.40824275509663
453,0.0
490,0.0
515,0.0
516,0.0
542,0.0
592,2272552.055573702
632,2027651.949406212
686,0.4360993976552269
687,0.3999999999999997
688,0.9999999999999993
2,21, 1,21, 0,13,40.00,50.00,Sunday
250,22.148787593459748
251,5792095.531682911
336,0.0
385,22.22333333333335
386,26.79000000000002
387,2.974176451777276
388,0.0
425,0.0
450,0.0
451,0.0
452,11.39180194840844
453,0.0
490,0.0
515,0.0
516,0.0
542,0.0
592,3321511.327795016
632,2559855.1773453522
686,0.7330763190028734
687,0.3333333333333336
688,1.3333333333333344
2,21, 1,21, 0,13,50.00,60.00,Sunday
250,22.313688033635383
251,4254546.913387898
336,0.0
385,22.22333333333335
386,26.79000000000002
387,3.0674416453564763
388,0.0
425,0.0
450,0.0
451,0.0
452,11.377098845140196
453,0.0
490,0.0
515,0.0
516,0.0
542,0.0
592,3550064.1970960516
632,662471.399766429
686,0.6666666666666672
687,0.6666666666666672
688,1.3333333333333344
2,21, 1,21, 0,14, 0.00,10.00,Sunday
250,21.907368251382092
251,4142528.6313759983
336,0.0
385,21.69
386,26.790000000000003
387,3.129351617212695
388,0.0
425,0.0
450,0.0
451,0.0
452,11.33654796751565
453,0.0
490,0.0
515,0.0
516,0.0
542,0.0
592,2175986.862851062
632,2008217.2541778754
686,0.4272844246075209
687,0.35524933195004305
688,1.0
2,21, 1,21, 0,14,10.00,20.00,Sunday
250,22.147560466890877
251,5662528.497791163
336,0.0
385,22.223333333333333
386,26.79
387,3.1932627394060997
388,0.0
425,0.0
450,0.0
451,0.0
452,11.23227716740626
453,0.0
490,0.0
515,0.0
516,0.0
542,0.0
592,3238019.0580077977
632,2522173.272407063
686,0.7082159585854731
687,0.33333333333333337
688,1.3333333333333333
2,21, 1,21, 0,14,20.00,30.00,Sunday
250,22.321726223332725
251,4186988.3987359586
336,0.0
385,22.223333333333326
386,26.78999999999999
387,3.2775511516802904
388,0.0
425,0.0
450,0.0
451,0.0
452,11.030944586220214
453,0.0
490,0.0
515,0.0
516,0.0
542,0.0
592,3573292.0491614984
632,571863.3287163931
686,0.6666666666666664
687,0.6666666666666664
688,1.3333333333333328
2,21, 1,21, 0,14,30.00,40.00,Sunday
250,21.91513519839598
251,4065792.0851101032
336,0.0
385,21.689999999999994
386,26.789999999999992
387,3.32002971329082
388,0.0
425,0.0
450,0.0
451,0.0
452,10.788017825300193
453,0.0
490,0.0
515,0.0
516,0.0
542,0.0
592,2118700.4585055923
632,1990522.662657028
686,0.42080162123289144