Program Version,EnergyPlus, Version 24.2.0-94a887817b, YMD=2025.02.12 11:46
1,5,Environment Title[],Latitude[deg],Longitude[deg],Time Zone[],Elevation[m]
2,8,Day of Simulation[],Month[],Day of Month[],DST Indicator[1=yes 0=no],Hour[],StartMinute[],EndMinute[],DayType
3,5,Cumulative Day of Simulation[],Month[],Day of Month[],DST Indicator[1=yes 0=no],DayType  ! When Daily Report Variables Requested
4,2,Cumulative Days of Simulation[],Month[]  ! When Monthly Report Variables Requested
5,1,Cumulative Days of Simulation[] ! When Run Period Report Variables Requested
6,1,Calendar Year of Simulation[] ! When Annual Report Variables Requested
250,1,LIVING ZONE,Zone Air Temperature [C] !TimeStep,REPORTSCH
251,1,LIVING ZONE,Zone Air System Sensible Heating Energy [J] !TimeStep,REPORTSCH
336,1,LIVING ZONE,Zone Air System Sensible Cooling Energy [J] !TimeStep,REPORTSCH
385,1,LIVING ZONE,Zone Thermostat Heating Setpoint Temperature [C] !TimeStep,REPORTSCH
386,1,LIVING ZONE,Zone Thermostat Cooling Setpoint Temperature [C] !TimeStep,REPORTSCH
387,1,GARAGE ZONE,Zone Air Temperature [C] !TimeStep,REPORTSCH
388,1,GARAGE ZONE,Zone Air System Sensible Heating Energy [J] !TimeStep,REPORTSCH
425,1,GARAGE ZONE,Zone Air System Sensible Cooling Energy [J] !TimeStep,REPORTSCH
450,1,GARAGE ZONE,Zone Thermostat Heating Setpoint Temperature [C] !TimeStep,REPORTSCH
451,1,GARAGE ZONE,Zone Thermostat Cooling Setpoint Temperature [C] !TimeStep,REPORTSCH
452,1,ATTIC ZONE,Zone Air Temperature [C] !TimeStep,REPORTSCH
453,1,ATTIC ZONE,Zone Air System Sensible Heating Energy [J] !TimeStep,REPORTSCH
490,1,ATTIC ZONE,Zone Air System Sensible Cooling Energy [J] !TimeStep,REPORTSCH
515,1,ATTIC ZONE,Zone Thermostat Heating Setpoint Temperature [C] !TimeStep,REPORTSCH
516,1,ATTIC ZONE,Zone Thermostat Cooling Setpoint Temperature [C] !TimeStep,REPORTSCH
542,1,ACDXCOIL 1,Cooling Coil Total Cooling Energy [J] !TimeStep,REPORTSCH
592,1,HEAT PUMP DX HEATING COIL 1,Heating Coil Heating Energy [J] !TimeStep,REPORTSCH
632,1,SUPP HEATING COIL 1,Heating Coil Heating Energy [J] !TimeStep,REPORTSCH
686,1,TWOSPEED HEAT PUMP 1,Unitary System DX Coil Cycling Ratio [] !TimeStep,REPORTSCH
687,1,TWOSPEED HEAT PUMP 1,Unitary System DX Coil Speed Ratio [] !TimeStep,REPORTSCH
688,1,TWOSPEED HEAT PUMP 1,Unitary System DX Coil Speed Level [] !TimeStep,REPORTSCH
End of Data Dictionary
1,RUN PERIOD 1,  41.98, -87.92,  -6.00, 201.00
2,21, 1,21, 0, 1, 0.00,10.00,Monday
250,23.190835499065436
251,5663036.004564033
336,0.0
385,23.233333333333334
386,27.67
387,0.6257785559328176
388,0.0
425,0.0
450,0.0
451,0.0
452,-1.6217292613218586
453,0.0
490,0.0
515,0.0
516,0.0
542,0.0
592,3416287.783402141
632,2217842.30235392
686,0.7135295769660308
687,0.6666666666666666
688,1.6666666666666665
2,21, 1,21, 0, 1,10.00,20.00,Monday
250,23.42733093723331
251,6919533.844339883
336,0.0
385,23.9
386,27.67
387,0.5938162769016939
388,0.0
425,0.0
450,0.0
451,0.0
452,-1.6085817401692089
453,0.0
490,0.0
515,0.0
516,0.0
542,0.0
592,4862982.213612939
632,2602160.610124757
686,1.0
687,1.0
688,2.0
2,21, 1,21, 0, 1,20.00,30.00,Monday
250,23.85508862220034
251,8029900.931157561
336,0.0
385,23.9
386,27.67
387,0.5664288797257296
388,0.0
425,0.0
450,0.0
451,0.0
452,-1.5995545675363472
453,0.0
490,0.0
515,0.0
516,0.0
542,0.0
592,4844477.0465068575
632,3050368.128438763
686,1.0
687,1.0
688,2.0
2,21, 1,21, 0, 1,30.00,40.00,Monday
250,22.797007838105472
251,5880127.263970992
336,0.0
385,22.56666666666665
386,27.669999999999984
387,0.5439231271403877
388,0.0
425,0.0
450,0.0
451,0.0
452,-1.5947515246358843
453,0.0
490,0.0
515,0.0
516,0.0
542,0.0
592,2600644.148359792
632,3183802.569160896
686,0.5531274243250125
687,0.49999999999999967
688,1.1666666666666659
2,21, 1,21, 0, 1,40.00,50.00,Monday
250,23.192321672563075
251,5733520.4158082325
336,0.0
385,23.23333333333335
386,27.670000000000023
387,0.5201546550556863
388,0.0
425,0.0
450,0.0
451,0.0
452,-1.5912527046251106
453,0.0
490,0.0
515,0.0
516,0.0
542,0.0
592,3392469.0866332906
632,2305558.1447081473
686,0.7194377401472898
687,0.6666666666666672
688,1.6666666666666679
2,21, 1,21, 0, 1,50.00,60.00,Monday
250,23.429225898445164
251,6992699.454121718
336,0.0
385,23.9
386,27.67
387,0.49155468434986543
388,0.0
425,0.0
450,0.0
451,0.0
452,-1.588576618398009
453,0.0
490,0.0
515,0.0
516,0.0
542,0.0
592,4799678.064616603
632,2737661.9786096606
686,1.0
687,1.0
688,2.0
2,21, 1,21, 0, 2, 0.00,10.00,Monday
250,23.855311448783695
251,8086708.318630724
336,0.0
385,23.9
386,27.67
387,0.4662369036253517
388,0.0
425,0.0
450,0.0
451,0.0
452,-1.5885482345770248
453,0.0
490,0.0
515,0.0
516,0.0
542,0.0
592,4797025.276005209
632,3154162.887803671
686,1.0
687,1.0
688,2.0
2,21, 1,21, 0, 2,10.00,20.00,Monday
250,22.794894393428173
251,5921382.166916436
336,0.0
385,22.566666666666663
386,27.670000000000005
387,0.44469862321008985
388,0.0
425,0.0
450,0.0
451,0.0
452,-1.5925043950902786
453,0.0
490,0.0
515,0.0
516,0.0
542,0.0
592,2591803.0895662773
632,3234533.9073460307
686,0.5554946405274954
687,0.5
688,1.1666666666666665
2,21, 1,21, 0, 2,20.00,30.00,Monday
250,23.19278610591861
251,5764302.794305358
336,0.0
385,23.233333333333324
386,27.669999999999995
387,0.42151105289108437
388,0.0
425,0.0
450,0.0
451,0.0
452,-1.6000583167989864
453,0.0
490,0.0
515,0.0
516,0.0
542,0.0
592,3389530.3446515924
632,2337151.544987353
686,0.7218092571762359
687,0.6666666666666664
688,1.666666666666666
2,21, 1,21, 0, 2,30.00,40.00,Monday
250,23.429969966009878
251,7007529.065639942
336,0.0
385,23.89999999999999
386,27.66999999999999
387,0.3930889341875554
388,0.0
425,0.0
450,0.0
451,0.0
452,-1.6123423963617984
453,0.0
490,0.0
515,0.0
516,0.0
542,0.0
592,4799679.086664162
632,2752153.2196267317
686,0.9999999999999997
687,0.9999999999999997
688,1.9999999999999993
2,21, 1,21, 0, 2,40.00,50.00,Monday
250,23.85539182429129
251,8100114.426568434
336,0.0
385,23.9
386,27.67
387,0.36755455883839133
388,0.0
425,0.0
450,0.0
451,0.0
452,-1.6262357244609291
453,0.0
490,0.0
515,0.0
516,0.0
542,0.0
592,4797025.276005209
632,3167392.499121509
686,1.0
687,1.0
688,2.0
2,21, 1,21, 0, 2,50.00,60.00,Monday
250,22.79434837177945
251,5931943.07356231
336,0.0
385,22.566666666666634
386,27.669999999999963
387,0.3455000187139758
388,0.0
425,0.0
450,0.0
451,0.0
452,-1.64150059189821
453,0.0
490,0.0
515,0.0
516,0.0
542,0.0
592,2593694.6093625035
632,3243381.3167556236
686,0.5560409296335265
687,0.49999999999999933
688,1.166666666666665
2,21, 1,21, 0, 3, 0.00,10.00,Monday
250,23.193158197235896
251,5786987.094768247
336,0.0
385,23.233333333333334
386,27.67
387,0.32212575090923584
388,0.0
425,0.0
450,0.0
451,0.0
452,-1.657443248984206
453,0.0
490,0.0
515,0.0
516,0.0
542,0.0
592,3395287.2178146937
632,2352419.802209083
686,0.7234724733496825
687,0.6666666666666666
688,1.6666666666666665
2,21, 1,21, 0, 3,10.00,20.00,Monday
250,23.430714735982363
251,7040739.592466946
336,0.0
385,23.9
386,27.67
387,0.2942217695600417
388,0.0
425,0.0
450,0.0
451,0.0
452,-1.6722363327754368
453,0.0
490,0.0
515,0.0
516,0.0
542,0.0
592,4799679.8044623565
632,2785226.9530877746
686,1.0
687,1.0
688,2.0
2,21, 1,21, 0, 3,20.00,30.00,Monday
250,23.85549139334117
251,8142880.346416041
336,0.0
385,23.9
386,27.67
387,0.27025721719981743
388,0.0
425,0.0
450,0.0
451,0.0
452,-1.6784950357996127
453,0.0
490,0.0
515,0.0
516,0.0
542,0.0
592,4797025.27600521
632,3209976.1505057896
686,1.0
687,1.0
688,2.0
2,21, 1,21, 0, 3,30.00,40.00,Monday
250,22.791594314259264
251,5984313.378322361
336,0.0
385,22.56666666666665
386,27.669999999999984
387,0.2508915517120087
388,0.0
425,0.0
450,0.0
451,0.0
452,-1.677630811953724
453,0.0
490,0.0
515,0.0
516,0.0
542,0.0
592,2602844.7404845892
632,3287496.4263115814
686,0.5586835666764561
687,0.49999999999999967
688,1.1666666666666659
2,21, 1,21, 0, 3,40.00,50.00,Monday
250,23.194028891489687
251,5842597.451724787
336,0.0
385,23.23333333333335
386,27.670000000000023
387,0.2309700710311457
388,0.0
425,0.0
450,0.0
451,0.0
452,-1.6734259329536132
453,0.0
490,0.0
515,0.0
516,0.0
542,0.0
592,3410077.8556026756
632,2389192.0222599325
686,0.7277453664349562
687,0.6666666666666672
688,1.6666666666666679
2,21, 1,21, 0, 3,50.00,60.00,Monday
250,23.432038791195257
251,7090994.34030208
336,0.0
385,23.9
386,27.67
387,0.2076023064393463
388,0.0
425,0.0
450,0.0
451,0.0
452,-1.6648211183014692
453,0.0
490,0.0
515,0.0
516,0.0
542,0.0
592,4799681.688045057
632,2834674.1774201505
686,1.0
687,1.0
688,2.0
2,21, 1,21, 0, 4, 0.00,10.00,Monday
250,23.855680258146535
251,8260044.931185767
336,0.0
385,23.9
386,27.67
387,0.18331612134811576
388,0.0
425,0.0
450,0.0
451,0.0
452,-1.6561252414015524
453,0.0
490,0.0
515,0.0
516,0.0
542,0.0
592,4792145.574879369
632,3331686.454556375
686,1.0
687,1.0
688,2.0
2,21, 1,21, 0, 4,10.00,20.00,Monday
250,22.78193495807892
251,6167165.778860672
336,0.0
385,22.566666666666663
386,27.670000000000005
387,0.15840311086945527
388,0.0
425,0.0
450,0.0
451,0.0
452,-1.6500556225297918
453,0.0
490,0.0
515,0.0
516,0.0
542,0.0
592,2629795.177409305
632,3446539.974512623
686,0.5680157454285495
687,0.5
688,1.1666666666666665
2,21, 1,21, 0, 4,20.00,30.00,Monday
250,23.198558521355466
251,6111020.63584012
336,0.0
385,23.233333333333324
386,27.669999999999995
387,0.12956198134581234
388,0.0
425,0.0
450,0.0
451,0.0
452,-1.6466185554518793
453,0.0
490,0.0
515,0.0
516,0.0
542,0.0
592,3474373.140947377
632,2572076.1224210733
686,0.7495462279355491
687,0.6666666666666664
688,1.666666666666666
2,21, 1,21, 0, 4,30.00,40.00,Monday
250,23.437866916630778
251,7402879.480973619
336,0.0
385,23.89999999999999
386,27.66999999999999
387,0.09229609489410663
388,0.0
425,0.0
450,0.0
451,0.0
452,-1.6469334628518006
453,0.0
490,0.0
515,0.0
516,0.0
542,0.0
592,4780811.303108405
632,3160681.7466061735
686,0.9999999999999997
687,0.9999999999999997
688,1.9999999999999993
2,21, 1,21, 0, 4,40.00,50.00,Monday
250,23.856387813425954
251,8578796.997750346
336,0.0
385,23.9
386,27.67
387,0.05764037580483299
388,0.0
425,0.0
450,0.0
451,0.0
452,-1.6528134234632423
453,0.0
490,0.0
515,0.0
516,0.0
542,0.0
592,4771081.634377803
632,3669989.7218806036
686,1.0
687,1.0
688,2.0
2,21, 1,21, 0, 4,50.00,60.00,Monday
250,22.7649955293192
251,6488492.67999753
336,0.0
385,22.566666666666634
386,27.669999999999963
387,0.026434536195433362
388,0.0
425,0.0
450,0.0
451,0.0
452,-1.6626231989954847
453,0.0
490,0.0
515,0.0
516,0.0
542,0.0
592,2675101.057440999
632,3728108.5291956933
686,0.5846289874702917
687,0.49999999999999933
688,1.166666666666665
2,21, 1,21, 0, 5, 0.00,10.00,Monday
250,23.201944137557355
251,6339472.917307345
336,0.0
385,23.233333333333334
386,27.67
387,0.001137580016611934
388,0.0
425,0.0
450,0.0
451,0.0
452,-1.6709419534764631
453,0.0
490,0.0
515,0.0
516,0.0
542,0.0
592,3522107.524649044
632,2736453.3048070907
686,0.7681896400756871
687,0.6666666666666666
688,1.6666666666666665
2,21, 1,21, 0, 5,10.00,20.00,Monday
250,23.44188668511119
251,7489636.413972369
336,0.0
385,23.9
386,27.67
387,-0.021449427380574215
388,0.0
425,0.0
450,0.0
451,0.0
452,-1.6747226277178688
453,0.0
490,0.0
515,0.0
516,0.0
542,0.0
592,4758004.95976146
632,3265744.4494459475
686,1.0
687,1.0
688,2.0
2,21, 1,21, 0, 5,20.00,30.00,Monday
250,23.856785600374174
251,8560024.588083958
336,0.0
385,23.9
386,27.67
387,-0.03541417949518258
388,0.0
425,0.0
450,0.0
451,0.0
452,-1.668618944490313
453,0.0
490,0.0
515,0.0
516,0.0
542,0.0
592,4747356.631969323
632,3673882.6006779596
686,1.0
687,1.0
688,2.0
2,21, 1,21, 0, 5,30.00,40.00,Monday
250,22.772184427844454
251,6353163.138607294
336,0.0
385,22.56666666666665
386,27.669999999999984
387,-0.04233621724848448
388,0.0
425,0.0
450,0.0
451,0.0
452,-1.6534529116118928
453,0.0
490,0.0
515,0.0
516,0.0
542,0.0
592,2638783.0197182647
632,3626641.1900862623
686,0.5781342265514322
687,0.49999999999999967
688,1.1666666666666659
2,21, 1,21, 0, 5,40.00,50.00,Monday
250,23.19968154182636
251,6194585.331559531
336,0.0
385,23.23333333333335
386,27.670000000000023
387,-0.04714306782752416
388,0.0
425,0.0
450,0.0
451,0.0
452,-1.6308569563056312
453,0.0
490,0.0
515,0.0
516,0.0
542,0.0
592,3462675.5767346253
632,2661865.8854772216
686,0.7564489451538183
687,0.6666666666666672
688,1.6666666666666679
2,21, 1,21, 0, 5,50.00,60.00,Monday
250,23.439556714241043
251,7362749.961772812
336,0.0
385,23.9
386,27.67
387,-0.05038696034742054
388,0.0
425,0.0
450,0.0
451,0.0
452,-1.5976784979908396
453,0.0
490,0.0
515,0.0
516,0.0
542,0.0
592,4728119.915167644
632,3171721.82537561
686,1.0
687,1.0
688,2.0
2,21, 1,21, 0, 6, 0.00,10.00,Monday
250,23.856554102996174
251,8512414.638710136
336,0.0
385,23.9
386,27.67
387,-0.05979251218653249
388,0.0
425,0.0
450,0.0
451,0.0
452,-1.5703947647661982
453,0.0
490,0.0
515,0.0
516,0.0
542,0.0
592,4721419.738568605
632,3652831.810090162
686,1.0
687,1.0
688,2.0
2,21, 1,21, 0, 6,10.00,20.00,Monday
250,22.7702321072136
251,6390029.483734771
336,0.0
385,22.566666666666663
386,27.670000000000005
387,-0.07570957467813341
388,0.0
425,0.0
450,0.0
451,0.0
452,-1.5569748520683246
453,0.0
490,0.0
515,0.0
516,0.0
542,0.0
592,2633493.636059503
632,3669392.5147090345
686,0.5803936671707044
687,0.5
688,1.1666666666666665
2,21, 1,21, 0, 6,20.00,30.00,Monday
250,23.20209154289394
251,6325679.152436399
336,0.0
385,23.233333333333324
386,27.669999999999995
387,-0.09687885948647089
388,0.0
425,0.0
450,0.0
451,0.0
452,-1.553743655137165
453,0.0
490,0.0
515,0.0
516,0.0
542,0.0
592,3485616.487182466
632,2758797.3002666095
686,0.7676447936645229
687,0.6666666666666664
688,1.666666666666666
2,21, 1,21, 0, 6,30.00,40.00,Monday
250,23.44253632780629
251,7570054.191267424
336,0.0
385,23.89999999999999
386,27.66999999999999
387,-0.12682806448457185
388,0.0
425,0.0
450,0.0
451,0.0
452,-1.562217829182825
453,0.0
490,0.0
515,0.0
516,0.0
542,0.0
592,4712396.859098781
632,3392456.705223515
686,0.9999999999999997
687,0.9999999999999997
688,1.9999999999999993
2,21, 1,21, 0, 6,40.00,50.00,Monday
250,23.856918326677192
251,8723193.438649511
336,0.0
385,23.9
386,27.67
387,-0.15652046600229183
388,0.0
425,0.0
450,0.0
451,0.0
452,-1.5810403667559485
453,0.0
490,0.0
515,0.0
516,0.0
542,0.0
592,4703510.587502488
632,3880755.070240735
686,1.0
687,1.0
688,2.0
2,21, 1,21, 0, 6,50.00,60.00,Monday
250,22.759028757202802
251,6602293.254745858
336,0.0
385,22.566666666666634
386,27.669999999999963
387,-0.18471342730015564
388,0.0
425,0.0
450,0.0
451,0.0
452,-1.6079582166891935
453,0.0
490,0.0
515,0.0
516,0.0
542,0.0
592,2661363.010059381
632,3857457.946609974
686,0.5916510401566807
687,0.49999999999999933
688,1.166666666666665
2,21, 1,21, 0, 7, 0.00,10.00,Monday
250,23.205902009160685
251,6563701.203889665
336,0.0
385,23.233333333333334
386,27.67
387,-0.22037187375362582
388,0.0
425,0.0
450,0.0
451,0.0
452,-1.6545545284333087
453,0.0
490,0.0
515,0.0
516,0.0
542,0.0
592,3557881.0910761654
632,2906330.6726163486
686,0.7874116094087142
687,0.6666666666666666
688,1.6666666666666665
2,21, 1,21, 0, 7,10.00,20.00,Monday
250,23.446376885815177
251,7743866.375165774
336,0.0
385,23.9
386,27.67
387,-0.27230703505748105
388,0.0
425,0.0
450,0.0
451,0.0
452,-1.7441446866580068
453,0.0
490,0.0
515,0.0
516,0.0
542,0.0
592,4746689.538162785
632,3527020.018252032
686,1.0
687,1.0
688,2.0
2,21, 1,21, 0, 7,20.00,30.00,Monday
250,23.857306022038145
251,8856199.296040734
336,0.0
385,23.9
386,27.67
387,-0.3268116109259232
388,0.0
425,0.0
450,0.0
451,0.0
452,-1.8669866301224385
453,0.0
490,0.0
515,0.0
516,0.0
542,0.0
592,4761369.827767803
632,3954874.223293177
686,1.0
687,1.0
688,2.0
2,21, 1,21, 0, 7,30.00,40.00,Monday
250,22.75399206926294
251,6696446.013628474
336,0.0
385,22.56666666666665
386,27.669999999999984
387,-0.3820663143678969
388,0.0
425,0.0
450,0.0
451,0.0
452,-2.018067057515237
453,0.0
490,0.0
515,0.0
516,0.0
542,0.0
592,2719525.3632117985
632,3895353.6273441412
686,0.5949524767200622
687,0.49999999999999967
688,1.1666666666666659
2,21, 1,21, 0, 7,40.00,50.00,Monday
250,23.20646595800185
251,6626616.670177842
336,0.0
385,23.23333333333335
386,27.670000000000023
387,-0.4478579198846874
388,0.0
425,0.0
450,0.0
451,0.0
452,-2.209300979174394
453,0.0
490,0.0
515,0.0
516,0.0
542,0.0
592,3630638.8551259865
632,2893612.173244315
686,0.7910978151726739
687,0.6666666666666672
688,1.6666666666666679
2,21, 1,21, 0, 7,50.00,60.00,Monday
250,23.44711232237518
251,7797262.824797962
336,0.0
385,23.9
386,27.67
387,-0.5359544488990126
388,0.0
425,0.0
450,0.0
451,0.0
452,-2.4660636276089494
453,0.0
490,0.0
515,0.0
516,0.0
542,0.0
592,4825922.0226131985
632,3500010.223086537
686,1.0
687,1.0
688,2.0
2,21, 1,21, 0, 8, 0.00,10.00,Monday
250,23.857391518952312
251,8581201.790634174
336,0.0
385,23.9
386,27.67
387,-0.6110987245458335
388,0.0
425,0.0
450,0.0
451,0.0
452,-2.6978548367284536
453,0.0
490,0.0
515,0.0
516,0.0
542,0.0
592,4829340.300401133
632,3611670.81998061
686,1.0
687,1.0
688,2.0
2,21, 1,21, 0, 8,10.00,20.00,Monday
250,22.77376634980663
251,6322196.18368554
336,0.0
385,22.566666666666663
386,27.670000000000005
387,-0.6613835007342039
388,0.0
425,0.0
450,0.0
451,0.0
452,-2.813361850636119
453,0.0
490,0.0
515,0.0
516,0.0
542,0.0
592,2685909.5491380803
632,3548152.8299889634
686,0.5756791701538222
687,0.5
688,1.1666666666666665
2,21, 1,21, 0, 8,20.00,30.00,Monday
250,23.199086910833213
251,6175071.374379387
336,0.0
385,23.233333333333324
386,27.669999999999995
387,-0.7047718351083972
388,0.0
425,0.0
450,0.0
451,0.0
452,-2.8321006879450574
453,0.0
490,0.0
515,0.0
516,0.0
542,0.0
592,3536531.683087744
632,2571489.0629246132
686,0.7532430984638556
687,0.6666666666666664
688,1.666666666666666
2,21, 1,21, 0, 8,30.00,40.00,Monday
250,23.439533532199555
251,7313068.279623313
336,0.0
385,23.89999999999999
386,27.66999999999999
387,-0.7433016026405437
388,0.0
425,0.0
450,0.0
451,0.0
452,-2.735857519756491
453,0.0
490,0.0
515,0.0
516,0.0
542,0.0
592,4868070.287752023
632,2982711.83970573
686,0.9999999999999997
687,0.9999999999999997
688,1.9999999999999993
2,21, 1,21, 0, 8,40.00,50.00,Monday
250,23.856538138405252
251,8322725.226869726
336,0.0
385,23.9
386,27.67
387,-0.760464128883073
388,0.0
425,0.0
450,0.0
451,0.0
452,-2.527084938231839
453,0.0
490,0.0
515,0.0
516,0.0
542,0.0
592,4871363.73121823
632,3313111.417956992
686,1.0
687,1.0
688,2.0
2,21, 1,21, 0, 8,50.00,60.00,Monday
250,22.788358752935924
251,6044198.336497737
336,0.0
385,22.566666666666634
386,27.669999999999963
387,-0.7541295983451294
388,0.0
425,0.0
450,0.0
451,0.0
452,-2.2240042226660792
453,0.0
490,0.0
515,0.0
516,0.0
542,0.0
592,2658457.4916086122
632,3292886.1024079113
686,0.5612172235545477
687,0.49999999999999933
688,1.166666666666665
2,21, 1,21, 0, 9, 0.00,10.00,Monday
250,23.18783220524837
251,5530540.582975684
336,0.0
385,23.233333333333334
386,27.67
387,-0.7278808246032067
388,0.0
425,0.0
450,0.0
451,0.0
452,-1.8264273423699797
453,0.0
490,0.0
515,0.0
516,0.0
542,0.0
592,3389166.564822799
632,2126927.68217095
686,0.7012445904732785
687,0.6666666666666666
688,1.6666666666666665
2,21, 1,21, 0, 9,10.00,20.00,Monday
250,23.83059249937813
251,7517561.894608382
336,0.0
385,23.9
386,27.67
387,-0.6814768757346324
388,0.0
425,0.0
450,0.0
451,0.0
452,-1.3206907837687467
453,0.0
490,0.0
515,0.0
516,0.0
542,0.0
592,4917474.989447219
632,2527477.6851898283
686,1.0
687,1.0
688,2.0
2,21, 1,21, 0, 9,20.00,30.00,Monday
250,22.811065372531168
251,5589005.288989497
336,0.0
385,22.566666666666684
386,27.670000000000027
387,-0.6219109480308835
388,0.0
425,0.0
450,0.0
451,0.0
452,-0.7859025668797055
453,0.0
490,0.0
515,0.0
516,0.0
542,0.0
592,2583862.983608952
632,2907213.375476459
686,0.5387054045556252
687,0.4831727233161355
688,1.1666666666666674
2,21, 1,21, 0, 9,30.00,40.00,Monday
250,23.184709347354882
251,5295860.264825406
336,0.0
385,23.23333333333335
386,27.670000000000023
387,-0.550004634450889
388,0.0
425,0.0
450,0.0
451,0.0
452,-0.20049638321255595
453,0.0
490,0.0
515,0.0
516,0.0
542,0.0
592,3364238.3458014056
632,1931949.7587350488
686,0.6840031426261484
687,0.6666666666666672
688,1.6666666666666679
2,21, 1,21, 0, 9,40.00,50.00,Monday
250,23.21599393177796
251,6690426.704638909
336,0.0
385,23.23333333333335
386,27.670000000000023
387,-0.4502843431058261
388,0.0
425,0.0
450,0.0
451,0.0
452,0.5681931386876526
453,0.0
490,0.0
515,0.0
516,0.0
542,0.0
592,2801218.1015252606
632,3794956.884977728
686,0.6533191307498849
687,0.3333333333333336
688,1.3333333333333344
2,21, 1,21, 0, 9,50.00,60.00,Monday
250,23.217425206296078
251,6674172.21336948
336,0.0
385,23.23333333333335
386,27.670000000000023
387,-0.359692743502659
388,0.0
425,0.0
450,0.0
451,0.0
452,1.179943982374772
453,0.0
490,0.0
515,0.0
516,0.0
542,0.0
592,2833734.074501073
632,3739828.3382228054
686,0.6594681627324696
687,0.3333333333333336
688,1.3333333333333344
2,21, 1,21, 0,10, 0.00,10.00,Monday
250,23.833134460974108
251,7336967.581724985
336,0.0
385,23.9
386,27.67
387,-0.27973610088622003
388,0.0
425,0.0
450,0.0
451,0.0
452,1.6750603047528188
453,0.0
490,0.0
515,0.0
516,0.0
542,0.0
592,5021788.53577495
632,2234778.132122748
686,1.0
687,1.0
688,2.0
2,21, 1,21, 0,10,10.00,20.00,Monday
250,22.82285379044179
251,5347891.845152669
336,0.0
385,22.566666666666663
386,27.670000000000005
387,-0.19957629847804204
388,0.0
425,0.0
450,0.0
451,0.0
452,2.1453374470287345
453,0.0
490,0.0
515,0.0
516,0.0
542,0.0
592,2490064.0561324507
632,2766254.2729994007
686,0.5252556316605355
687,0.40633668036553283
688,1.1666666666666665
2,21, 1,21, 0,10,20.00,30.00,Monday
250,23.184321297667417
251,5028332.703795978
336,0.0
385,23.233333333333324
386,27.669999999999995
387,-0.10418404392426792
388,0.0
425,0.0
450,0.0
451,0.0
452,2.672375981734301
453,0.0
490,0.0
515,0.0
516,0.0
542,0.0
592,3389827.8835161915
632,1655966.4866209724
686,0.6666666666666664
687,0.6644717011479158
688,1.3333333333333328
2,21, 1,21, 0,10,30.00,40.00,Monday
250,22.822140641159926
251,4969646.774049491
336,0.0
385,22.699999999999992
386,27.669999999999987
387,0.0005746213082994372
388,0.0
425,0.0
450,0.0
451,0.0
452,3.2417468080491
453,0.0
490,0.0
515,0.0
516,0.0
542,0.0
592,2408999.540665393
632,2616671.9512062585
686,0.49723594581424807
687,0.3999999999999997
688,0.9999999999999993
2,21, 1,21, 0,10,40.00,50.00,Monday
250,23.165913067132642
251,6644439.281742863
336,0.0
385,23.23333333333335
386,27.670000000000023
387,0.12218847399351809
388,0.0
425,0.0
450,0.0
451,0.0
452,3.893951900972665
453,0.0
490,0.0
515,0.0
516,0.0
542,0.0
592,3844716.9384420076
632,2838723.138866747
686,0.8997941764297318
687,0.34657750054393643
688,1.666666666666668
2,21, 1,21, 0,10,50.00,60.00,Monday
250,23.262529831825425
251,4805494.192446638
336,0.0
385,23.23333333333335
386,27.670000000000023
387,0.3164328432951887
388,0.0
425,0.0
450,0.0
451,0.0
452,4.810193795329756
453,0.0
490,0.0
515,0.0
516,0.0
542,0.0
592,3459069.017031513
632,1303516.0849010707
686,0.6666666666666672
687,0.6666666666666672
688,1.3333333333333344
2,21, 1,21, 0,11, 0.00,10.00,Monday
250,22.8640941020425
251,4616796.179205623
336,0.0
385,22.7
386,27.67
387,0.4552090907341944
388,0.0
425,0.0
450,0.0
451,0.0
452,5.519021981323976
453,0.0
490,0.0
515,0.0
516,0.0
542,0.0
592,2341078.2320532417
632,2323167.132698655
686,0.46842702459461955
687,0.4
688,1.0
2,21, 1,21, 0,11,10.00,20.00,Monday
250,23.16300338944561
251,6216957.218170517
336,0.0
385,23.23333333333333
386,27.67
387,0.613915330480785
388,0.0
425,0.0
450,0.0
451,0.0
452,6.324893690043849
453,0.0
490,0.0
515,0.0
516,0.0
542,0.0
592,3573905.961251097
632,2707393.539364118
686,0.8192605615514328
687,0.33333333333333337
688,1.3333333333333333
2,21, 1,21, 0,11,20.00,30.00,Monday
250,23.031010543669225
251,5123356.959408816
336,0.0
385,22.9
386,27.67
387,0.7906208818403753
388,0.0
425,0.0
450,0.0
451,0.0
452,7.1972162448247445
453,0.0
490,0.0
515,0.0
516,0.0
542,0.0
592,3843738.357662046
632,1119674.438153906
686,0.75
687,0.6885161809321229
688,1.5
2,21, 1,21, 0,11,30.00,40.00,Monday
250,22.996560728233987
251,5383113.473108366
336,0.0
385,22.9
386,27.67
387,1.0606852483975135
388,0.0
425,0.0
450,0.0
451,0.0
452,8.318467073812558
453,0.0
490,0.0
515,0.0
516,0.0
542,0.0
592,2938976.0141855767
632,2351152.181332799
686,0.5808587238309487
687,0.5
688,1.25
2,21, 1,21, 0,11,40.00,50.00,Monday
250,22.995727928471364
251,5330041.86978677
336,0.0
385,22.9
386,27.67
387,1.3039493696633657
388,0.0
425,0.0
450,0.0
451,0.0
452,9.21498143403391
453,0.0
490,0.0
515,0.0
516,0.0
542,0.0
592,2971090.1302773254
632,2269174.6267863307
686,0.5865753236180997
687,0.5
688,1.25
2,21, 1,21, 0,11,50.00,60.00,Monday
250,23.270317183865224
251,4229457.500436474
336,0.0
385,23.23333333333335
386,27.670000000000023
387,1.487012212678548
388,0.0
425,0.0
450,0.0
451,0.0
452,9.875532961580888
453,0.0
490,0.0
515,0.0
516,0.0
542,0.0
592,3281558.2150375973
632,941237.4912567334
686,0.6666666666666672
687,0.49705863355520974
688,1.3333333333333344
2,21, 1,21, 0,12, 0.00,10.00,Monday
250,22.89713563350155
251,4309903.177284059
336,0.0
385,22.7
386,27.67
387,1.6666103935272096
388,0.0
425,0.0
450,0.0
451,0.0
452,10.449536618742158
453,0.0
490,0.0
515,0.0
516,0.0
542,0.0
592,2292447.9191779
632,2059355.6413380725
686,0.4439288543708883
687,0.4
688,1.0
2,21, 1,21, 0,12,10.00,20.00,Monday
250,23.15922270744016
251,5824491.02089173
336,0.0
385,23.23333333333333
386,27.67
387,1.8560207772181396
388,0.0
425,0.0
450,0.0
451,0.0
452,10.949111984517089
453,0.0
490,0.0
515,0.0
516,0.0
542,0.0
592,3334305.3214428113
632,2579604.589314527
686,0.7409385044904986
687,0.33333333333333337
688,1.3333333333333333
2,21, 1,21, 0,12,20.00,30.00,Monday
250,23.32108563681672
251,4302097.247767208
336,0.0
385,23.233333333333324
386,27.669999999999995
387,2.1119935636934186
388,0.0
425,0.0
450,0.0
451,0.0
452,11.45453137011127
453,0.0
490,0.0
515,0.0
516,0.0
542,0.0
592,3547954.494201817
632,712229.2374489633
686,0.6666666666666664
687,0.6666666666666664
688,1.3333333333333328
2,21, 1,21, 0,12,30.00,40.00,Monday
250,22.916087930859725
251,4159406.196731409
336,0.0
385,22.699999999999992
386,27.669999999999987
387,2.257716357998068
388,0.0
425,0.0
450,0.0
451,0.0
452,11.668930469083973
453,0.0
490,0.0
515,0.0
516,0.0
542,0.0
592,2183317.9891661936
632,2017788.0402331625
686,0.4311570316302456
687,0.35242893534588016
688,0.9999999999999993
2,21, 1,21, 0,12,40.00,50.00,Monday
250,23.158021252003195
251,5695096.804373251
336,0.0
385,23.23333333333335
386,27.670000000000023
387,2.3948322103297475
388,0.0
425,0.0
450,0.0
451,0.0
452,11.77114415697866
453,0.0
490,0.0
515,0.0
516,0.0
542,0.0
592,3254644.270385712
632,2536895.316553436
686,0.7166487166684615
687,0.3333333333333336
688,1.3333333333333344
2,21, 1,21, 0,12,50.00,60.00,Monday
250,23.32753025874945
251,4236731.15476267
336,0.0
385,23.23333333333335
386,27.670000000000023
387,2.5666976292388926
388,0.0
425,0.0
450,0.0
451,0.0
452,11.771340368049394
453,0.0
490,0.0
515,0.0
516,0.0
542,0.0
592,3562715.1817991417
632,632267.7272347468
686,0.6666666666666672
687,0.6666666666666672
688,1.3333333333333344
2,21, 1,21, 0,13, 0.00,10.00,Monday
250,22.920219207457794
251,4120938.440664225
336,0.0
385,22.7
386,27.67
387,2.65795597224466
388,0.0
425,0.0
450,0.0
451,0.0
452,11.680626805096946
453,0.0
490,0.0
515,0.0
516,0.0
542,0.0
592,2153065.7994585005
632,2010158.2465740475
686,0.4278841700340843
687,0.3373347478097235
688,1.0
2,21, 1,21, 0,13,10.00,20.00,Monday
250,23.156968958337508
251,5584979.002529256
336,0.0
385,23.23333333333333
386,27.67
387,2.742883622371732
388,0.0
425,0.0
450,0.0
451,0.0
452,11.589157261171831
453,0.0
490,0.0
515,0.0
516,0.0
542,0.0
592,3187222.1207083706
632,2499694.779252676
686,0.6991472669725846
687,0.33333333333333337
688,1.3333333333333333
2,21, 1,21, 0,13,20.00,30.00,Monday
250,23.340760306527823
251,4121242.2146897186
336,0.0
385,23.233333333333324
386,27.669999999999995
387,2.851974908631561
388,0.0
425,0.0
450,0.0
451,0.0
452,11.502127694449253
453,0.0
490,0.0
515,0.0
516,0.0
542,0.0
592,3555205.535140272
632,524456.638072374
686,0.6666666666666664
687,0.6666666666666664
688,1.3333333333333328
2,21, 1,21, 0,13,30.00,40.00,Monday
250,22.935445396039654
251,3992918.7294396143
336,0.0
385,22.699999999999992
386,27.669999999999987
387,2.9177466718827088
388,0.0
425,0.0
450,0.0
451,0.0
452,11.47503018793215
453,0.0
490,0.0
515,0.0
516,0.0
542,0.0
592,2024132.748504344
632,2014146.6819837827
686,0.4192264383055879
687,0.27521187939304365
688,0.9999999999999993
2,21, 1,21, 0,13,40.00,50.00,Monday
250,23.15498528236118
251,5379228.389150423
336,0.0
385,23.23333333333335
386,27.670000000000023
387,2.9855386136890267
388,0.0
425,0.0
450,0.0
451,0.0
452,11.458861605317367
453,0.0
490,0.0
515,0.0
516,0.0
542,0.0
592,3045607.074443058
632,2447955.9764434267
686,0.6640332488503167
687,0.3333333333333336
688,1.3333333333333344
2,21, 1,21, 0,13,50.00,60.00,Monday
250,22.88966221895179
251,5029447.622807735
336,0.0
385,22.9
386,27.67
387,3.0539649035686165
388,0.0
425,0.0
450,0.0
451,0.0
452,11.447853918946068
453,0.0
490,0.0
515,0.0
516,0.0
542,0.0
592,3113739.931017872
632,1989249.1612900095
686,0.6176663492465043
687,0.5
688,1.25
2,21, 1,21, 0,14, 0.00,10.00,Monday
250,23.155600451846546
251,5311159.337960774
336,0.0
385,23.233333333333334
386,27.67
387,3.125719362342336
388,0.0
425,0.0
450,0.0
451,0.0
452,11.406505354169493
453,0.0
490,0.0
515,0.0
516,0.0
542,0.0
592,3015314.2973388806
632,2416950.2834603433
686,0.654797119794701
687,0.3333333333333333
688,1.3333333333333335
2,21, 1,21, 0,14,10.00,20.00,Monday
250,22.900867940987652
251,4856348.944065882
336,0.0
385,22.9
386,27.67
387,3.1952432977364023
388,0.0
425,0.0
450,0.0
451,0.0
452,11.301224916736196
453,0.0
490,0.0
515,0.0
516,0.0
542,0.0
592,3074868.941204954
632,1851362.7062379117
686,0.6039586858248109
687,0.5
688,1.25
2,21, 1,21, 0,14,20.00,30.00,Monday
250,23.15433167956405
251,5190570.748019364
336,0.0
385,23.23333333333332
386,27.669999999999995
387,3.2615537059737596
388,0.0
425,0.0
450,0.0
451,0.0
452,11.132117566202187
453,0.0
490,0.0
515,0.0
516,0.0
542,0.0
592,2939521.3305079504
632,2380522.483238017
686,0.6315622943121934
687,0.3333333333333332
688,1.3333333333333328
2,21, 1,21, 0,14,30.00,40.00,Monday
250,22.904136716996323