Program Version,EnergyPlus, Version 24.2.0-94a887817b, YMD=2025.01.30 20:35
1,5,Environment Title[],Latitude[deg],Longitude[deg],Time Zone[],Elevation[m]
2,8,Day of Simulation[],Month[],Day of Month[],DST Indicator[1=yes 0=no],Hour[],StartMinute[],EndMinute[],DayType
3,5,Cumulative Day of Simulation[],Month[],Day of Month[],DST Indicator[1=yes 0=no],DayType  ! When Daily Report Variables Requested
4,2,Cumulative Days of Simulation[],Month[]  ! When Monthly Report Variables Requested
5,1,Cumulative Days of Simulation[] ! When Run Period Report Variables Requested
6,1,Calendar Year of Simulation[] ! When Annual Report Variables Requested
250,1,LIVING ZONE,Zone Air Temperature [C] !TimeStep,REPORTSCH
251,1,LIVING ZONE,Zone Air System Sensible Heating Energy [J] !TimeStep,REPORTSCH
336,1,LIVING ZONE,Zone Air System Sensible Cooling Energy [J] !TimeStep,REPORTSCH
385,1,LIVING ZONE,Zone Thermostat Heating Setpoint Temperature [C] !TimeStep,REPORTSCH
386,1,LIVING ZONE,Zone Thermostat Cooling Setpoint Temperature [C] !TimeStep,REPORTSCH
387,1,GARAGE ZONE,Zone Air Temperature [C] !TimeStep,REPORTSCH
388,1,GARAGE ZONE,Zone Air System Sensible Heating Energy [J] !TimeStep,REPORTSCH
425,1,GARAGE ZONE,Zone Air System Sensible Cooling Energy [J] !TimeStep,REPORTSCH
450,1,GARAGE ZONE,Zone Thermostat Heating Setpoint Temperature [C] !TimeStep,REPORTSCH
451,1,GARAGE ZONE,Zone Thermostat Cooling Setpoint Temperature [C] !TimeStep,REPORTSCH
452,1,ATTIC ZONE,Zone Air Temperature [C] !TimeStep,REPORTSCH
453,1,ATTIC ZONE,Zone Air System Sensible Heating Energy [J] !TimeStep,REPORTSCH
490,1,ATTIC ZONE,Zone Air System Sensible Cooling Energy [J] !TimeStep,REPORTSCH
515,1,ATTIC ZONE,Zone Thermostat Heating Setpoint Temperature [C] !TimeStep,REPORTSCH
516,1,ATTIC ZONE,Zone Thermostat Cooling Setpoint Temperature [C] !TimeStep,REPORTSCH
542,1,ACDXCOIL 1,Cooling Coil Total Cooling Energy [J] !TimeStep,REPORTSCH
592,1,HEAT PUMP DX HEATING COIL 1,Heating Coil Heating Energy [J] !TimeStep,REPORTSCH
632,1,SUPP HEATING COIL 1,Heating Coil Heating Energy [J] !TimeStep,REPORTSCH
686,1,TWOSPEED HEAT PUMP 1,Unitary System DX Coil Cycling Ratio [] !TimeStep,REPORTSCH
687,1,TWOSPEED HEAT PUMP 1,Unitary System DX Coil Speed Ratio [] !TimeStep,REPORTSCH
688,1,TWOSPEED HEAT PUMP 1,Unitary System DX Coil Speed Level [] !TimeStep,REPORTSCH
End of Data Dictionary
1,RUN PERIOD 1,  41.98, -87.92,  -6.00, 201.00
2,21, 1,21, 0, 1, 0.00,10.00,Monday
250,14.78925327374385
251,2623033.794449046
336,0.0
385,14.003333333333334
386,29.67
387,-0.62018065035652
388,0.0
425,0.0
450,0.0
451,0.0
452,-1.6229848582700988
453,0.0
490,0.0
515,0.0
516,0.0
542,0.0
592,1613247.9950265468
632,1126696.4226786091
686,0.3333333333333333
687,0.3333333333333333
688,0.6666666666666666
2,21, 1,21, 0, 1,10.00,20.00,Monday
250,13.149100786142107
251,379451.83731381275
336,0.0
385,12.669999999999998
386,29.67
387,-0.629857518196512
388,0.0
425,0.0
450,0.0
451,0.0
452,-1.6050622232762626
453,0.0
490,0.0
515,0.0
516,0.0
542,0.0
592,345232.987750719
632,0.0
686,0.09521397165610039
687,0.0
688,0.3333333333333332
2,21, 1,21, 0, 1,20.00,30.00,Monday
250,14.56716414326763
251,1932035.89677538
336,0.0
385,13.67
386,29.67
387,-0.6382298734253318
388,0.0
425,0.0
450,0.0
451,0.0
452,-1.6057248634415564
453,0.0
490,0.0
515,0.0
516,0.0
542,0.0
592,1201964.5407263052
632,848091.0469027085
686,0.25
687,0.25
688,0.5
2,21, 1,21, 0, 1,30.00,40.00,Monday
250,13.5738399485568
251,0.0
336,0.0
385,12.67
386,29.67
387,-0.6484527043181398
388,0.0
425,0.0
450,0.0
451,0.0
452,-1.6175506969085838
453,0.0
490,0.0
515,0.0
516,0.0
542,0.0
592,0.0
632,0.0
686,0.0
687,0.0
688,0.0
2,21, 1,21, 0, 1,40.00,50.00,Monday
250,13.385245890075726
251,2593128.341170253
336,0.0
385,13.336666666666677
386,29.670000000000023
387,-0.6601083449068303
388,0.0
425,0.0
450,0.0
451,0.0
452,-1.641074797660023
453,0.0
490,0.0
515,0.0
516,0.0
542,0.0
592,1714845.2990444046
632,1088000.806081412
686,0.36755595565327176
687,0.3333333333333336
688,1.0000000000000009
2,21, 1,21, 0, 1,50.00,60.00,Monday
250,14.226253555147519
251,1583804.1740313903
336,0.0
385,13.470000000000002
386,29.670000000000005
387,-0.6729498893259441
388,0.0
425,0.0
450,0.0
451,0.0
452,-1.6752523521370448
453,0.0
490,0.0
515,0.0
516,0.0
542,0.0
592,952004.0795977915
632,706336.0938486832
686,0.2
687,0.2
688,0.4
2,21, 1,21, 0, 2, 0.00,10.00,Monday
250,13.259920861613164
251,84065.10353471269
336,0.0
385,12.669999999999998
386,29.67
387,-0.6871827226459932
388,0.0
425,0.0
450,0.0
451,0.0
452,-1.7157110788335088
453,0.0
490,0.0
515,0.0
516,0.0
542,0.0
592,73990.55935175599
632,0.0
686,0.020679752429242516
687,0.0
688,0.33333333333333337
2,21, 1,21, 0, 2,10.00,20.00,Monday
250,14.43885992949508
251,1795161.7857640667
336,0.0
385,13.67
386,29.67
387,-0.7017570862266678
388,0.0
425,0.0
450,0.0
451,0.0
452,-1.7525219185582652
453,0.0
490,0.0
515,0.0
516,0.0
542,0.0
592,1190005.0994972396
632,709971.4776926392
686,0.25
687,0.25
688,0.5
2,21, 1,21, 0, 2,20.00,30.00,Monday
250,13.339350589261532
251,124366.25686941932
336,0.0
385,12.669999999999995
386,29.66999999999999
387,-0.716695228410263
388,0.0
425,0.0
450,0.0
451,0.0
452,-1.782150916048563
453,0.0
490,0.0
515,0.0
516,0.0
542,0.0
592,108776.06862201044
632,0.0
686,0.030402016000924913
687,0.0
688,0.3333333333333332
2,21, 1,21, 0, 2,30.00,40.00,Monday
250,14.717719022667605
251,2646666.2181648365
336,0.0
385,14.003333333333337
386,29.670000000000012
387,-0.7358899213875386
388,0.0
425,0.0
450,0.0
451,0.0
452,-1.8112129196114117
453,0.0
490,0.0
515,0.0
516,0.0
542,0.0
592,1586673.4659963192
632,1180429.8840016322
686,0.3333333333333332
687,0.3333333333333332
688,0.6666666666666664
2,21, 1,21, 0, 2,40.00,50.00,Monday
250,13.005503442895568
251,658403.6806113113
336,0.0
385,12.670000000000009
386,29.670000000000023
387,-0.7511986679193082
388,0.0
425,0.0
450,0.0
451,0.0
452,-1.824519117903497
453,0.0
490,0.0
515,0.0
516,0.0
542,0.0
592,614721.0647252679
632,0.0
686,0.1718094787082755
687,0.0
688,0.3333333333333336
2,21, 1,21, 0, 2,50.00,60.00,Monday
250,14.536209169776374
251,2116553.106312009
336,0.0
385,13.67
386,29.67
387,-0.7621725044086876
388,0.0
425,0.0
450,0.0
451,0.0
452,-1.8289281905291874
453,0.0
490,0.0
515,0.0
516,0.0
542,0.0
592,1190005.0994972396
632,1061978.0123594576
686,0.25
687,0.25
688,0.5
2,21, 1,21, 0, 3, 0.00,10.00,Monday
250,13.470153966652287
251,0.0
336,0.0
385,12.67
386,29.67
387,-0.7632854415817503
388,0.0
425,0.0
450,0.0
451,0.0
452,-1.8223974008022417
453,0.0
490,0.0
515,0.0
516,0.0
542,0.0
592,0.0
632,0.0
686,0.0
687,0.0
688,0.0
2,21, 1,21, 0, 3,10.00,20.00,Monday
250,13.339992521451261
251,2752303.2650835207
336,0.0
385,13.336666666666666
386,29.67
387,-0.7553432174165409
388,0.0
425,0.0
450,0.0
451,0.0
452,-1.7999555712666666
453,0.0
490,0.0
515,0.0
516,0.0
542,0.0
592,1904606.4469741944
632,1040502.7769293617
686,0.42156462505602643
687,0.3333333333333332
688,0.9999999999999998
2,21, 1,21, 0, 3,20.00,30.00,Monday
250,14.159440833963764
251,1655664.048695205
336,0.0
385,13.470000000000002
386,29.670000000000005
387,-0.741483213674853
388,0.0
425,0.0
450,0.0
451,0.0
452,-1.7620817103959472
453,0.0
490,0.0
515,0.0
516,0.0
542,0.0
592,953461.6501476667
632,781230.9540383216
686,0.2
687,0.2
688,0.4
2,21, 1,21, 0, 3,30.00,40.00,Monday
250,13.180458613381058
251,303551.16944229335
336,0.0
385,12.670000000000009
386,29.670000000000023
387,-0.7227279613390934
388,0.0
425,0.0
450,0.0
451,0.0
452,-1.709734088674471
453,0.0
490,0.0
515,0.0
516,0.0
542,0.0
592,272175.3824073456
632,0.0
686,0.07579263155264149
687,0.0
688,0.3333333333333336
2,21, 1,21, 0, 3,40.00,50.00,Monday
250,14.387837692538266
251,1912914.9275349402
336,0.0
385,13.67
386,29.67
387,-0.6999829481608514
388,0.0
425,0.0
450,0.0
451,0.0
452,-1.6466825073132663
453,0.0
490,0.0
515,0.0
516,0.0
542,0.0
592,1192904.0289212433
632,834490.2301225401
686,0.25
687,0.25
688,0.5
2,21, 1,21, 0, 3,50.00,60.00,Monday
250,13.272646294887037
251,329862.603837972
336,0.0
385,12.670000000000009
386,29.670000000000023
387,-0.6737722409275595
388,0.0
425,0.0
450,0.0
451,0.0
452,-1.574221440160366
453,0.0
490,0.0
515,0.0
516,0.0
542,0.0
592,293348.0461729071
632,0.0
686,0.08154960625418461
687,0.0
688,0.3333333333333336
2,21, 1,21, 0, 4, 0.00,10.00,Monday
250,14.34517254323132
251,1857122.3616401744
336,0.0
385,13.67
386,29.67
387,-0.6561565773523611
388,0.0
425,0.0
450,0.0
451,0.0
452,-1.504908008612779
453,0.0
490,0.0
515,0.0
516,0.0
542,0.0
592,1193357.2455929082
632,767163.140290064
686,0.25
687,0.25
688,0.5
2,21, 1,21, 0, 4,10.00,20.00,Monday
250,13.22772341769491
251,415917.42088071624
336,0.0
385,12.669999999999998
386,29.67
387,-0.6442899969392297
388,0.0
425,0.0
450,0.0
451,0.0
452,-1.4432873311601342
453,0.0
490,0.0
515,0.0
516,0.0
542,0.0
592,373039.61732539564
632,0.0
686,0.10371110168714405
687,0.0
688,0.3333333333333332
2,21, 1,21, 0, 4,20.00,30.00,Monday
250,14.338359111499992
251,1909854.6544159704
336,0.0
385,13.67
386,29.67
387,-0.6368607608922203
388,0.0
425,0.0
450,0.0
451,0.0
452,-1.3942818503686984
453,0.0
490,0.0
515,0.0
516,0.0
542,0.0
592,1193270.3243593145
632,825413.4186985678
686,0.25
687,0.25
688,0.5
2,21, 1,21, 0, 4,30.00,40.00,Monday
250,13.215634768872853
251,461370.5550843304
336,0.0
385,12.670000000000009
386,29.670000000000023
387,-0.6319528471388867
388,0.0
425,0.0
450,0.0
451,0.0
452,-1.3549269525918834
453,0.0
490,0.0
515,0.0
516,0.0
542,0.0
592,415113.88554936985
632,0.0
686,0.11541684475869007
687,0.0
688,0.3333333333333336
2,21, 1,21, 0, 4,40.00,50.00,Monday
250,14.324940381655562
251,1931365.7263224707
336,0.0
385,13.67
386,29.67
387,-0.6291267947803616
388,0.0
425,0.0
450,0.0
451,0.0
452,-1.325466556251036
453,0.0
490,0.0
515,0.0
516,0.0
542,0.0
592,1193183.3440085577
632,848484.5471656104
686,0.25
687,0.25
688,0.5
2,21, 1,21, 0, 4,50.00,60.00,Monday
250,13.198573327373953
251,507552.89220767963
336,0.0
385,12.670000000000009
386,29.670000000000023
387,-0.6276869878423582
388,0.0
425,0.0
450,0.0
451,0.0
452,-1.302548053478215
453,0.0
490,0.0
515,0.0
516,0.0
542,0.0
592,458371.08152751764
632,0.0
686,0.12745322142944746
687,0.0
688,0.3333333333333336
2,21, 1,21, 0, 5, 0.00,10.00,Monday
250,14.314566325447744
251,1956159.6598646324
336,0.0
385,13.67
386,29.67
387,-0.6273380351787347
388,0.0
425,0.0
450,0.0
451,0.0
452,-1.285106066093916
453,0.0
490,0.0
515,0.0
516,0.0
542,0.0
592,1189930.2146723955
632,878601.3419854966
686,0.25
687,0.25
688,0.5
2,21, 1,21, 0, 5,10.00,20.00,Monday
250,13.18419151982458
251,549124.7922830923
336,0.0
385,12.669999999999998
386,29.67
387,-0.6276999178236328
388,0.0
425,0.0
450,0.0
451,0.0
452,-1.2700332693198995
453,0.0
490,0.0
515,0.0
516,0.0
542,0.0
592,497285.3054043454
632,0.0
686,0.13902169073200824
687,0.0
688,0.3333333333333332
2,21, 1,21, 0, 5,20.00,30.00,Monday
250,14.304451285980718
251,1977922.3987400425
336,0.0
385,13.67
386,29.67
387,-0.6285830671922558
388,0.0
425,0.0
450,0.0
451,0.0
452,-1.2567228798198107
453,0.0
490,0.0
515,0.0
516,0.0
542,0.0
592,1183507.1336090032
632,908532.8059305807
686,0.25
687,0.25
688,0.5
2,21, 1,21, 0, 5,30.00,40.00,Monday
250,13.170332515063274
251,588094.6870198498
336,0.0
385,12.670000000000009
386,29.670000000000023
387,-0.629825228176689
388,0.0
425,0.0
450,0.0
451,0.0
452,-1.244014261060006
453,0.0
490,0.0
515,0.0
516,0.0
542,0.0
592,533971.2011088778
632,0.0
686,0.15009032858927188
687,0.0
688,0.3333333333333336
2,21, 1,21, 0, 5,40.00,50.00,Monday
250,14.295091301057962
251,1998604.2841281097
336,0.0
385,13.67
386,29.67
387,-0.6312695141779169
388,0.0
425,0.0
450,0.0
451,0.0
452,-1.232130928311224
453,0.0
490,0.0
515,0.0
516,0.0
542,0.0
592,1177078.9179319923
632,937324.5933487304
686,0.25
687,0.25
688,0.5
2,21, 1,21, 0, 5,50.00,60.00,Monday
250,13.15733096659993
251,624521.7507555854
336,0.0
385,12.670000000000009
386,29.670000000000023
387,-0.6328690690806765
388,0.0
425,0.0
450,0.0
451,0.0
452,-1.2205092759228455
453,0.0
490,0.0
515,0.0
516,0.0
542,0.0
592,568428.6878466818
632,0.0
686,0.16065105003586191
687,0.0
688,0.3333333333333336
2,21, 1,21, 0, 6, 0.00,10.00,Monday
250,14.286395068361653
251,2017921.7000283697
336,0.0
385,13.67
386,29.67
387,-0.6346031159051729
388,0.0
425,0.0
450,0.0
451,0.0
452,-1.2100838433928354
453,0.0
490,0.0
515,0.0
516,0.0
542,0.0
592,1173816.020563965
632,961482.4781381311
686,0.25
687,0.25
688,0.5
2,21, 1,21, 0, 6,10.00,20.00,Monday
250,13.145284951054071
251,657713.0232821772
336,0.0
385,12.669999999999998
386,29.67
387,-0.6365466098084132
388,0.0
425,0.0
450,0.0
451,0.0
452,-1.2011435051258643
453,0.0
490,0.0
515,0.0
516,0.0
542,0.0
592,600231.7264483449
632,0.0
686,0.16965286966797408
687,0.0
688,0.3333333333333332
2,21, 1,21, 0, 6,20.00,30.00,Monday
250,14.278312564724258
251,2035771.5081518297
336,0.0
385,13.67
386,29.67
387,-0.6386198188977203
388,0.0
425,0.0
450,0.0
451,0.0
452,-1.1942878483200277
453,0.0
490,0.0
515,0.0
516,0.0
542,0.0
592,1173722.2484146236
632,980887.6075314598
686,0.25
687,0.25
688,0.5
2,21, 1,21, 0, 6,30.00,40.00,Monday
250,13.133913559342137
251,688872.8729081829
336,0.0
385,12.670000000000009
386,29.670000000000023
387,-0.6408831979671314
388,0.0
425,0.0
450,0.0
451,0.0
452,-1.1889874750241676
453,0.0
490,0.0
515,0.0
516,0.0
542,0.0
592,630238.7550226981
632,0.0
686,0.17814846201322732
687,0.0
688,0.3333333333333336
2,21, 1,21, 0, 6,40.00,50.00,Monday
250,14.270664351191586
251,2052601.7525620698
336,0.0
385,13.67
386,29.67
387,-0.6432345599442163
388,0.0
425,0.0
450,0.0
451,0.0
452,-1.1852272594447335
453,0.0
490,0.0
515,0.0
516,0.0
542,0.0
592,1173628.412346958
632,999191.2303475584
686,0.25
687,0.25
688,0.5
2,21, 1,21, 0, 6,50.00,60.00,Monday
250,13.123083056219862
251,718324.696364635
336,0.0
385,12.670000000000009
386,29.670000000000023
387,-0.6457280091881975
388,0.0
425,0.0
450,0.0
451,0.0
452,-1.1824819987385267
453,0.0
490,0.0
515,0.0
516,0.0
542,0.0
592,658737.1366495169
632,0.0
686,0.18621894198644617
687,0.0
688,0.3333333333333336
2,21, 1,21, 0, 7, 0.00,10.00,Monday
250,14.243692828176892
251,2080273.3961796924
336,0.0
385,13.67
386,29.67
387,-0.6510121311583841
388,0.0
425,0.0
450,0.0
451,0.0
452,-1.1871222604215494
453,0.0
490,0.0
515,0.0
516,0.0
542,0.0
592,1180893.3958138588
632,1020909.1350282584
686,0.25
687,0.25
688,0.5
2,21, 1,21, 0, 7,10.00,20.00,Monday
250,13.08503924407891
251,815314.5107640706
336,0.0
385,12.669999999999998
386,29.67
387,-0.6603113739985395
388,0.0
425,0.0
450,0.0
451,0.0
452,-1.206997945015984
453,0.0
490,0.0
515,0.0
516,0.0
542,0.0
592,754329.4204661392
632,0.0
686,0.21061682008529686
687,0.0
688,0.3333333333333332
2,21, 1,21, 0, 7,20.00,30.00,Monday
250,14.239689102575934
251,2123988.4575661765
336,0.0
385,13.67
386,29.67
387,-0.6733292495916523
388,0.0
425,0.0
450,0.0
451,0.0
452,-1.2448041000626708
453,0.0
490,0.0
515,0.0
516,0.0
542,0.0
592,1195529.1756629862
632,1054572.6407818631
686,0.25
687,0.25
688,0.5
2,21, 1,21, 0, 7,30.00,40.00,Monday
250,13.075005916997437
251,851254.5632090933
336,0.0
385,12.670000000000009
386,29.670000000000023
387,-0.689852479531359
388,0.0
425,0.0
450,0.0
451,0.0
452,-1.2982866654829137
453,0.0
490,0.0
515,0.0
516,0.0
542,0.0
592,790160.4066555887
632,0.0
686,0.2179353329661722
687,0.0
688,0.3333333333333336
2,21, 1,21, 0, 7,40.00,50.00,Monday
250,14.227982441005212
251,2141436.167731369
336,0.0
385,13.67
386,29.67
387,-0.7090258810744796
388,0.0
425,0.0
450,0.0
451,0.0
452,-1.3627918591513175
453,0.0
490,0.0
515,0.0
516,0.0
542,0.0
592,1210180.8823238644
632,1058576.2975416314
686,0.25
687,0.25
688,0.5
2,21, 1,21, 0, 7,50.00,60.00,Monday
250,14.145398390727914
251,2825833.050332757
336,0.0
385,13.67
386,29.67
387,-0.737717530897688
388,0.0
425,0.0
450,0.0
451,0.0
452,-1.4562961845609759
453,0.0
490,0.0
515,0.0
516,0.0
542,0.0
592,1361064.1751966858
632,1602630.513210496
686,0.2891164159358068
687,0.25
688,0.75
2,21, 1,21, 0, 8, 0.00,10.00,Monday
250,13.392296645226377
251,2593838.0218659095
336,0.0
385,13.07
386,29.670000000000005
387,-0.7296519294775956
388,0.0
425,0.0
450,0.0
451,0.0
452,-1.5034485096329586
453,0.0
490,0.0
515,0.0
516,0.0
542,0.0
592,1320805.612630234
632,1393155.1816698145
686,0.29295456504903106
687,0.2
688,0.6000000000000001
2,21, 1,21, 0, 8,10.00,20.00,Monday
250,14.110455562323576
251,0.0
336,0.0
385,13.070000000000002
386,29.670000000000005
387,-0.6914115742201866
388,0.0
425,0.0
450,0.0
451,0.0
452,-1.5013721544942409
453,0.0
490,0.0
515,0.0
516,0.0
542,0.0
592,0.0
632,0.0
686,0.0
687,0.0
688,0.0
2,21, 1,21, 0, 8,20.00,30.00,Monday
250,13.188316570000598
251,170724.1691199219
336,0.0
385,12.669999999999995
386,29.66999999999999
387,-0.6402906290476647
388,0.0
425,0.0
450,0.0
451,0.0
452,-1.4015113939520072
453,0.0
490,0.0
515,0.0
516,0.0
542,0.0
592,152678.97969456954
632,0.0
686,0.0409782861839796
687,0.0
688,0.3333333333333332
2,21, 1,21, 0, 8,30.00,40.00,Monday
250,14.436148964408574
251,1855381.4531186
336,0.0
385,13.669999999999995
386,29.66999999999999
387,-0.5727470581362031
388,0.0
425,0.0
450,0.0
451,0.0
452,-1.2246117000022205
453,0.0
490,0.0
515,0.0
516,0.0
542,0.0
592,1238215.9116931641
632,730725.0890266132
686,0.24999999999999964
687,0.24999999999999964
688,0.4999999999999993
2,21, 1,21, 0, 8,40.00,50.00,Monday
250,13.472113221649547
251,0.0
336,0.0
385,12.67
386,29.67
387,-0.4832500233138974
388,0.0
425,0.0
450,0.0
451,0.0
452,-0.9660196126335937
453,0.0
490,0.0
515,0.0
516,0.0
542,0.0
592,0.0
632,0.0
686,0.0
687,0.0
688,0.0
2,21, 1,21, 0, 8,50.00,60.00,Monday
250,13.36881442366986
251,2493157.4559541163
336,0.0
385,13.336666666666677
386,29.670000000000023
387,-0.38047178618728417
388,0.0
425,0.0
450,0.0
451,0.0
452,-0.6353423444451535
453,0.0
490,0.0
515,0.0
516,0.0
542,0.0
592,1759547.9120116152
632,948367.0016849691
686,0.3577001628424503
687,0.3333333333333336
688,1.0000000000000009
2,21, 1,21, 0, 9, 0.00,10.00,Monday
250,14.435031554549852
251,1487862.3475866076
336,0.0
385,13.470000000000002
386,29.670000000000005
387,-0.26086077599988844
388,0.0
425,0.0
450,0.0
451,0.0
452,-0.23549130080026343
453,0.0
490,0.0
515,0.0
516,0.0
542,0.0
592,1005872.6307218897
632,558148.5038487515
686,0.2
687,0.2
688,0.4
2,21, 1,21, 0, 9,10.00,20.00,Monday
250,13.851580696507856
251,0.0
336,0.0
385,12.67
386,29.67
387,-0.11627172903743765
388,0.0
425,0.0
450,0.0
451,0.0
452,0.2576803355230023
453,0.0
490,0.0
515,0.0
516,0.0
542,0.0
592,0.0
632,0.0
686,0.0
687,0.0
688,0.0
2,21, 1,21, 0, 9,20.00,30.00,Monday
250,13.266129653390669
251,0.0
336,0.0
385,12.669999999999995
386,29.66999999999999
387,0.03556310598317557
388,0.0
425,0.0
450,0.0
451,0.0
452,0.7964066426797622
453,0.0
490,0.0
515,0.0
516,0.0
542,0.0
592,0.0
632,0.0
686,0.0
687,0.0
688,0.0
2,21, 1,21, 0, 9,30.00,40.00,Monday
250,12.73551031282077
251,33445.97364458743
336,0.0
385,12.670000000000005
386,29.670000000000012
387,0.24582550381203389
388,0.0
425,0.0
450,0.0
451,0.0
452,1.5195187071106215
453,0.0
490,0.0
515,0.0
516,0.0
542,0.0
592,31313.554184310884
632,0.0
686,0.008027623124497176
687,0.0
688,0.3333333333333336
2,21, 1,21, 0, 9,40.00,50.00,Monday
250,15.060120159422596
251,1955010.6441293287
336,0.0
385,13.336666666666648
386,29.66999999999996
387,0.3867357623812292
388,0.0
425,0.0
450,0.0
451,0.0
452,2.0254746078190164
453,0.0
490,0.0
515,0.0
516,0.0
542,0.0
592,856942.4215584542
632,1215291.226396327
686,0.16666666666666644
687,0.16666666666666644
688,0.33333333333333287
2,21, 1,21, 0, 9,50.00,60.00,Monday
250,14.597201231486636
251,0.0
336,0.0
385,12.67
386,29.67
387,0.5437406884708059
388,0.0
425,0.0
450,0.0
451,0.0
452,2.590691936511379
453,0.0
490,0.0
515,0.0
516,0.0
542,0.0
592,0.0
632,0.0
686,0.0
687,0.0
688,0.0
2,21, 1,21, 0,10, 0.00,10.00,Monday
250,13.955968534355291
251,0.0
336,0.0
385,12.67
386,29.67
387,0.7361791750577247
388,0.0
425,0.0
450,0.0
451,0.0
452,3.1617173320236867
453,0.0
490,0.0
515,0.0
516,0.0
542,0.0
592,0.0
632,0.0
686,0.0
687,0.0
688,0.0
2,21, 1,21, 0,10,10.00,20.00,Monday
250,13.578659179687323
251,0.0
336,0.0
385,12.669999999999998
386,29.67
387,0.9636166363129444
388,0.0
425,0.0
450,0.0
451,0.0
452,3.7689030760931965
453,0.0
490,0.0
515,0.0
516,0.0
542,0.0
592,0.0
632,0.0
686,0.0
687,0.0
688,0.0
2,21, 1,21, 0,10,20.00,30.00,Monday
250,13.277155600778464
251,0.0
336,0.0
385,12.669999999999995
386,29.66999999999999
387,1.2974212048446911
388,0.0
425,0.0
450,0.0
451,0.0
452,4.581310752390035
453,0.0
490,0.0
515,0.0
516,0.0
542,0.0
592,0.0
632,0.0
686,0.0
687,0.0
688,0.0
2,21, 1,21, 0,10,30.00,40.00,Monday
250,13.2247523544633
251,0.0
336,0.0
385,12.670000000000005
386,29.670000000000012
387,1.602121049706943
388,0.0
425,0.0
450,0.0
451,0.0
452,5.315202987017313
453,0.0
490,0.0
515,0.0
516,0.0
542,0.0
592,0.0
632,0.0
686,0.0
687,0.0
688,0.0
2,21, 1,21, 0,10,40.00,50.00,Monday
250,13.299063370952336
251,0.0
336,0.0
385,12.670000000000009
386,29.670000000000023
387,1.8995635927983447
388,0.0
425,0.0
450,0.0
451,0.0
452,6.077295352145707
453,0.0
490,0.0
515,0.0
516,0.0
542,0.0
592,0.0
632,0.0
686,0.0
687,0.0
688,0.0
2,21, 1,21, 0,10,50.00,60.00,Monday
250,13.437150634628862
251,0.0
336,0.0
385,12.670000000000009
386,29.670000000000023
387,2.202507432317492
388,0.0
425,0.0
450,0.0
451,0.0
452,6.904418295473356
453,0.0
490,0.0
515,0.0
516,0.0
542,0.0
592,0.0
632,0.0
686,0.0
687,0.0
688,0.0
2,21, 1,21, 0,11, 0.00,10.00,Monday
250,13.608792496928654
251,0.0
336,0.0
385,12.669999999999998
386,29.67
387,2.489792105336979
388,0.0
425,0.0
450,0.0
451,0.0
452,7.757891810660712
453,0.0
490,0.0
515,0.0
516,0.0
542,0.0
592,0.0
632,0.0
686,0.0
687,0.0
688,0.0
2,21, 1,21, 0,11,10.00,20.00,Monday
250,13.806931429428307
251,0.0
336,0.0
385,12.669999999999998
386,29.67
387,2.7587193643288233
388,0.0
425,0.0
450,0.0
451,0.0
452,8.607075090194657
453,0.0
490,0.0
515,0.0
516,0.0
542,0.0
592,0.0
632,0.0
686,0.0
687,0.0
688,0.0
2,21, 1,21, 0,11,20.00,30.00,Monday
250,14.037128132029828
251,0.0
336,0.0
385,12.669999999999995
386,29.66999999999999
387,3.029020954471119
388,0.0
425,0.0
450,0.0
451,0.0
452,9.45356487688469
453,0.0
490,0.0
515,0.0
516,0.0
542,0.0
592,0.0
632,0.0
686,0.0
687,0.0
688,0.0
2,21, 1,21, 0,11,30.00,40.00,Monday
250,14.277554119810748
251,0.0
336,0.0
385,12.670000000000005
386,29.670000000000012
387,3.304077550228871
388,0.0
425,0.0
450,0.0
451,0.0
452,10.27196563901201
453,0.0
490,0.0
515,0.0
516,0.0
542,0.0
592,0.0
632,0.0
686,0.0
687,0.0
688,0.0
2,21, 1,21, 0,11,40.00,50.00,Monday
250,14.501909537165133
251,0.0
336,0.0
385,12.670000000000009
386,29.670000000000023
387,3.5807366806399212
388,0.0
425,0.0
450,0.0
451,0.0
452,11.003238656008811
453,0.0
490,0.0
515,0.0
516,0.0
542,0.0
592,0.0
632,0.0
686,0.0
687,0.0
688,0.0
2,21, 1,21, 0,11,50.00,60.00,Monday
250,14.706042957205911
251,0.0
336,0.0
385,12.670000000000009
386,29.670000000000023
387,3.855243214202134
388,0.0
425,0.0
450,0.0
451,0.0
452,11.628081416299004
453,0.0
490,0.0
515,0.0
516,0.0
542,0.0
592,0.0
632,0.0
686,0.0
687,0.0
688,0.0
2,21, 1,21, 0,12, 0.00,10.00,Monday
250,14.870204087732052
251,0.0
336,0.0
385,12.67
386,29.67
387,4.092390127828694
388,0.0
425,0.0
450,0.0
451,0.0
452,12.124090975675362
453,0.0
490,0.0
515,0.0
516,0.0
542,0.0
592,0.0
632,0.0
686,0.0
687,0.0
688,0.0
2,21, 1,21, 0,12,10.00,20.00,Monday
250,15.082854418119359
251,0.0
336,0.0
385,12.67
386,29.67
387,4.3820902067033956
388,0.0
425,0.0
450,0.0
451,0.0
452,12.685292758102577
453,0.0
490,0.0
515,0.0
516,0.0
542,0.0
592,0.0
632,0.0
686,0.0
687,0.0
688,0.0
2,21, 1,21, 0,12,20.00,30.00,Monday
250,15.292445460719184
251,0.0
336,0.0
385,12.67
386,29.67
387,4.649170934573554
388,0.0
425,0.0
450,0.0
451,0.0
452,13.19761640360873
453,0.0
490,0.0
515,0.0
516,0.0
542,0.0
592,0.0
632,0.0
686,0.0
687,0.0
688,0.0
2,21, 1,21, 0,12,30.00,40.00,Monday
250,15.495803223835617
251,0.0
336,0.0
385,12.67
386,29.67
387,4.905986376876583
388,0.0
425,0.0
450,0.0
451,0.0
452,13.683472173157238
453,0.0
490,0.0
515,0.0
516,0.0
542,0.0
592,0.0
632,0.0
686,0.0
687,0.0
688,0.0
2,21, 1,21, 0,12,40.00,50.00,Monday
250,15.691848002720734
251,0.0
336,0.0
385,12.67
386,29.67
387,5.158422763038619
388,0.0
425,0.0
450,0.0
451,0.0
452,14.120899117581757
453,0.0
490,0.0
515,0.0
516,0.0
542,0.0
592,0.0
632,0.0
686,0.0
687,0.0
688,0.0
2,21, 1,21, 0,12,50.00,60.00,Monday
250,15.885685291422577
251,0.0
336,0.0
385,12.67
386,29.67
387,5.40548288407182
388,0.0
425,0.0
450,0.0
451,0.0
452,14.486242524668551
453,0.0
490,0.0
515,0.0
516,0.0
542,0.0
592,0.0
632,0.0
686,0.0
687,0.0
688,0.0
2,21, 1,21, 0,13, 0.00,10.00,Monday
250,16.038108482112893
251,0.0
336,0.0
385,12.67
386,29.67
387,5.635976095647305
388,0.0
425,0.0
450,0.0
451,0.0
452,14.774067098948697
453,0.0
490,0.0
515,0.0
516,0.0
542,0.0
592,0.0
632,0.0
686,0.0
687,0.0
688,0.0
2,21, 1,21, 0,13,10.00,20.00,Monday
250,16.183513581791495
251,0.0
336,0.0
385,12.67
386,29.67
387,5.852665576716431
388,0.0
425,0.0
450,0.0
451,0.0
452,14.999574686034807
453,0.0
490,0.0
515,0.0
516,0.0
542,0.0
592,0.0
632,0.0
686,0.0
687,0.0
688,0.0
2,21, 1,21, 0,13,20.00,30.00,Monday
250,16.344164169714
251,0.0
336,0.0
385,12.67
386,29.67
387,6.055501932380433
388,0.0
425,0.0
450,0.0
451,0.0
452,15.179691753380245
453,0.0
490,0.0
515,0.0
516,0.0
542,0.0
592,0.0
632,0.0
686,0.0
687,0.0
688,0.0
2,21, 1,21, 0,13,30.00,40.00,Monday
250,16.522002765988628
251,0.0
336,0.0
385,12.67
386,29.67
387,6.248538952219352
388,0.0
425,0.0
450,0.0
451,0.0
452,15.326590525829436
453,0.0
490,0.0
515,0.0
516,0.0
542,0.0
592,0.0
632,0.0
686,0.0
687,0.0
688,0.0
2,21, 1,21, 0,13,40.00,50.00,Monday
250,16.709838736018387
251,0.0
336,0.0
385,12.67
386,29.67
387,6.435502005038649
388,0.0
425,0.0
450,0.0
451,0.0
452,15.443020582449972
453,0.0
490,0.0
515,0.0
516,0.0
542,0.0
592,0.0
632,0.0
686,0.0
687,0.0
688,0.0
2,21, 1,21, 0,13,50.00,60.00,Monday
250,16.90092956256269
251,0.0
336,0.0
385,12.67
386,29.67
387,6.617707151395172
388,0.0
425,0.0
450,0.0
451,0.0
452,15.533361640960846
453,0.0
490,0.0
515,0.0
516,0.0
542,0.0
592,0.0
632,0.0
686,0.0
687,0.0
688,0.0
2,21, 1,21, 0,14, 0.00,10.00,Monday
250,17.12337995772088
251,0.0
336,0.0
385,12.67
386,29.67
387,6.7979287591141375
388,0.0
425,0.0
450,0.0
451,0.0
452,15.586870837368542
453,0.0
490,0.0
515,0.0
516,0.0
542,0.0
592,0.0
632,0.0
686,0.0
687,0.0
688,0.0
2,21, 1,21, 0,14,10.00,20.00,Monday
250,17.34467803037862
251,0.0
336,0.0
385,12.67
386,29.67
387,6.976281381375905
388,0.0
425,0.0
450,0.0
451,0.0
452,15.585055978003496
453,0.0
490,0.0
515,0.0
516,0.0
542,0.0
592,0.0
632,0.0
686,0.0
687,0.0
688,0.0
2,21, 1,21, 0,14,20.00,30.00,Monday
250,17.546233596144695
251,0.0
336,0.0
385,12.67
386,29.67
387,7.150648914858868
388,0.0
425,0.0
450,0.0
451,0.0
452,15.526725162701496
453,0.0
490,0.0
515,0.0
516,0.0
542,0.0
592,0.0
632,0.0
686,0.0
687,0.0
688,0.0
2,21, 1,21, 0,14,30.00,40.00,Monday
250,17.717950907591757
251,0.0
336,0.0
385,12.67
386,29.67
387,7.315136153691197
388,0.0
425,0.0
450,0.0
451,0.0
452,15.40177446839372
453,0.0
490,0.0
515,0.0
516,0.0
542,0.0
592,0.0
632,0.0
686,0.0
687,0.0
688,0.0
2,21, 1,21, 0,14,40.00,50.00,Monday
250,17.857621530054466
251,0.0
336,0.0
385,12.67
386,29.67
387,7.466013048401171
388,0.0
425,0.0
450,0.0
451,0.0
452,15.190940633805935
453,0.0
490,0.0
515,0.0
516,0.0
542,0.0
592,0.0
632,0.0
686,0.0
687,0.0
688,0.0
2,21, 1,21, 0,14,50.00,60.00,Monday
250,17.968426979671644
251,0.0
336,0.0
385,12.67
386,29.67
387,7.603521649248415
388,0.0
425,0.0
450,0.0
451,0.0
452,14.897128590890599
453,0.0
490,0.0
515,0.0
516,0.0
542,0.0
592,0.0
632,0.0
686,0.0
687,0.0
688,0.0
2,21, 1,21, 0,15, 0.00,10.00,Monday
250,17.86716905361932
251,0.0
336,0.0
385,12.67
386,29.67
387,7.722726679618609
388,0.0
425,0.0
450,0.0
451,0.0
452,14.597962777556013
453,0.0
490,0.0
515,0.0
516,0.0
542,0.0
592,0.0
632,0.0
686,0.0
687,0.0
688,0.0
2,21, 1,21, 0,15,10.00,20.00,Monday
250,17.66651895878662
251,0.0
336,0.0
385,12.67
386,29.67
387,7.865954927987216
388,0.0
425,0.0
450,0.0
451,0.0
452,14.217087047416136
453,0.0
490,0.0
515,0.0
516,0.0
542,0.0
592,0.0
632,0.0
686,0.0
687,0.0
688,0.0
2,21, 1,21, 0,15,20.00,30.00,Monday
250,17.905716210838488
251,0.0
336,0.0
385,12.67
386,29.67
387,7.997991116424083
388,0.0
425,0.0
450,0.0
451,0.0
452,13.873434845173076
453,0.0
490,0.0
515,0.0
516,0.0
542,0.0
592,0.0
632,0.0
686,0.0
687,0.0
688,0.0
2,21, 1,21, 0,15,30.00,40.00,Monday
250,18.122136417383132
251,0.0
336,0.0
385,12.67
386,29.67
387,8.130320209628302
388,0.0
425,0.0
450,0.0
451,0.0
452,13.580491429478123
453,0.0
490,0.0
515,0.0
516,0.0
542,0.0
592,0.0
632,0.0
686,0.0
687,0.0
688,0.0
2,21, 1,21, 0,15,40.00,50.00,Monday
250,17.87533464749548
251,0.0
336,0.0
385,12.67
386,29.67
387,8.256340408693486
388,0.0
425,0.0
450,0.0
451,0.0
452,13.403020008473009
453,0.0
490,0.0
515,0.0
516,0.0
542,0.0
592,0.0
632,0.0
686,0.0
687,0.0
688,0.0
2,21, 1,21, 0,15,50.00,60.00,Monday
250,17.87536830069662
251,0.0
336,0.0
385,12.67
386,29.67
387,8.403821131469059
388,0.0
425,0.0
450,0.0
451,0.0
452,13.299959727225993
453,0.0
490,0.0
515,0.0
516,0.0
542,0.0
592,0.0
632,0.0
686,0.0
687,0.0
688,0.0
2,21, 1,21, 0,16, 0.00,10.00,Monday
250,18.064144767188964
251,0.0
336,0.0
385,12.67
386,29.67
387,8.510485666585181
388,0.0
425,0.0
450,0.0
451,0.0
452,13.227355258540655
453,0.0
490,0.0
515,0.0
516,0.0
542,0.0
592,0.0
632,0.0
686,0.0
687,0.0
688,0.0
2,21, 1,21, 0,16,10.00,20.00,Monday
250,17.779220323589815
251,0.0
336,0.0
385,12.67
386,29.67
387,8.557458954306451
388,0.0
425,0.0
450,0.0
451,0.0
452,13.145198781637507
453,0.0
490,0.0
515,0.0
516,0.0
542,0.0
592,0.0
632,0.0
686,0.0
687,0.0
688,0.0
2,21, 1,21, 0,16,20.00,30.00,Monday
250,17.829205036731572
251,0.0
336,0.0
385,12.67
386,29.67
387,8.56839194711721
388,0.0
425,0.0
450,0.0
451,0.0
452,13.028687523258492
453,0.0
490,0.0
515,0.0
516,0.0
542,0.0
592,0.0
632,0.0
686,0.0
687,0.0
688,0.0
2,21, 1,21, 0,16,30.00,40.00,Monday
250,18.094207567519522
251,0.0
336,0.0
385,12.67
386,29.67
387,8.566386979940601
388,0.0
425,0.0
450,0.0
451,0.0
452,12.868021580476466
453,0.0
490,0.0
515,0.0
516,0.0
542,0.0
592,0.0
632,0.0
686,0.0
687,0.0
688,0.0
2,21, 1,21, 0,16,40.00,50.00,Monday
250,17.87120764199502
251,0.0
336,0.0
385,12.67