Program Version,EnergyPlus, Version 24.1.0-9d7789a3ac, YMD=2024.06.10 10:06
1,5,Environment Title[],Latitude[deg],Longitude[deg],Time Zone[],Elevation[m]
2,8,Day of Simulation[],Month[],Day of Month[],DST Indicator[1=yes 0=no],Hour[],StartMinute[],EndMinute[],DayType
3,5,Cumulative Day of Simulation[],Month[],Day of Month[],DST Indicator[1=yes 0=no],DayType  ! When Daily Report Variables Requested
4,2,Cumulative Days of Simulation[],Month[]  ! When Monthly Report Variables Requested
5,1,Cumulative Days of Simulation[] ! When Run Period Report Variables Requested
6,1,Calendar Year of Simulation[] ! When Annual Report Variables Requested
250,1,LIVING ZONE,Zone Air Temperature [C] !TimeStep,REPORTSCH
251,1,LIVING ZONE,Zone Air System Sensible Heating Energy [J] !TimeStep,REPORTSCH
336,1,LIVING ZONE,Zone Air System Sensible Cooling Energy [J] !TimeStep,REPORTSCH
385,1,LIVING ZONE,Zone Thermostat Heating Setpoint Temperature [C] !TimeStep,REPORTSCH
386,1,LIVING ZONE,Zone Thermostat Cooling Setpoint Temperature [C] !TimeStep,REPORTSCH
387,1,GARAGE ZONE,Zone Air Temperature [C] !TimeStep,REPORTSCH
388,1,GARAGE ZONE,Zone Air System Sensible Heating Energy [J] !TimeStep,REPORTSCH
425,1,GARAGE ZONE,Zone Air System Sensible Cooling Energy [J] !TimeStep,REPORTSCH
450,1,GARAGE ZONE,Zone Thermostat Heating Setpoint Temperature [C] !TimeStep,REPORTSCH
451,1,GARAGE ZONE,Zone Thermostat Cooling Setpoint Temperature [C] !TimeStep,REPORTSCH
452,1,ATTIC ZONE,Zone Air Temperature [C] !TimeStep,REPORTSCH
453,1,ATTIC ZONE,Zone Air System Sensible Heating Energy [J] !TimeStep,REPORTSCH
490,1,ATTIC ZONE,Zone Air System Sensible Cooling Energy [J] !TimeStep,REPORTSCH
515,1,ATTIC ZONE,Zone Thermostat Heating Setpoint Temperature [C] !TimeStep,REPORTSCH
516,1,ATTIC ZONE,Zone Thermostat Cooling Setpoint Temperature [C] !TimeStep,REPORTSCH
542,1,ACDXCOIL 1,Cooling Coil Total Cooling Energy [J] !TimeStep,REPORTSCH
592,1,HEAT PUMP DX HEATING COIL 1,Heating Coil Heating Energy [J] !TimeStep,REPORTSCH
632,1,SUPP HEATING COIL 1,Heating Coil Heating Energy [J] !TimeStep,REPORTSCH
686,1,TWOSPEED HEAT PUMP 1,Unitary System DX Coil Cycling Ratio [] !TimeStep,REPORTSCH
687,1,TWOSPEED HEAT PUMP 1,Unitary System DX Coil Speed Ratio [] !TimeStep,REPORTSCH
688,1,TWOSPEED HEAT PUMP 1,Unitary System DX Coil Speed Level [] !TimeStep
End of Data Dictionary
1,CHICAGO_IL_USA ANNUAL HEATING 99% DESIGN CONDITIONS DB,  41.98, -87.92,  -6.00, 201.00
2,1, 1,21, 0, 1, 0.00,10.00,WinterDesignDay
250,16.501188781888963
251,4184897.020318064
336,0.0
385,16.390459833695406
386,27.678275806125345
387,-17.70478297975578
388,0.0
425,0.0
450,0.0
451,0.0
452,-18.40878293816948
453,0.0
490,0.0
515,0.0
516,0.0
542,0.0
592,0.0
632,4137559.0482017538
686,0.6666666666666666
687,0.6666666666666666
688,1.3333333333333333
2,1, 1,21, 0, 1,10.00,20.00,WinterDesignDay
250,16.08759155418521
251,4103794.8325778134
336,0.0
385,15.857126500362074
386,27.678275806125345
387,-17.704783749781782
388,0.0
425,0.0
450,0.0
451,0.0
452,-18.408833262723565
453,0.0
490,0.0
515,0.0
516,0.0
542,0.0
592,0.0
632,4106239.6854889225
686,0.6000000000000001
687,0.6000000000000001
688,1.2000000000000002
2,1, 1,21, 0, 1,20.00,30.00,WinterDesignDay
250,16.34480942657018
251,5705555.428631327
336,0.0
385,16.390459833695402
386,27.678275806125335
387,-17.70476124178273
388,0.0
425,0.0
450,0.0
451,0.0
452,-18.408805164592735
453,0.0
490,0.0
515,0.0
516,0.0
542,0.0
592,0.0
632,5614493.548358336
686,0.9999999999999996
687,0.9999999999999996
688,1.9999999999999991
2,1, 1,21, 0, 1,30.00,40.00,WinterDesignDay
250,16.501188778991796
251,4184897.0430843206
336,0.0
385,16.390459833695413
386,27.678275806125356
387,-17.704786463867237
388,0.0
425,0.0
450,0.0
451,0.0
452,-18.40878332233877
453,0.0
490,0.0
515,0.0
516,0.0
542,0.0
592,0.0
632,4137559.0709924223
686,0.6666666666666667
687,0.6666666666666667
688,1.3333333333333335
2,1, 1,21, 0, 1,40.00,50.00,WinterDesignDay
250,16.087591551297663
251,4103794.857769907
336,0.0
385,15.857126500362074
386,27.678275806125345
387,-17.704787194536678
388,0.0
425,0.0
450,0.0
451,0.0
452,-18.408833642415015
453,0.0
490,0.0
515,0.0
516,0.0
542,0.0
592,0.0
632,4106239.7115555536
686,0.6000000000000001
687,0.6000000000000001
688,1.2000000000000002
2,1, 1,21, 0, 1,50.00,60.00,WinterDesignDay
250,16.34480942644344
251,5705555.4621464
336,0.0
385,16.39045983369542
386,27.678275806125363
387,-17.70476464517198
388,0.0
425,0.0
450,0.0
451,0.0
452,-18.408805539675313
453,0.0
490,0.0
515,0.0
516,0.0
542,0.0
592,0.0
632,5614493.582391397
686,1.0000000000000009
687,1.0000000000000009
688,2.0000000000000018
2,1, 1,21, 0, 2, 0.00,10.00,WinterDesignDay
250,16.50118877620855
251,4184897.0649552685
336,0.0
385,16.390459833695406
386,27.678275806125345
387,-17.70478981101954
388,0.0
425,0.0
450,0.0
451,0.0
452,-18.408783691400757
453,0.0
490,0.0
515,0.0
516,0.0
542,0.0
592,0.0
632,4137559.092886825
686,0.6666666666666666
687,0.6666666666666666
688,1.3333333333333333
2,1, 1,21, 0, 2,10.00,20.00,WinterDesignDay
250,16.08759154852367
251,4103794.881971299
336,0.0
385,15.857126500362074
386,27.678275806125345
387,-17.704790503879742
388,0.0
425,0.0
450,0.0
451,0.0
452,-18.408834007175304
453,0.0
490,0.0
515,0.0
516,0.0
542,0.0
592,0.0
632,4106239.7365970886
686,0.6000000000000001
687,0.6000000000000001
688,1.2000000000000002
2,1, 1,21, 0, 2,20.00,30.00,WinterDesignDay
250,16.344809426321646
251,5705555.4943435015
336,0.0
385,16.390459833695402
386,27.678275806125335
387,-17.704767914775413
388,0.0
425,0.0
450,0.0
451,0.0
452,-18.408805900007987
453,0.0
490,0.0
515,0.0
516,0.0
542,0.0
592,0.0
632,5614493.61508612
686,0.9999999999999996
687,0.9999999999999996
688,1.9999999999999991
2,1, 1,21, 0, 2,30.00,40.00,WinterDesignDay
250,16.501188773534775
251,4184897.085966128
336,0.0
385,16.390459833695413
386,27.678275806125356
387,-17.704793026597045
388,0.0
425,0.0
450,0.0
451,0.0
452,-18.408784045949734
453,0.0
490,0.0
515,0.0
516,0.0
542,0.0
592,0.0
632,4137559.1139202155
686,0.6666666666666667
687,0.6666666666666667
688,1.3333333333333335
2,1, 1,21, 0, 2,40.00,50.00,WinterDesignDay
250,16.087591545858764
251,4103794.9052209924
336,0.0
385,15.857126500362074
386,27.678275806125345
387,-17.704793683134422
388,0.0
425,0.0
450,0.0
451,0.0
452,-18.4088343575918
453,0.0
490,0.0
515,0.0
516,0.0
542,0.0
592,0.0
632,4106239.760653889
686,0.6000000000000001
687,0.6000000000000001
688,1.2000000000000002
2,1, 1,21, 0, 2,50.00,60.00,WinterDesignDay
250,16.344809426204677
251,5705555.525274415
336,0.0
385,16.39045983369542
386,27.678275806125363
387,-17.704771055852895
388,0.0
425,0.0
450,0.0
451,0.0
452,-18.408806246171093
453,0.0
490,0.0
515,0.0
516,0.0
542,0.0
592,0.0
632,5614493.646495082
686,1.0000000000000009
687,1.0000000000000009
688,2.0000000000000018
2,1, 1,21, 0, 3, 0.00,10.00,WinterDesignDay
250,16.50118877096613
251,4184897.106150752
336,0.0
385,16.390459833695406
386,27.678275806125345
387,-17.70479611577202
388,0.0
425,0.0
450,0.0
451,0.0
452,-18.408784386556583
453,0.0
490,0.0
515,0.0
516,0.0
542,0.0
592,0.0
632,4137559.1341264844
686,0.6666666666666666
687,0.6666666666666666
688,1.3333333333333333
2,1, 1,21, 0, 3,10.00,20.00,WinterDesignDay
250,16.087591543298664
251,4103794.9275563313
336,0.0
385,15.857126500362074
386,27.678275806125345
387,-17.704796737413606
388,0.0
425,0.0
450,0.0
451,0.0
452,-18.408834694228727
453,0.0
490,0.0
515,0.0
516,0.0
542,0.0
592,0.0
632,4106239.783764594
686,0.6000000000000001
687,0.6000000000000001
688,1.2000000000000002
2,1, 1,21, 0, 3,20.00,30.00,WinterDesignDay
250,16.344809426092272
251,5705555.554989037
336,0.0
385,16.390459833695402
386,27.678275806125335
387,-17.704774073454804
388,0.0
425,0.0
450,0.0
451,0.0
452,-18.40880657872189
453,0.0
490,0.0
515,0.0
516,0.0
542,0.0
592,0.0
632,5614493.676668958
686,0.9999999999999996
687,0.9999999999999996
688,1.9999999999999991
2,1, 1,21, 0, 3,30.00,40.00,WinterDesignDay
250,16.50118876849851
251,4184897.1255416237
336,0.0
385,16.390459833695413
386,27.678275806125356
387,-17.704799083511407
388,0.0
425,0.0
450,0.0
451,0.0
452,-18.408784713769727
453,0.0
490,0.0
515,0.0
516,0.0
542,0.0
592,0.0
632,4137559.15353815
686,0.6666666666666667
687,0.6666666666666667
688,1.3333333333333335
2,1, 1,21, 0, 3,40.00,50.00,WinterDesignDay
250,16.087591540839224
251,4103794.949013417
336,0.0
385,15.857126500362074
386,27.678275806125345
387,-17.704799671629523
388,0.0
425,0.0
450,0.0
451,0.0
452,-18.408835017628085
453,0.0
490,0.0
515,0.0
516,0.0
542,0.0
592,0.0
632,4106239.8059665556
686,0.6000000000000001
687,0.6000000000000001
688,1.2000000000000002
2,1, 1,21, 0, 3,50.00,60.00,WinterDesignDay
250,16.344809425984323
251,5705555.583535202
336,0.0
385,16.39045983369542
386,27.678275806125363
387,-17.704776972435713
388,0.0
425,0.0
450,0.0
451,0.0
452,-18.40880689819589
453,0.0
490,0.0
515,0.0
516,0.0
542,0.0
592,0.0
632,5614493.705656312
686,1.0000000000000009
687,1.0000000000000009
688,2.0000000000000018
2,1, 1,21, 0, 4, 0.00,10.00,WinterDesignDay
250,16.50118876612791
251,4184897.1441699965
336,0.0
385,16.390459833695406
386,27.678275806125345
387,-17.704801934589945
388,0.0
425,0.0
450,0.0
451,0.0
452,-18.408785028115954
453,0.0
490,0.0
515,0.0
516,0.0
542,0.0
592,0.0
632,4137559.1721864995
686,0.6666666666666666
687,0.6666666666666666
688,1.3333333333333333
2,1, 1,21, 0, 4,10.00,20.00,WinterDesignDay
250,16.087591538476513
251,4103794.9696267005
336,0.0
385,15.857126500362074
386,27.678275806125345
387,-17.704802490501805
388,0.0
425,0.0
450,0.0
451,0.0
452,-18.408835328310552
453,0.0
490,0.0
515,0.0
516,0.0
542,0.0
592,0.0
632,4106239.827295424
686,0.6000000000000001
687,0.6000000000000001
688,1.2000000000000002
2,1, 1,21, 0, 4,20.00,30.00,WinterDesignDay
250,16.344809425880584
251,5705555.610958685
336,0.0
385,16.390459833695402
386,27.678275806125335
387,-17.70477975745747
388,0.0
425,0.0
450,0.0
451,0.0
452,-18.40880720510734
453,0.0
490,0.0
515,0.0
516,0.0
542,0.0
592,0.0
632,5614493.73350364
686,0.9999999999999996
687,0.9999999999999996
688,1.9999999999999991
2,1, 1,21, 0, 4,30.00,40.00,WinterDesignDay
250,16.50118876385055
251,4184897.162065774
336,0.0
385,16.390459833695413
386,27.678275806125356
387,-17.704804673591887
388,0.0
425,0.0
450,0.0
451,0.0
452,-18.408785330101377
453,0.0
490,0.0
515,0.0
516,0.0
542,0.0
592,0.0
632,4137559.1901014675
686,0.6666666666666667
687,0.6666666666666667
688,1.3333333333333335
2,1, 1,21, 0, 4,40.00,50.00,WinterDesignDay
250,16.087591536206702
251,4103794.989429388
336,0.0
385,15.857126500362074
386,27.678275806125345
387,-17.704805198563818
388,0.0
425,0.0
450,0.0
451,0.0
452,-18.4088356267763
453,0.0
490,0.0
515,0.0
516,0.0
542,0.0
592,0.0
632,4106239.8477855558
686,0.6000000000000001
687,0.6000000000000001
688,1.2000000000000002
2,1, 1,21, 0, 4,50.00,60.00,WinterDesignDay
250,16.344809425780966
251,5705555.63730387
336,0.0
385,16.39045983369542
386,27.678275806125363
387,-17.704782432999906
388,0.0
425,0.0
450,0.0
451,0.0
452,-18.408807499950452
453,0.0
490,0.0
515,0.0
516,0.0
542,0.0
592,0.0
632,5614493.760255998
686,1.0000000000000009
687,1.0000000000000009
688,2.0000000000000018
2,1, 1,21, 0, 5, 0.00,10.00,WinterDesignDay
250,16.501188761662725
251,4184897.17925788
336,0.0
385,16.390459833695406
386,27.678275806125345
387,-17.704807304923737
388,0.0
425,0.0
450,0.0
451,0.0
452,-18.40878562021215
453,0.0
490,0.0
515,0.0
516,0.0
542,0.0
592,0.0
632,4137559.2073120084
686,0.6666666666666666
687,0.6666666666666666
688,1.3333333333333333
2,1, 1,21, 0, 5,10.00,20.00,WinterDesignDay
250,16.087591534026156
251,4103795.0084533426
336,0.0
385,15.857126500362074
386,27.678275806125345
387,-17.704807800171757
388,0.0
425,0.0
450,0.0
451,0.0
452,-18.408835913505836
453,0.0
490,0.0
515,0.0
516,0.0
542,0.0
592,0.0
632,4106239.8674699217
686,0.6000000000000001
687,0.6000000000000001
688,1.2000000000000002
2,1, 1,21, 0, 5,20.00,30.00,WinterDesignDay
250,16.34480942568522
251,5705555.662612991
336,0.0
385,16.390459833695402
386,27.678275806125335
387,-17.704785003366506
388,0.0
425,0.0
450,0.0
451,0.0
452,-18.408807783199787
453,0.0
490,0.0
515,0.0
516,0.0
542,0.0
592,0.0
632,5614493.785956283
686,0.9999999999999996
687,0.9999999999999996
688,1.9999999999999991
2,1, 1,21, 0, 5,30.00,40.00,WinterDesignDay
250,16.501188759560943
251,4184897.195773961
336,0.0
385,16.390459833695413
386,27.678275806125356
387,-17.704809832817666
388,0.0
425,0.0
450,0.0
451,0.0
452,-18.408785898915323
453,0.0
490,0.0
515,0.0
516,0.0
542,0.0
592,0.0
632,4137559.2238458013
686,0.6666666666666667
687,0.6666666666666667
688,1.3333333333333335
2,1, 1,21, 0, 5,40.00,50.00,WinterDesignDay
250,16.087591531931356
251,4103795.026729235
336,0.0
385,15.857126500362074
386,27.678275806125345
387,-17.70481029951023
388,0.0
425,0.0
450,0.0
451,0.0
452,-18.408836188960763
453,0.0
490,0.0
515,0.0
516,0.0
542,0.0
592,0.0
632,4106239.8863802557
686,0.6000000000000001
687,0.6000000000000001
688,1.2000000000000002
2,1, 1,21, 0, 5,50.00,60.00,WinterDesignDay
250,16.34480942559328
251,5705555.686927035
336,0.0
385,16.39045983369542
386,27.678275806125363
387,-17.704787472691873
388,0.0
425,0.0
450,0.0
451,0.0
452,-18.408808055311436
453,0.0
490,0.0
515,0.0
516,0.0
542,0.0
592,0.0
632,5614493.8106461065
686,1.0000000000000009
687,1.0000000000000009
688,2.0000000000000018
2,1, 1,21, 0, 6, 0.00,10.00,WinterDesignDay
250,16.501188757541804
251,4184897.21164052
336,0.0
385,16.390459833695406
386,27.678275806125345
387,-17.70481226134003
388,0.0
425,0.0
450,0.0
451,0.0
452,-18.40878616665957
453,0.0
490,0.0
515,0.0
516,0.0
542,0.0
592,0.0
632,4137559.2397293737
686,0.6666666666666666
687,0.6666666666666666
688,1.3333333333333333
2,1, 1,21, 0, 6,10.00,20.00,WinterDesignDay
250,16.08759152991892
251,4103795.0442865393
336,0.0
385,15.857126500362074
386,27.678275806125345
387,-17.704812700599415
388,0.0
425,0.0
450,0.0
451,0.0
452,-18.40883645358453
453,0.0
490,0.0
515,0.0
516,0.0
542,0.0
592,0.0
632,4106239.9045470576
686,0.6000000000000001
687,0.6000000000000001
688,1.2000000000000002
2,1, 1,21, 0, 6,20.00,30.00,WinterDesignDay
250,16.34480942550492
251,5705555.710284865
336,0.0
385,16.390459833695402
386,27.678275806125335
387,-17.704789844947264
388,0.0
425,0.0
450,0.0
451,0.0
452,-18.40880831672338
453,0.0
490,0.0
515,0.0
516,0.0
542,0.0
592,0.0
632,5614493.83436494
686,0.9999999999999996
687,0.9999999999999996
688,1.9999999999999991
2,1, 1,21, 0, 6,30.00,40.00,WinterDesignDay
250,16.501188755602058
251,4184897.226883269
336,0.0
385,16.390459833695413
386,27.678275806125356
387,-17.70481459439591
388,0.0
425,0.0
450,0.0
451,0.0
452,-18.408786423875913
453,0.0
490,0.0
515,0.0
516,0.0
542,0.0
592,0.0
632,4137559.2549884683
686,0.6666666666666667
687,0.6666666666666667
688,1.3333333333333335
2,1, 1,21, 0, 6,40.00,50.00,WinterDesignDay
250,16.08759152798562
251,4103795.061153408
336,0.0
385,15.857126500362074
386,27.678275806125345
387,-17.704815007300645
388,0.0
425,0.0
450,0.0
451,0.0
452,-18.4088367078031
453,0.0
490,0.0
515,0.0
516,0.0
542,0.0
592,0.0
632,4106239.9219994554
686,0.6000000000000001
687,0.6000000000000001
688,1.2000000000000002
2,1, 1,21, 0, 6,50.00,60.00,WinterDesignDay
250,16.344809425420067
251,5705555.73272432
336,0.0
385,16.39045983369542
386,27.678275806125363
387,-17.70479212394842
388,0.0
425,0.0
450,0.0
451,0.0
452,-18.408808567856482
453,0.0
490,0.0
515,0.0
516,0.0
542,0.0
592,0.0
632,5614493.857151209
686,1.0000000000000009
687,1.0000000000000009
688,2.0000000000000018
2,1, 1,21, 0, 7, 0.00,10.00,WinterDesignDay
250,16.501188753738596
251,4184897.2415265506
336,0.0
385,16.390459833695406
386,27.678275806125345
387,-17.70481683573882
388,0.0
425,0.0
450,0.0
451,0.0
452,-18.40878667097837
453,0.0
490,0.0
515,0.0
516,0.0
542,0.0
592,0.0
632,4137559.269647454
686,0.6666666666666666
687,0.6666666666666666
688,1.3333333333333333
2,1, 1,21, 0, 7,10.00,20.00,WinterDesignDay
250,16.087591526128342
251,4103795.0773570505
336,0.0
385,15.857126500362074
386,27.678275806125345
387,-17.704817223324923
388,0.0
425,0.0
450,0.0
451,0.0
452,-18.40883695202571
453,0.0
490,0.0
515,0.0
516,0.0
542,0.0
592,0.0
632,4106239.9387656003
686,0.6000000000000001
687,0.6000000000000001
688,1.2000000000000002
2,1, 1,21, 0, 7,20.00,30.00,WinterDesignDay
250,16.344809425338518
251,5705555.75428141
336,0.0
385,16.390459833695402
386,27.678275806125335
387,-17.704794313361365
388,0.0
425,0.0
450,0.0
451,0.0
452,-18.408808809114937
453,0.0
490,0.0
515,0.0
516,0.0
542,0.0
592,0.0
632,5614493.8790414715
686,0.9999999999999996
687,0.9999999999999996
688,1.9999999999999991
2,1, 1,21, 0, 7,30.00,40.00,WinterDesignDay
250,16.5011887519484
251,4184897.255594109
336,0.0
385,16.390459833695413
386,27.678275806125356
387,-17.704818988973507
388,0.0
425,0.0
450,0.0
451,0.0
452,-18.408786908364746
453,0.0
490,0.0
515,0.0
516,0.0
542,0.0
592,0.0
632,4137559.283730098
686,0.6666666666666667
687,0.6666666666666667
688,1.3333333333333335
2,1, 1,21, 0, 7,40.00,50.00,WinterDesignDay
250,16.087591524344084
251,4103795.092923602
336,0.0
385,15.857126500362074
386,27.678275806125345
387,-17.704819352235987
388,0.0
425,0.0
450,0.0
451,0.0
452,-18.40883718664547
453,0.0
490,0.0
515,0.0
516,0.0
542,0.0
592,0.0
632,4106239.954872542
686,0.6000000000000001
687,0.6000000000000001
688,1.2000000000000002
2,1, 1,21, 0, 7,50.00,60.00,WinterDesignDay
250,16.344809425260213
251,5705555.774990905
336,0.0
385,16.39045983369542
386,27.678275806125363
387,-17.704796416707165
388,0.0
425,0.0
450,0.0
451,0.0
452,-18.408809040887157
453,0.0
490,0.0
515,0.0
516,0.0
542,0.0
592,0.0
632,5614493.900071037
686,1.0000000000000009
687,1.0000000000000009
688,2.0000000000000018
2,1, 1,21, 0, 8, 0.00,10.00,WinterDesignDay
250,16.501188750228593
251,4184897.2691085017
336,0.0
385,16.390459833695406
386,27.678275806125345
387,-17.70482105756335
388,0.0
425,0.0
450,0.0
451,0.0
452,-18.40878713641711
453,0.0
490,0.0
515,0.0
516,0.0
542,0.0
592,0.0
632,4137559.2972589815
686,0.6666666666666666
687,0.6666666666666666
688,1.3333333333333333
2,1, 1,21, 0, 8,10.00,20.00,WinterDesignDay
250,16.08759152263
251,4103795.10787796
336,0.0
385,15.857126500362074
386,27.678275806125345
387,-17.704821397458662
388,0.0
425,0.0
450,0.0
451,0.0
452,-18.408837412040032
453,0.0
490,0.0
515,0.0
516,0.0
542,0.0
592,0.0
632,4106239.970346034
686,0.6000000000000001
687,0.6000000000000001
688,1.2000000000000002
2,1, 1,21, 0, 8,20.00,30.00,WinterDesignDay
250,16.344809425184945
251,5705555.794885984
336,0.0
385,16.390459833695402
386,27.678275806125335
387,-17.70479843736964
388,0.0
425,0.0
450,0.0
451,0.0
452,-18.40880926354613
453,0.0
490,0.0
515,0.0
516,0.0
542,0.0
592,0.0
632,5614493.920273603
686,0.9999999999999996
687,0.9999999999999996
688,1.9999999999999991
2,1, 1,21, 0, 8,30.00,40.00,WinterDesignDay
250,16.50118874857642
251,4184897.282091514
336,0.0
385,16.390459833695413
386,27.678275806125356
387,-17.70482304483616
388,0.0
425,0.0
450,0.0
451,0.0
452,-18.40878735550258
453,0.0
490,0.0
515,0.0
516,0.0
542,0.0
592,0.0
632,4137559.310255916
686,0.6666666666666667
687,0.6666666666666667
688,1.3333333333333335
2,1, 1,21, 0, 8,40.00,50.00,WinterDesignDay
250,16.087591520983302
251,4103795.122244431
336,0.0
385,15.857126500362074
386,27.678275806125345
387,-17.704823362282724
388,0.0
425,0.0
450,0.0
451,0.0
452,-18.408837628572225
453,0.0
490,0.0
515,0.0
516,0.0
542,0.0
592,0.0
632,4106239.985211233
686,0.6000000000000001
687,0.6000000000000001
688,1.2000000000000002
2,1, 1,21, 0, 8,50.00,60.00,WinterDesignDay
250,16.344809425112675
251,5705555.813998859
336,0.0
385,16.39045983369542
386,27.678275806125363
387,-17.704800378598648
388,0.0
425,0.0
450,0.0
451,0.0
452,-18.408809477450347
453,0.0
490,0.0
515,0.0
516,0.0
542,0.0
592,0.0
632,5614493.939681876
686,1.0000000000000009
687,1.0000000000000009
688,2.0000000000000018
2,1, 1,21, 0, 9, 0.00,10.00,WinterDesignDay
250,16.501188746989193
251,4184897.2945640516
336,0.0
385,16.390459833695406
386,27.678275806125345
387,-17.704824953987575
388,0.0
425,0.0
450,0.0
451,0.0
452,-18.408787565973775
453,0.0
490,0.0
515,0.0
516,0.0
542,0.0
592,0.0
632,4137559.322741828
686,0.6666666666666666
687,0.6666666666666666
688,1.3333333333333333
2,1, 1,21, 0, 9,10.00,20.00,WinterDesignDay
250,16.087591519401357
251,4103795.1360459356
336,0.0
385,15.857126500362074
386,27.678275806125345
387,-17.704825249867742
388,0.0
425,0.0
450,0.0
451,0.0
452,-18.40883783659056
453,0.0
490,0.0
515,0.0
516,0.0
542,0.0
592,0.0
632,4106239.9994918527
686,0.6000000000000001
687,0.6000000000000001
688,1.2000000000000002
2,1, 1,21, 0, 9,20.00,30.00,WinterDesignDay
250,16.344809425043213
251,5705555.832360112
336,0.0
385,16.390459833695402
386,27.678275806125335
387,-17.704802243516482
388,0.0
425,0.0
450,0.0
451,0.0
452,-18.408809682944028
453,0.0
490,0.0
515,0.0
516,0.0
542,0.0
592,0.0
632,5614493.958326911
686,0.9999999999999996
687,0.9999999999999996
688,1.9999999999999991
2,1, 1,21, 0, 9,30.00,40.00,WinterDesignDay
250,16.501188745464404
251,4184897.3065460944
336,0.0
385,16.390459833695413
386,27.678275806125356
387,-17.704826788089257
388,0.0
425,0.0
450,0.0
451,0.0
452,-18.408787768169475
453,0.0
490,0.0
515,0.0
516,0.0
542,0.0
592,0.0
632,4137559.3347367197
686,0.6666666666666667
687,0.6666666666666667
688,1.3333333333333335
2,1, 1,21, 0, 9,40.00,50.00,WinterDesignDay
250,16.087591517881616
251,4103795.1493047564
336,0.0
385,15.857126500362074
386,27.678275806125345
387,-17.70482706325044
388,0.0
425,0.0
450,0.0
451,0.0
452,-18.40883803642984
453,0.0
490,0.0
515,0.0
516,0.0
542,0.0
592,0.0
632,4106240.01321095
686,0.6000000000000001
687,0.6000000000000001
688,1.2000000000000002
2,1, 1,21, 0, 9,50.00,60.00,WinterDesignDay
250,16.344809424976518
251,5705555.8499994995
336,0.0
385,16.39045983369542
386,27.678275806125363
387,-17.7048040351226
388,0.0
425,0.0
450,0.0
451,0.0
452,-18.40880988035796
453,0.0
490,0.0
515,0.0
516,0.0
542,0.0
592,0.0
632,5614493.976238918
686,1.0000000000000009
687,1.0000000000000009
688,2.0000000000000018
2,1, 1,21, 0,10, 0.00,10.00,WinterDesignDay
250,16.501188743999542
251,4184897.318057079
336,0.0
385,16.390459833695406
386,27.678275806125345
387,-17.70482855009047
388,0.0
425,0.0
450,0.0
451,0.0
452,-18.40878796241507
453,0.0
490,0.0
515,0.0
516,0.0
542,0.0
592,0.0
632,4137559.3462600484
686,0.6666666666666666
687,0.6666666666666666
688,1.3333333333333333
2,1, 1,21, 0,10,10.00,20.00,WinterDesignDay
250,16.087591516421632
251,4103795.162042264
336,0.0
385,15.857126500362074
386,27.678275806125345
387,-17.704828805347802
388,0.0
425,0.0
450,0.0
451,0.0
452,-18.408838228411703
453,0.0
490,0.0
515,0.0
516,0.0
542,0.0
592,0.0
632,4106240.026390635
686,0.6000000000000001
687,0.6000000000000001
688,1.2000000000000002
2,1, 1,21, 0,10,20.00,30.00,WinterDesignDay
250,16.344809424912405
251,5705555.866945323
336,0.0
385,16.390459833695402
386,27.678275806125335
387,-17.70480575629965
388,0.0
425,0.0
450,0.0
451,0.0
452,-18.408810070009817
453,0.0
490,0.0
515,0.0
516,0.0
542,0.0
592,0.0
632,5614493.993446646
686,0.9999999999999996
687,0.9999999999999996
688,1.9999999999999991
2,1, 1,21, 0,10,30.00,40.00,WinterDesignDay
250,16.501188742592298
251,4184897.3291154345
336,0.0
385,16.390459833695413
386,27.678275806125356
387,-17.704830242826304
388,0.0
425,0.0
450,0.0
451,0.0
452,-18.408788149023238
453,0.0
490,0.0
515,0.0
516,0.0
542,0.0
592,0.0
632,4137559.3573302613
686,0.6666666666666667
687,0.6666666666666667
688,1.3333333333333335
2,1, 1,21, 0,10,40.00,50.00,WinterDesignDay
250,16.08759151501905
251,4103795.174278969
336,0.0
385,15.857126500362074
386,27.678275806125345
387,-17.70483047896206
388,0.0
425,0.0
450,0.0
451,0.0
452,-18.40883841284515
453,0.0
490,0.0
515,0.0
516,0.0
542,0.0
592,0.0
632,4106240.039052133
686,0.6000000000000001
687,0.6000000000000001
688,1.2000000000000002
2,1, 1,21, 0,10,50.00,60.00,WinterDesignDay
250,16.34480942485085
251,5705555.88322484
336,0.0
385,16.39045983369542
386,27.678275806125363
387,-17.70480740981596
388,0.0
425,0.0
450,0.0
451,0.0
452,-18.408810252204937
453,0.0
490,0.0
515,0.0
516,0.0
542,0.0
592,0.0
632,5614494.009977769
686,1.0000000000000009
687,1.0000000000000009
688,2.0000000000000018
2,1, 1,21, 0,11, 0.00,10.00,WinterDesignDay
250,16.501188741240366
251,4184897.339738993
336,0.0
385,16.390459833695406
386,27.678275806125345
387,-17.704831869019152
388,0.0
425,0.0
450,0.0
451,0.0
452,-18.408788328294303
453,0.0
490,0.0
515,0.0
516,0.0
542,0.0
592,0.0
632,4137559.3679652126
686,0.6666666666666666
687,0.6666666666666666
688,1.3333333333333333
2,1, 1,21, 0,11,10.00,20.00,WinterDesignDay
250,16.087591513671615
251,4103795.1860345597
336,0.0
385,15.857126500362074
386,27.678275806125345
387,-17.704832086784773
388,0.0
425,0.0
450,0.0
451,0.0
452,-18.408838590027024
453,0.0
490,0.0
515,0.0
516,0.0
542,0.0
592,0.0
632,4106240.0512158163
686,0.6000000000000001
687,0.6000000000000001
688,1.2000000000000002
2,1, 1,21, 0,11,20.00,30.00,WinterDesignDay
250,16.344809424791684
251,5705555.898864314
336,0.0
385,16.390459833695402
386,27.678275806125335
387,-17.7048089983308
388,0.0
425,0.0
450,0.0
451,0.0
452,-18.40881042723646
453,0.0
490,0.0
515,0.0
516,0.0
542,0.0
592,0.0
632,5614494.025858955
686,0.9999999999999996
687,0.9999999999999996
688,1.9999999999999991
2,1, 1,21, 0,11,30.00,40.00,WinterDesignDay
250,16.501188739941597
251,4184897.3499449138
336,0.0
385,16.390459833695413
386,27.678275806125356
387,-17.70483343128511
388,0.0
425,0.0
450,0.0
451,0.0
452,-18.40878850051681
453,0.0
490,0.0
515,0.0
516,0.0
542,0.0
592,0.0
632,4137559.378182078
686,0.6666666666666667
687,0.6666666666666667
688,1.3333333333333335
2,1, 1,21, 0,11,40.00,50.00,WinterDesignDay
250,16.087591512377156
251,4103795.1973279123
336,0.0
385,15.857126500362074
386,27.678275806125345
387,-17.704833631402803
388,0.0
425,0.0
450,0.0
451,0.0
452,-18.40883876024248
453,0.0
490,0.0
515,0.0
516,0.0
542,0.0
592,0.0
632,4106240.062901214
686,0.6000000000000001
687,0.6000000000000001
688,1.2000000000000002
2,1, 1,21, 0,11,50.00,60.00,WinterDesignDay
250,16.344809424734876
251,5705555.913888796
336,0.0
385,16.39045983369542
386,27.678275806125363
387,-17.704810524400095
388,0.0
425,0.0
450,0.0
451,0.0
452,-18.408810595386164
453,0.0
490,0.0
515,0.0
516,0.0
542,0.0
592,0.0
632,5614494.041115647
686,1.0000000000000009
687,1.0000000000000009
688,2.0000000000000018
2,1, 1,21, 0,12, 0.00,10.00,WinterDesignDay
250,16.501188738693887
251,4184897.3597494923
336,0.0
385,16.390459833695406
386,27.678275806125345
387,-17.70483493213709
388,0.0
425,0.0
450,0.0
451,0.0
452,-18.40878866596792
453,0.0
490,0.0
515,0.0
516,0.0
542,0.0
592,0.0
632,4137559.387997171
686,0.6666666666666666
687,0.6666666666666666
688,1.3333333333333333
2,1, 1,21, 0,12,10.00,20.00,WinterDesignDay
250,16.087591511133596
251,4103795.208177207
336,0.0
385,15.857126500362074
386,27.678275806125345
387,-17.704835115300412
388,0.0
425,0.0
450,0.0
451,0.0
452,-18.40883892376548
453,0.0
490,0.0
515,0.0
516,0.0
542,0.0
592,0.0
632,4106240.07412714
686,0.6000000000000001
687,0.6000000000000001
688,1.2000000000000002
2,1, 1,21, 0,12,20.00,30.00,WinterDesignDay
250,16.344809424680268
251,5705555.928322598
336,0.0
385,16.390459833695402
386,27.678275806125335
387,-17.70481199047773
388,0.0
425,0.0
450,0.0
451,0.0
452,-18.4088107569246
453,0.0
490,0.0
515,0.0
516,0.0
542,0.0
592,0.0
632,5614494.055772528
686,0.9999999999999996
687,0.9999999999999996
688,1.9999999999999991
2,1, 1,21, 0,12,30.00,40.00,WinterDesignDay
250,16.50118873749525
251,4184897.369168577
336,0.0
385,16.390459833695413
386,27.678275806125356
387,-17.704836373988748
388,0.0
425,0.0
450,0.0
451,0.0
452,-18.408788824913906
453,0.0
490,0.0
515,0.0
516,0.0
542,0.0
592,0.0
632,4137559.3974263556
686,0.6666666666666667
687,0.6666666666666667
688,1.3333333333333335
2,1, 1,21, 0,12,40.00,50.00,WinterDesignDay
250,16.08759150993893
251,4103795.218599951
336,0.0
385,15.857126500362074
386,27.678275806125345
387,-17.704836540864115
388,0.0
425,0.0
450,0.0
451,0.0
452,-18.40883908085916
453,0.0
490,0.0
515,0.0
516,0.0
542,0.0
592,0.0
632,4106240.0849117055
686,0.6000000000000001
687,0.6000000000000001
688,1.2000000000000002
2,1, 1,21, 0,12,50.00,60.00,WinterDesignDay
250,16.344809424627844
251,5705555.942188835
336,0.0
385,16.39045983369542
386,27.678275806125363
387,-17.704813398922056
388,0.0
425,0.0
450,0.0
451,0.0
452,-18.40881091211179
453,0.0
490,0.0
515,0.0
516,0.0
542,0.0
592,0.0
632,5614494.069853076
686,1.0000000000000009
687,1.0000000000000009
688,2.0000000000000018
2,1, 1,21, 0,13, 0.00,10.00,WinterDesignDay
250,16.501188736343735
251,4184897.3782173004
336,0.0
385,16.390459833695406
386,27.678275806125345
387,-17.704837759159517
388,0.0
425,0.0
450,0.0
451,0.0
452,-18.40878897761054
453,0.0
490,0.0
515,0.0
516,0.0
542,0.0
592,0.0
632,4137559.4064847827
686,0.6666666666666666
687,0.6666666666666666
688,1.3333333333333333
2,1, 1,21, 0,13,10.00,20.00,WinterDesignDay
250,16.087591508791238
251,4103795.2286129138
336,0.0
385,15.857126500362074
386,27.678275806125345
387,-17.704837910387702
388,0.0
425,0.0
450,0.0
451,0.0
452,-18.408839231776337
453,0.0
490,0.0
515,0.0
516,0.0
542,0.0
592,0.0
632,4106240.0952722626
686,0.6000000000000001
687,0.6000000000000001
688,1.2000000000000002
2,1, 1,21, 0,13,20.00,30.00,WinterDesignDay
250,16.34480942457744
251,5705555.955509951
336,0.0
385,16.390459833695402
386,27.678275806125335
387,-17.70481475199945
388,0.0
425,0.0
450,0.0
451,0.0
452,-18.408811061197426
453,0.0
490,0.0
515,0.0
516,0.0
542,0.0
592,0.0
632,5614494.083380071
686,0.9999999999999996
687,0.9999999999999996
688,1.9999999999999991
2,1, 1,21, 0,13,30.00,40.00,WinterDesignDay
250,16.501188735237488
251,4184897.3869103026
336,0.0
385,16.390459833695413
386,27.678275806125356
387,-17.704839089878003
388,0.0
425,0.0
450,0.0
451,0.0
452,-18.408789124303603
453,0.0
490,0.0
515,0.0
516,0.0
542,0.0
592,0.0
632,4137559.4151871074
686,0.6666666666666667
687,0.6666666666666667
688,1.3333333333333335
2,1, 1,21, 0,13,40.00,50.00,WinterDesignDay
250,16.087591507688664
251,4103795.2382321744
336,0.0