Program Version,EnergyPlus, Version 24.1.0-9d7789a3ac, YMD=2024.06.19 21:16
1,5,Environment Title[],Latitude[deg],Longitude[deg],Time Zone[],Elevation[m]
2,8,Day of Simulation[],Month[],Day of Month[],DST Indicator[1=yes 0=no],Hour[],StartMinute[],EndMinute[],DayType
3,5,Cumulative Day of Simulation[],Month[],Day of Month[],DST Indicator[1=yes 0=no],DayType  ! When Daily Report Variables Requested
4,2,Cumulative Days of Simulation[],Month[]  ! When Monthly Report Variables Requested
5,1,Cumulative Days of Simulation[] ! When Run Period Report Variables Requested
6,1,Calendar Year of Simulation[] ! When Annual Report Variables Requested
250,1,LIVING ZONE,Zone Air Temperature [C] !TimeStep,REPORTSCH
251,1,LIVING ZONE,Zone Air System Sensible Heating Energy [J] !TimeStep,REPORTSCH
336,1,LIVING ZONE,Zone Air System Sensible Cooling Energy [J] !TimeStep,REPORTSCH
385,1,LIVING ZONE,Zone Thermostat Heating Setpoint Temperature [C] !TimeStep,REPORTSCH
386,1,LIVING ZONE,Zone Thermostat Cooling Setpoint Temperature [C] !TimeStep,REPORTSCH
387,1,GARAGE ZONE,Zone Air Temperature [C] !TimeStep,REPORTSCH
388,1,GARAGE ZONE,Zone Air System Sensible Heating Energy [J] !TimeStep,REPORTSCH
425,1,GARAGE ZONE,Zone Air System Sensible Cooling Energy [J] !TimeStep,REPORTSCH
450,1,GARAGE ZONE,Zone Thermostat Heating Setpoint Temperature [C] !TimeStep,REPORTSCH
451,1,GARAGE ZONE,Zone Thermostat Cooling Setpoint Temperature [C] !TimeStep,REPORTSCH
452,1,ATTIC ZONE,Zone Air Temperature [C] !TimeStep,REPORTSCH
453,1,ATTIC ZONE,Zone Air System Sensible Heating Energy [J] !TimeStep,REPORTSCH
490,1,ATTIC ZONE,Zone Air System Sensible Cooling Energy [J] !TimeStep,REPORTSCH
515,1,ATTIC ZONE,Zone Thermostat Heating Setpoint Temperature [C] !TimeStep,REPORTSCH
516,1,ATTIC ZONE,Zone Thermostat Cooling Setpoint Temperature [C] !TimeStep,REPORTSCH
542,1,ACDXCOIL 1,Cooling Coil Total Cooling Energy [J] !TimeStep,REPORTSCH
592,1,HEAT PUMP DX HEATING COIL 1,Heating Coil Heating Energy [J] !TimeStep,REPORTSCH
632,1,SUPP HEATING COIL 1,Heating Coil Heating Energy [J] !TimeStep,REPORTSCH
686,1,TWOSPEED HEAT PUMP 1,Unitary System DX Coil Cycling Ratio [] !TimeStep,REPORTSCH
687,1,TWOSPEED HEAT PUMP 1,Unitary System DX Coil Speed Ratio [] !TimeStep,REPORTSCH
688,1,TWOSPEED HEAT PUMP 1,Unitary System DX Coil Speed Level [] !TimeStep
End of Data Dictionary
1,CHICAGO_IL_USA ANNUAL HEATING 99% DESIGN CONDITIONS DB,  41.98, -87.92,  -6.00, 201.00
2,1, 1,21, 0, 1, 0.00,10.00,WinterDesignDay
250,21.827097827477367
251,15574968.420191683
336,0.0
385,22.202710593163737
386,27.930439951709324
387,-17.55239868787765
388,0.0
425,0.0
450,0.0
451,0.0
452,-18.221979754968658
453,0.0
490,0.0
515,0.0
516,0.0
542,0.0
592,0.0
632,15209154.44085375
686,1.0
687,1.0
688,2.0
2,1, 1,21, 0, 1,10.00,20.00,WinterDesignDay
250,22.235903785653473
251,14818116.711970849
336,0.0
385,22.202710593163733
386,27.930439951709324
387,-17.55239382348792
388,0.0
425,0.0
450,0.0
451,0.0
452,-18.222098897773158
453,0.0
490,0.0
515,0.0
516,0.0
542,0.0
592,0.0
632,14431312.71839826
686,1.0
687,1.0
688,2.0
2,1, 1,21, 0, 1,20.00,30.00,WinterDesignDay
250,22.482783169480765
251,15786527.705279564
336,0.0
385,22.8693772598304
386,27.930439951709324
387,-17.55228336759381
388,0.0
425,0.0
450,0.0
451,0.0
452,-18.222024181725335
453,0.0
490,0.0
515,0.0
516,0.0
542,0.0
592,0.0
632,16262923.362183394
686,1.0
687,1.0
688,2.0
2,1, 1,21, 0, 1,30.00,40.00,WinterDesignDay
250,22.834814299190292
251,16905198.50712231
336,0.0
385,22.8693772598304
386,27.930439951709324
387,-17.552291226705464
388,0.0
425,0.0
450,0.0
451,0.0
452,-18.22188115580714
453,0.0
490,0.0
515,0.0
516,0.0
542,0.0
592,0.0
632,16747459.343707053
686,1.0
687,1.0
688,2.0
2,1, 1,21, 0, 1,40.00,50.00,WinterDesignDay
250,21.82709782559275
251,15574968.452788988
336,0.0
385,22.2027105931637
386,27.930439951709285
387,-17.552403522092174
388,0.0
425,0.0
450,0.0
451,0.0
452,-18.2219802376206
453,0.0
490,0.0
515,0.0
516,0.0
542,0.0
592,0.0
632,15209154.472961497
686,0.9999999999999986
687,0.9999999999999986
688,1.9999999999999971
2,1, 1,21, 0, 1,50.00,60.00,WinterDesignDay
250,22.235903785558317
251,14818116.751946937
336,0.0
385,22.20271059316375
386,27.930439951709346
387,-17.552398597333433
388,0.0
425,0.0
450,0.0
451,0.0
452,-18.22209937422959
453,0.0
490,0.0
515,0.0
516,0.0
542,0.0
592,0.0
632,14431312.758697586
686,1.0000000000000009
687,1.0000000000000009
688,2.0000000000000018
2,1, 1,21, 0, 2, 0.00,10.00,WinterDesignDay
250,22.48278316971902
251,15786527.74508182
336,0.0
385,22.8693772598304
386,27.930439951709324
387,-17.552288068935674
388,0.0
425,0.0
450,0.0
451,0.0
452,-18.222024650962574
453,0.0
490,0.0
515,0.0
516,0.0
542,0.0
592,0.0
632,16262923.402154114
686,1.0
687,1.0
688,2.0
2,1, 1,21, 0, 2,10.00,20.00,WinterDesignDay
250,22.834814299226828
251,16905198.54733416
336,0.0
385,22.8693772598304
386,27.930439951709324
387,-17.552295864772013
388,0.0
425,0.0
450,0.0
451,0.0
452,-18.22188161887756
453,0.0
490,0.0
515,0.0
516,0.0
542,0.0
592,0.0
632,16747459.383858494
686,1.0
687,1.0
688,2.0
2,1, 1,21, 0, 2,20.00,30.00,WinterDesignDay
250,21.827097823805644
251,15574968.483701084
336,0.0
385,22.20271059316375
386,27.93043995170935
387,-17.552408106415903
388,0.0
425,0.0
450,0.0
451,0.0
452,-18.22198069532703
453,0.0
490,0.0
515,0.0
516,0.0
542,0.0
592,0.0
632,15209154.503409345
686,1.0000000000000007
687,1.0000000000000007
688,2.0000000000000013
2,1, 1,21, 0, 2,30.00,40.00,WinterDesignDay
250,22.23590378546806
251,14818116.78985646
336,0.0
385,22.20271059316375
386,27.930439951709346
387,-17.55240312440859
388,0.0
425,0.0
450,0.0
451,0.0
452,-18.222099826060578
453,0.0
490,0.0
515,0.0
516,0.0
542,0.0
592,0.0
632,14431312.796913633
686,1.0000000000000009
687,1.0000000000000009
688,2.0000000000000018
2,1, 1,21, 0, 2,40.00,50.00,WinterDesignDay
250,22.482783169944955
251,15786527.782826511
336,0.0
385,22.8693772598304
386,27.930439951709324
387,-17.552292527255126
388,0.0
425,0.0
450,0.0
451,0.0
452,-18.22202509594743
453,0.0
490,0.0
515,0.0
516,0.0
542,0.0
592,0.0
632,16262923.44005856
686,1.0
687,1.0
688,2.0
2,1, 1,21, 0, 2,50.00,60.00,WinterDesignDay
250,22.83481429926148
251,16905198.58546721
336,0.0
385,22.8693772598304
386,27.930439951709324
387,-17.552300263086593
388,0.0
425,0.0
450,0.0
451,0.0
452,-18.22188205801426
453,0.0
490,0.0
515,0.0
516,0.0
542,0.0
592,0.0
632,16747459.421934262
686,1.0
687,1.0
688,2.0
2,1, 1,21, 0, 3, 0.00,10.00,WinterDesignDay
250,21.827097822110854
251,15574968.513015248
336,0.0
385,22.202710593163737
386,27.930439951709324
387,-17.552412453766006
388,0.0
425,0.0
450,0.0
451,0.0
452,-18.221981129376857
453,0.0
490,0.0
515,0.0
516,0.0
542,0.0
592,0.0
632,15209154.53228326
686,1.0
687,1.0
688,2.0
2,1, 1,21, 0, 3,10.00,20.00,WinterDesignDay
250,22.235903785382455
251,14818116.825806193
336,0.0
385,22.202710593163733
386,27.930439951709324
387,-17.55240741746881
388,0.0
425,0.0
450,0.0
451,0.0
452,-18.222100254538624
453,0.0
490,0.0
515,0.0
516,0.0
542,0.0
592,0.0
632,14431312.833154043
686,1.0
687,1.0
688,2.0
2,1, 1,21, 0, 3,20.00,30.00,WinterDesignDay
250,22.482783170159212
251,15786527.818619994
336,0.0
385,22.8693772598304
386,27.930439951709324
387,-17.552296755112923
388,0.0
425,0.0
450,0.0
451,0.0
452,-18.222025517933144
453,0.0
490,0.0
515,0.0
516,0.0
542,0.0
592,0.0
632,16262923.476003537
686,1.0
687,1.0
688,2.0
2,1, 1,21, 0, 3,30.00,40.00,WinterDesignDay
250,22.83481429929433
251,16905198.621629015
336,0.0
385,22.8693772598304
386,27.930439951709324
387,-17.552304434041098
388,0.0
425,0.0
450,0.0
451,0.0
452,-18.221882474454006
453,0.0
490,0.0
515,0.0
516,0.0
542,0.0
592,0.0
632,16747459.458041744
686,1.0
687,1.0
688,2.0
2,1, 1,21, 0, 3,40.00,50.00,WinterDesignDay
250,21.82709782050366
251,15574968.540814009
336,0.0
385,22.2027105931637
386,27.930439951709285
387,-17.552416576390044
388,0.0
425,0.0
450,0.0
451,0.0
452,-18.221981540992576
453,0.0
490,0.0
515,0.0
516,0.0
542,0.0
592,0.0
632,15209154.559664529
686,0.9999999999999986
687,0.9999999999999986
688,1.9999999999999971
2,1, 1,21, 0, 3,50.00,60.00,WinterDesignDay
250,22.235903785301307
251,14818116.859897574
336,0.0
385,22.20271059316375
386,27.930439951709346
387,-17.552411488609636
388,0.0
425,0.0
450,0.0
451,0.0
452,-18.22210066087052
453,0.0
490,0.0
515,0.0
516,0.0
542,0.0
592,0.0
632,14431312.867521081
686,1.0000000000000009
687,1.0000000000000009
688,2.0000000000000018
2,1, 1,21, 0, 4, 0.00,10.00,WinterDesignDay
250,22.482783170362396
251,15786527.852563115
336,0.0
385,22.8693772598304
386,27.930439951709324
387,-17.552300764422053
388,0.0
425,0.0
450,0.0
451,0.0
452,-18.22202591810817
453,0.0
490,0.0
515,0.0
516,0.0
542,0.0
592,0.0
632,16262923.510090329
686,1.0
687,1.0
688,2.0
2,1, 1,21, 0, 4,10.00,20.00,WinterDesignDay
250,22.83481429932549
251,16905198.655921437
336,0.0
385,22.8693772598304
386,27.930439951709324
387,-17.5523083893882
388,0.0
425,0.0
450,0.0
451,0.0
452,-18.22188286936965
453,0.0
490,0.0
515,0.0
516,0.0
542,0.0
592,0.0
632,16747459.492282651
686,1.0
687,1.0
688,2.0
2,1, 1,21, 0, 4,20.00,30.00,WinterDesignDay
250,21.827097818979627
251,15574968.567175735
336,0.0
385,22.20271059316375
386,27.93043995170935
387,-17.55242048590474
388,0.0
425,0.0
450,0.0
451,0.0
452,-18.22198193133353
453,0.0
490,0.0
515,0.0
516,0.0
542,0.0
592,0.0
632,15209154.585630346
686,1.0000000000000007
687,1.0000000000000007
688,2.0000000000000013
2,1, 1,21, 0, 4,30.00,40.00,WinterDesignDay
250,22.235903785224338
251,14818116.892226567
336,0.0
385,22.20271059316375
386,27.930439951709346
387,-17.552415349302038
388,0.0
425,0.0
450,0.0
451,0.0
452,-18.222101046200624
453,0.0
490,0.0
515,0.0
516,0.0
542,0.0
592,0.0
632,14431312.900111476
686,1.0000000000000009
687,1.0000000000000009
688,2.0000000000000018
2,1, 1,21, 0, 4,40.00,50.00,WinterDesignDay
250,22.482783170555074
251,15786527.884751523
336,0.0
385,22.8693772598304
386,27.930439951709324
387,-17.552304566478675
388,0.0
425,0.0
450,0.0
451,0.0
452,-18.2220262975996
453,0.0
490,0.0
515,0.0
516,0.0
542,0.0
592,0.0
632,16262923.542414976
686,1.0
687,1.0
688,2.0
2,1, 1,21, 0, 4,50.00,60.00,WinterDesignDay
250,22.83481429935503
251,16905198.688441053
336,0.0
385,22.8693772598304
386,27.930439951709324
387,-17.552312140272047
388,0.0
425,0.0
450,0.0
451,0.0
452,-18.221883243873485
453,0.0
490,0.0
515,0.0
516,0.0
542,0.0
592,0.0
632,16747459.524753416
686,1.0
687,1.0
688,2.0
2,1, 1,21, 0, 5, 0.00,10.00,WinterDesignDay
250,21.82709781753432
251,15574968.59217464
336,0.0
385,22.202710593163737
386,27.930439951709324
387,-17.55242419332552
388,0.0
425,0.0
450,0.0
451,0.0
452,-18.22198230149903
453,0.0
490,0.0
515,0.0
516,0.0
542,0.0
592,0.0
632,15209154.610253807
686,1.0
687,1.0
688,2.0
2,1, 1,21, 0, 5,10.00,20.00,WinterDesignDay
250,22.23590378515133
251,14818116.92288429
336,0.0
385,22.202710593163733
386,27.930439951709324
387,-17.552419010424323
388,0.0
425,0.0
450,0.0
451,0.0
452,-18.22210141161428
453,0.0
490,0.0
515,0.0
516,0.0
542,0.0
592,0.0
632,14431312.931017093
686,1.0
687,1.0
688,2.0
2,1, 1,21, 0, 5,20.00,30.00,WinterDesignDay
250,22.482783170737793
251,15786527.915275913
336,0.0
385,22.8693772598304
386,27.930439951709324
387,-17.552308171996156
388,0.0
425,0.0
450,0.0
451,0.0
452,-18.222026657476324
453,0.0
490,0.0
515,0.0
516,0.0
542,0.0
592,0.0
632,16262923.573068568
686,1.0
687,1.0
688,2.0
2,1, 1,21, 0, 5,30.00,40.00,WinterDesignDay
250,22.834814299383055
251,16905198.719279576
336,0.0
385,22.8693772598304
386,27.930439951709324
387,-17.55231569726206
388,0.0
425,0.0
450,0.0
451,0.0
452,-18.22188359902035
453,0.0
490,0.0
515,0.0
516,0.0
542,0.0
592,0.0
632,16747459.555545615
686,1.0
687,1.0
688,2.0
2,1, 1,21, 0, 5,40.00,50.00,WinterDesignDay
250,21.82709781616371
251,15574968.615881214
336,0.0
385,22.2027105931637
386,27.930439951709285
387,-17.552427709099153
388,0.0
425,0.0
450,0.0
451,0.0
452,-18.22198265253175
453,0.0
490,0.0
515,0.0
516,0.0
542,0.0
592,0.0
632,15209154.633604351
686,0.9999999999999986
687,0.9999999999999986
688,1.9999999999999971
2,1, 1,21, 0, 5,50.00,60.00,WinterDesignDay
250,22.23590378508213
251,14818116.951957174
336,0.0
385,22.20271059316375
386,27.930439951709346
387,-17.552422482292364
388,0.0
425,0.0
450,0.0
451,0.0
452,-18.222101758140763
453,0.0
490,0.0
515,0.0
516,0.0
542,0.0
592,0.0
632,14431312.96032505
686,1.0000000000000009
687,1.0000000000000009
688,2.0000000000000018
2,1, 1,21, 0, 6, 0.00,10.00,WinterDesignDay
250,22.482783170911066
251,15786527.944222428
336,0.0
385,22.8693772598304
386,27.930439951709324
387,-17.552311591133567
388,0.0
425,0.0
450,0.0
451,0.0
452,-18.222026998751986
453,0.0
490,0.0
515,0.0
516,0.0
542,0.0
592,0.0
632,16262923.602137597
686,1.0
687,1.0
688,2.0
2,1, 1,21, 0, 6,10.00,20.00,WinterDesignDay
250,22.834814299409622
251,16905198.74852389
336,0.0
385,22.8693772598304
386,27.930439951709324
387,-17.55231907038013
388,0.0
425,0.0
450,0.0
451,0.0
452,-18.22188393581059
453,0.0
490,0.0
515,0.0
516,0.0
542,0.0
592,0.0
632,16747459.584745996
686,1.0
687,1.0
688,2.0
2,1, 1,21, 0, 6,20.00,30.00,WinterDesignDay
250,21.827097814864036
251,15574968.638362255
336,0.0
385,22.20271059316375
386,27.93043995170935
387,-17.552431043130934
388,0.0
425,0.0
450,0.0
451,0.0
452,-18.22198298542052
453,0.0
490,0.0
515,0.0
516,0.0
542,0.0
592,0.0
632,15209154.655747762
686,1.0000000000000007
687,1.0000000000000007
688,2.0000000000000013
2,1, 1,21, 0, 6,30.00,40.00,WinterDesignDay
250,22.23590378501649
251,14818116.97952709
336,0.0
385,22.20271059316375
386,27.930439951709346
387,-17.55242577468818
388,0.0
425,0.0
450,0.0
451,0.0
452,-18.22210208675609
453,0.0
490,0.0
515,0.0
516,0.0
542,0.0
592,0.0
632,14431312.988117885
686,1.0000000000000009
687,1.0000000000000009
688,2.0000000000000018
2,1, 1,21, 0, 6,40.00,50.00,WinterDesignDay
250,22.482783171075383
251,15786527.971672477
336,0.0
385,22.8693772598304
386,27.930439951709324
387,-17.552314833524296
388,0.0
425,0.0
450,0.0
451,0.0
452,-18.222027322387877
453,0.0
490,0.0
515,0.0
516,0.0
542,0.0
592,0.0
632,16262923.629703835
686,1.0
687,1.0
688,2.0
2,1, 1,21, 0, 6,50.00,60.00,WinterDesignDay
250,22.83481429943482
251,16905198.776256505
336,0.0
385,22.8693772598304
386,27.930439951709324
387,-17.552322269130336
388,0.0
425,0.0
450,0.0
451,0.0
452,-18.221884255192855
453,0.0
490,0.0
515,0.0
516,0.0
542,0.0
592,0.0
632,16747459.612436945
686,1.0
687,1.0
688,2.0
2,1, 1,21, 0, 7, 0.00,10.00,WinterDesignDay
250,21.827097813631486
251,15574968.659681205
336,0.0
385,22.202710593163737
386,27.930439951709324
387,-17.55243420481544
388,0.0
425,0.0
450,0.0
451,0.0
452,-18.221983301102874
453,0.0
490,0.0
515,0.0
516,0.0
542,0.0
592,0.0
632,15209154.676746536
686,1.0
687,1.0
688,2.0
2,1, 1,21, 0, 7,10.00,20.00,WinterDesignDay
250,22.23590378495423
251,14818117.005671814
336,0.0
385,22.202710593163733
386,27.930439951709324
387,-17.55242889688902
388,0.0
425,0.0
450,0.0
451,0.0
452,-18.222102398385893
453,0.0
490,0.0
515,0.0
516,0.0
542,0.0
592,0.0
632,14431313.014474005
686,1.0
687,1.0
688,2.0
2,1, 1,21, 0, 7,20.00,30.00,WinterDesignDay
250,22.482783171231205
251,15786527.99770347
336,0.0
385,22.8693772598304
386,27.930439951709324
387,-17.552317908305252
388,0.0
425,0.0
450,0.0
451,0.0
452,-18.2220276292956
453,0.0
490,0.0
515,0.0
516,0.0
542,0.0
592,0.0
632,16262923.655845005
686,1.0
687,1.0
688,2.0
2,1, 1,21, 0, 7,30.00,40.00,WinterDesignDay
250,22.83481429945872
251,16905198.802555326
336,0.0
385,22.8693772598304
386,27.930439951709324
387,-17.552325302526764
388,0.0
425,0.0
450,0.0
451,0.0
452,-18.221884558066787
453,0.0
490,0.0
515,0.0
516,0.0
542,0.0
592,0.0
632,16747459.638696263
686,1.0
687,1.0
688,2.0
2,1, 1,21, 0, 7,40.00,50.00,WinterDesignDay
250,21.82709781246264
251,15574968.679897983
336,0.0
385,22.2027105931637
386,27.930439951709285
387,-17.552437203062254
388,0.0
425,0.0
450,0.0
451,0.0
452,-18.221983600468093
453,0.0
490,0.0
515,0.0
516,0.0
542,0.0
592,0.0
632,15209154.696659692
686,0.9999999999999986
687,0.9999999999999986
688,1.9999999999999971
2,1, 1,21, 0, 7,50.00,60.00,WinterDesignDay
250,22.23590378489522
251,14818117.030464923
336,0.0
385,22.20271059316375
386,27.930439951709346
387,-17.55243185769305
388,0.0
425,0.0
450,0.0
451,0.0
452,-18.22210269390806
453,0.0
490,0.0
515,0.0
516,0.0
542,0.0
592,0.0
632,14431313.039467588
686,1.0000000000000009
687,1.0000000000000009
688,2.0000000000000018
2,1, 1,21, 0, 8, 0.00,10.00,WinterDesignDay
250,22.48278317137897
251,15786528.022388859
336,0.0
385,22.8693772598304
386,27.930439951709324
387,-17.552320824140043
388,0.0
425,0.0
450,0.0
451,0.0
452,-18.222027920339706
453,0.0
490,0.0
515,0.0
516,0.0
542,0.0
592,0.0
632,16262923.680634875
686,1.0
687,1.0
688,2.0
2,1, 1,21, 0, 8,10.00,20.00,WinterDesignDay
250,22.834814299481376
251,16905198.827494714
336,0.0
385,22.8693772598304
386,27.930439951709324
387,-17.552328179116103
388,0.0
425,0.0
450,0.0
451,0.0
452,-18.22188484528557
453,0.0
490,0.0
515,0.0
516,0.0
542,0.0
592,0.0
632,16747459.663598187
686,1.0
687,1.0
688,2.0
2,1, 1,21, 0, 8,20.00,30.00,WinterDesignDay
250,21.82709781135429
251,15574968.699069738
336,0.0
385,22.20271059316375
386,27.93043995170935
387,-17.55244004631874
388,0.0
425,0.0
450,0.0
451,0.0
452,-18.221983884359563
453,0.0
490,0.0
515,0.0
516,0.0
542,0.0
592,0.0
632,15209154.715543525
686,1.0000000000000007
687,1.0000000000000007
688,2.0000000000000013
2,1, 1,21, 0, 8,30.00,40.00,WinterDesignDay
250,22.23590378483924
251,14818117.053976431
336,0.0
385,22.20271059316375
386,27.930439951709346
387,-17.55243466544215
388,0.0
425,0.0
450,0.0
451,0.0
452,-18.222102974155003
453,0.0
490,0.0
515,0.0
516,0.0
542,0.0
592,0.0
632,14431313.063169202
686,1.0000000000000009
687,1.0000000000000009
688,2.0000000000000018
2,1, 1,21, 0, 8,40.00,50.00,WinterDesignDay
250,22.4827831715191
251,15786528.045798082
336,0.0
385,22.8693772598304
386,27.930439951709324
387,-17.55232358924484
388,0.0
425,0.0
450,0.0
451,0.0
452,-18.22202819634004
453,0.0
490,0.0
515,0.0
516,0.0
542,0.0
592,0.0
632,16262923.704143181
686,1.0
687,1.0
688,2.0
2,1, 1,21, 0, 8,50.00,60.00,WinterDesignDay
250,22.834814299502867
251,16905198.851144828
336,0.0
385,22.8693772598304
386,27.930439951709324
387,-17.55233090700429
388,0.0
425,0.0
450,0.0
451,0.0
452,-18.22188511765828
453,0.0
490,0.0
515,0.0
516,0.0
542,0.0
592,0.0
632,16747459.68721277
686,1.0
687,1.0
688,2.0
2,1, 1,21, 0, 9, 0.00,10.00,WinterDesignDay
250,21.827097810303176
251,15574968.71725037
336,0.0
385,22.202710593163737
386,27.930439951709324
387,-17.55244274259725
388,0.0
425,0.0
450,0.0
451,0.0
452,-18.221984153576877
453,0.0
490,0.0
515,0.0
516,0.0
542,0.0
592,0.0
632,15209154.73345111
686,1.0
687,1.0
688,2.0
2,1, 1,21, 0, 9,10.00,20.00,WinterDesignDay
250,22.235903784786142
251,14818117.076272476
336,0.0
385,22.202710593163733
386,27.930439951709324
387,-17.552437328048693
388,0.0
425,0.0
450,0.0
451,0.0
452,-18.2221032399162
453,0.0
490,0.0
515,0.0
516,0.0
542,0.0
592,0.0
632,14431313.08564553
686,1.0
687,1.0
688,2.0
2,1, 1,21, 0, 9,20.00,30.00,WinterDesignDay
250,22.48278317165198
251,15786528.067997217
336,0.0
385,22.8693772598304
386,27.930439951709324
387,-17.5523262114113
388,0.0
425,0.0
450,0.0
451,0.0
452,-18.222028458074117
453,0.0
490,0.0
515,0.0
516,0.0
542,0.0
592,0.0
632,16262923.726436282
686,1.0
687,1.0
688,2.0
2,1, 1,21, 0, 9,30.00,40.00,WinterDesignDay
250,22.834814299523245
251,16905198.873572357
336,0.0
385,22.8693772598304
386,27.930439951709324
387,-17.552333493877487
388,0.0
425,0.0
450,0.0
451,0.0
452,-18.221885375952215
453,0.0
490,0.0
515,0.0
516,0.0
542,0.0
592,0.0
632,16747459.70960661
686,1.0
687,1.0
688,2.0
2,1, 1,21, 0, 9,40.00,50.00,WinterDesignDay
250,21.827097809306387
251,15574968.734491076
336,0.0
385,22.2027105931637
386,27.930439951709285
387,-17.552445299494465
388,0.0
425,0.0
450,0.0
451,0.0
452,-18.221984408878477
453,0.0
490,0.0
515,0.0
516,0.0
542,0.0
592,0.0
632,15209154.750432894
686,0.9999999999999986
687,0.9999999999999986
688,1.9999999999999971
2,1, 1,21, 0, 9,50.00,60.00,WinterDesignDay
250,22.235903784735825
251,14818117.097415833
336,0.0
385,22.20271059316375
386,27.930439951709346
387,-17.552439853014448
388,0.0
425,0.0
450,0.0
451,0.0
452,-18.222103491940338
453,0.0
490,0.0
515,0.0
516,0.0
542,0.0
592,0.0
632,14431313.106959846
686,1.0000000000000009
687,1.0000000000000009
688,2.0000000000000018
2,1, 1,21, 0,10, 0.00,10.00,WinterDesignDay
250,22.482783171777992
251,15786528.089048676
336,0.0
385,22.8693772598304
386,27.930439951709324
387,-17.552328698027235
388,0.0
425,0.0
450,0.0
451,0.0
452,-18.22202870627924
453,0.0
490,0.0
515,0.0
516,0.0
542,0.0
592,0.0
632,16262923.74757684
686,1.0
687,1.0
688,2.0
2,1, 1,21, 0,10,10.00,20.00,WinterDesignDay
250,22.834814299542565
251,16905198.894840483
336,0.0
385,22.8693772598304
386,27.930439951709324
387,-17.552335947024794
388,0.0
425,0.0
450,0.0
451,0.0
452,-18.221885620894977
453,0.0
490,0.0
515,0.0
516,0.0
542,0.0
592,0.0
632,16747459.730842788
686,1.0
687,1.0
688,2.0
2,1, 1,21, 0,10,20.00,30.00,WinterDesignDay
250,21.8270978083612
251,15574968.750840638
336,0.0
385,22.20271059316375
386,27.93043995170935
387,-17.552447724215785
388,0.0
425,0.0
450,0.0
451,0.0
452,-18.221984650983615
453,0.0
490,0.0
515,0.0
516,0.0
542,0.0
592,0.0
632,15209154.766536904
686,1.0000000000000007
687,1.0000000000000007
688,2.0000000000000013
2,1, 1,21, 0,10,30.00,40.00,WinterDesignDay
250,22.23590378468809
251,14818117.117466304
336,0.0
385,22.20271059316375
386,27.930439951709346
387,-17.552442247455065
388,0.0
425,0.0
450,0.0
451,0.0
452,-18.22210373093733
453,0.0
490,0.0
515,0.0
516,0.0
542,0.0
592,0.0
632,14431313.127172438
686,1.0000000000000009
687,1.0000000000000009
688,2.0000000000000018
2,1, 1,21, 0,10,40.00,50.00,WinterDesignDay
250,22.48278317189749
251,15786528.109011926
336,0.0
385,22.8693772598304
386,27.930439951709324
387,-17.55233105610042
388,0.0
425,0.0
450,0.0
451,0.0
452,-18.222028941654624
453,0.0
490,0.0
515,0.0
516,0.0
542,0.0
592,0.0
632,16262923.767624583
686,1.0
687,1.0
688,2.0
2,1, 1,21, 0,10,50.00,60.00,WinterDesignDay
250,22.83481429956089
251,16905198.9150092
336,0.0
385,22.8693772598304
386,27.930439951709324
387,-17.55233827335958
388,0.0
425,0.0
450,0.0
451,0.0
452,-18.22188585317663
453,0.0
490,0.0
515,0.0
516,0.0
542,0.0
592,0.0
632,16747459.750981206
686,1.0
687,1.0
688,2.0
2,1, 1,21, 0,11, 0.00,10.00,WinterDesignDay
250,21.827097807464817
251,15574968.76634494
336,0.0
385,22.202710593163737
386,27.930439951709324
387,-17.552450023593313
388,0.0
425,0.0
450,0.0
451,0.0
452,-18.221984880574265
453,0.0
490,0.0
515,0.0
516,0.0
542,0.0
592,0.0
632,15209154.781808361
686,1.0
687,1.0
688,2.0
2,1, 1,21, 0,11,10.00,20.00,WinterDesignDay
250,22.2359037846428
251,14818117.136480179
336,0.0
385,22.202710593163733
386,27.930439951709324
387,-17.552444518117092
388,0.0
425,0.0
450,0.0
451,0.0
452,-18.222103957580508
453,0.0
490,0.0
515,0.0
516,0.0
542,0.0
592,0.0
632,14431313.14634005
686,1.0
687,1.0
688,2.0
2,1, 1,21, 0,11,20.00,30.00,WinterDesignDay
250,22.482783172010816
251,15786528.127943112
336,0.0
385,22.8693772598304
386,27.930439951709324
387,-17.5523332922753
388,0.0
425,0.0
450,0.0
451,0.0
452,-18.222029164863383
453,0.0
490,0.0
515,0.0
516,0.0
542,0.0
592,0.0
632,16262923.7866359
686,1.0
687,1.0
688,2.0
2,1, 1,21, 0,11,30.00,40.00,WinterDesignDay
250,22.834814299578266
251,16905198.93413519
336,0.0
385,22.8693772598304
386,27.930439951709324
387,-17.552340479436566
388,0.0
425,0.0
450,0.0
451,0.0
452,-18.221886073451547
453,0.0
490,0.0
515,0.0
516,0.0
542,0.0
592,0.0
632,16747459.770078462
686,1.0
687,1.0
688,2.0
2,1, 1,21, 0,11,40.00,50.00,WinterDesignDay
250,21.827097806614756
251,15574968.781047665
336,0.0
385,22.2027105931637
386,27.930439951709285
387,-17.552452204106892
388,0.0
425,0.0
450,0.0
451,0.0
452,-18.22198509829724
453,0.0
490,0.0
515,0.0
516,0.0
542,0.0
592,0.0
632,15209154.796290278
686,0.9999999999999986
687,0.9999999999999986
688,1.9999999999999971
2,1, 1,21, 0,11,50.00,60.00,WinterDesignDay
250,22.23590378459989
251,14818117.154511103
336,0.0
385,22.20271059316375
386,27.930439951709346
387,-17.552446671399647
388,0.0
425,0.0
450,0.0
451,0.0
452,-18.22210417250841
453,0.0
490,0.0
515,0.0
516,0.0
542,0.0
592,0.0
632,14431313.16451677
686,1.0000000000000009
687,1.0000000000000009
688,2.0000000000000018
2,1, 1,21, 0,12, 0.00,10.00,WinterDesignDay
250,22.482783172118282
251,15786528.14589572
336,0.0
385,22.8693772598304
386,27.930439951709324
387,-17.552335412852983
388,0.0
425,0.0
450,0.0
451,0.0
452,-18.222029376534355
453,0.0
490,0.0
515,0.0
516,0.0
542,0.0
592,0.0
632,16262923.804664493
686,1.0
687,1.0
688,2.0
2,1, 1,21, 0,12,10.00,20.00,WinterDesignDay
250,22.834814299594747
251,16905198.952272534
336,0.0
385,22.8693772598304
386,27.930439951709324
387,-17.552342571472103
388,0.0
425,0.0
450,0.0
451,0.0
452,-18.221886282340314
453,0.0
490,0.0
515,0.0
516,0.0
542,0.0
592,0.0
632,16747459.788188558
686,1.0
687,1.0
688,2.0
2,1, 1,21, 0,12,20.00,30.00,WinterDesignDay
250,21.827097805808716
251,15574968.794990424
336,0.0
385,22.20271059316375
386,27.93043995170935
387,-17.552454271900675
388,0.0
425,0.0
450,0.0
451,0.0
452,-18.221985304766033
453,0.0
490,0.0
515,0.0
516,0.0
542,0.0
592,0.0
632,15209154.81002364
686,1.0000000000000007
687,1.0000000000000007
688,2.0000000000000013
2,1, 1,21, 0,12,30.00,40.00,WinterDesignDay
250,22.23590378455918
251,14818117.171609992
336,0.0
385,22.20271059316375
386,27.930439951709346
387,-17.552448713369884
388,0.0
425,0.0
450,0.0
451,0.0
452,-18.222104376326513
453,0.0
490,0.0
515,0.0
516,0.0
542,0.0
592,0.0
632,14431313.181753915
686,1.0000000000000009
687,1.0000000000000009
688,2.0000000000000018
2,1, 1,21, 0,12,40.00,50.00,WinterDesignDay
250,22.48278317222019
251,15786528.16292025
336,0.0
385,22.8693772598304
386,27.930439951709324
387,-17.552337423808996
388,0.0
425,0.0
450,0.0
451,0.0
452,-18.222029577263875
453,0.0
490,0.0
515,0.0
516,0.0
542,0.0
592,0.0
632,16262923.82176108
686,1.0
687,1.0
688,2.0
2,1, 1,21, 0,12,50.00,60.00,WinterDesignDay
250,22.834814299610372
251,16905198.96947219
336,0.0
385,22.8693772598304
386,27.930439951709324
387,-17.55234455536132
388,0.0
425,0.0
450,0.0
451,0.0
452,-18.221886480431426
453,0.0
490,0.0
515,0.0
516,0.0
542,0.0
592,0.0
632,16747459.805362374
686,1.0
687,1.0
688,2.0
2,1, 1,21, 0,13, 0.00,10.00,WinterDesignDay
250,21.82709780504428
251,15574968.808212426
336,0.0
385,22.202710593163737
386,27.930439951709324
387,-17.55245623280087
388,0.0
425,0.0
450,0.0
451,0.0
452,-18.22198550056218
453,0.0
490,0.0
515,0.0
516,0.0
542,0.0
592,0.0
632,15209154.823047068
686,1.0
687,1.0
688,2.0
2,1, 1,21, 0,13,10.00,20.00,WinterDesignDay
250,22.23590378452056
251,14818117.187824938
336,0.0
385,22.202710593163733
386,27.930439951709324
387,-17.552450649781363
388,0.0
425,0.0
450,0.0
451,0.0
452,-18.22210456960901
453,0.0
490,0.0
515,0.0
516,0.0
542,0.0
592,0.0
632,14431313.19809997
686,1.0
687,1.0
688,2.0
2,1, 1,21, 0,13,20.00,30.00,WinterDesignDay
250,22.482783172316832
251,15786528.179064637
336,0.0
385,22.8693772598304
386,27.930439951709324
387,-17.552339330809776
388,0.0
425,0.0
450,0.0
451,0.0
452,-18.222029767617443
453,0.0
490,0.0
515,0.0
516,0.0
542,0.0
592,0.0
632,16262923.837973803
686,1.0
687,1.0
688,2.0
2,1, 1,21, 0,13,30.00,40.00,WinterDesignDay
250,22.834814299625194
251,16905198.98578281
336,0.0
385,22.8693772598304
386,27.930439951709324
387,-17.552346436694727
388,0.0
425,0.0
450,0.0
451,0.0
452,-18.221886668282956
453,0.0
490,0.0
515,0.0
516,0.0
542,0.0
592,0.0
632,16747459.821648499
686,1.0
687,1.0
688,2.0
2,1, 1,21, 0,13,40.00,50.00,WinterDesignDay
250,21.82709780431935
251,15574968.820750885
336,0.0
385,22.2027105931637
386,27.930439951709285
387,-17.55245809233383
388,0.0
425,0.0
450,0.0
451,0.0
452,-18.221985686237367
453,0.0
490,0.0
515,0.0
516,0.0
542,0.0
592,0.0
632,15209154.835397217
686,0.9999999999999986
687,0.9999999999999986
688,1.9999999999999971
2,1, 1,21, 0,13,50.00,60.00,WinterDesignDay
250,22.235903784483966
251,14818117.203201598
336,0.0
385,22.20271059316375
386,27.930439951709346
387,-17.552452486091717
388,0.0
425,0.0
450,0.0
451,0.0
452,-18.2221047529005
453,0.0
490,0.0
515,0.0
516,0.0
542,0.0
592,0.0
632,14431313.213600963
686,1.0000000000000009
687,1.0000000000000009
688,2.0000000000000018
2,1, 1,21, 0,14, 0.00,10.00,WinterDesignDay
250,22.482783172408475
251,15786528.194374505
336,0.0
385,22.8693772598304
386,27.930439951709324
387,-17.552341139229462
388,0.0
425,0.0
450,0.0
451,0.0
452,-18.222029948131365
453,0.0
490,0.0
515,0.0
516,0.0
542,0.0
592,0.0
632,16262923.853348471
686,1.0
687,1.0
688,2.0
2,1, 1,21, 0,14,10.00,20.00,WinterDesignDay
250,22.83481429963924
251,16905199.001250125
336,0.0
385,22.8693772598304
386,27.930439951709324
387,-17.55234822077371
388,0.0
425,0.0
450,0.0
451,0.0
452,-18.221886846424166
453,0.0
490,0.0
515,0.0
516,0.0
542,0.0
592,0.0
632,16747459.837092578
686,1.0
687,1.0
688,2.0
2,1, 1,21, 0,14,20.00,30.00,WinterDesignDay
250,21.827097803631975
251,15574968.832641143
336,0.0
385,22.20271059316375
386,27.93043995170935
387,-17.5524598557392
388,0.0
425,0.0
450,0.0
451,0.0
452,-18.22198586231478
453,0.0
490,0.0
515,0.0
516,0.0
542,0.0
592,0.0
632,15209154.847108904
686,1.0000000000000007
687,1.0000000000000007
688,2.0000000000000013
2,1, 1,21, 0,14,30.00,40.00,WinterDesignDay
250,22.235903784449253
251,14818117.217783356
336,0.0
385,22.20271059316375
386,27.930439951709346
387,-17.552454227474815
388,0.0
425,0.0
450,0.0
451,0.0
452,-18.22210492671736
453,0.0
490,0.0
515,0.0
516,0.0
542,0.0
592,0.0
632,14431313.228300627
686,1.0000000000000009
687,1.0000000000000009
688,2.0000000000000018
2,1, 1,21, 0,14,40.00,50.00,WinterDesignDay
250,22.48278317249538
251,15786528.208892873
336,0.0
385,22.8693772598304
386,27.930439951709324
387,-17.55234285416399
388,0.0
425,0.0
450,0.0
451,0.0
452,-18.222030119314237
453,0.0
490,0.0
515,0.0
516,0.0
542,0.0
592,0.0
632,16262923.867928287
686,1.0
687,1.0
688,2.0
2,1, 1,21, 0,14,50.00,60.00,WinterDesignDay
250,22.834814299652574
251,16905199.015917905