Program Version,EnergyPlus, Version 24.2.0-94a887817b, YMD=2025.01.22 00:04
1,5,Environment Title[],Latitude[deg],Longitude[deg],Time Zone[],Elevation[m]
2,8,Day of Simulation[],Month[],Day of Month[],DST Indicator[1=yes 0=no],Hour[],StartMinute[],EndMinute[],DayType
3,5,Cumulative Day of Simulation[],Month[],Day of Month[],DST Indicator[1=yes 0=no],DayType  ! When Daily Meters Requested
4,2,Cumulative Days of Simulation[],Month[]  ! When Monthly Meters Requested
5,1,Cumulative Days of Simulation[] ! When Run Period Meters Requested
6,1,Calendar Year of Simulation[] ! When Annual Meters Requested
11,9,Electricity:Facility [J] !Monthly [Value,Min,Day,Hour,Minute,Max,Day,Hour,Minute]
23,9,Electricity:Building [J] !Monthly [Value,Min,Day,Hour,Minute,Max,Day,Hour,Minute]
59,9,InteriorLights:Electricity [J] !Monthly [Value,Min,Day,Hour,Minute,Max,Day,Hour,Minute]
521,9,Electricity:HVAC [J] !Monthly [Value,Min,Day,Hour,Minute,Max,Day,Hour,Minute]
637,9,NaturalGas:Facility [J] !Monthly [Value,Min,Day,Hour,Minute,Max,Day,Hour,Minute]
649,9,NaturalGas:HVAC [J] !Monthly [Value,Min,Day,Hour,Minute,Max,Day,Hour,Minute]
13,11,Electricity:Facility [J] !RunPeriod [Value,Min,Month,Day,Hour,Minute,Max,Month,Day,Hour,Minute]
25,11,Electricity:Building [J] !RunPeriod [Value,Min,Month,Day,Hour,Minute,Max,Month,Day,Hour,Minute]
61,11,InteriorLights:Electricity [J] !RunPeriod [Value,Min,Month,Day,Hour,Minute,Max,Month,Day,Hour,Minute]
523,11,Electricity:HVAC [J] !RunPeriod [Value,Min,Month,Day,Hour,Minute,Max,Month,Day,Hour,Minute]
639,11,NaturalGas:Facility [J] !RunPeriod [Value,Min,Month,Day,Hour,Minute,Max,Month,Day,Hour,Minute]
651,11,NaturalGas:HVAC [J] !RunPeriod [Value,Min,Month,Day,Hour,Minute,Max,Month,Day,Hour,Minute]
End of Data Dictionary
1,RUN PERIOD 1,  41.98, -87.92,  -6.00, 201.00
4,31, 1
11,9815551746.294813,408891.4285714286, 5, 6,50,2974039.649247946,16,13,60
23,976501645.0637854,30000.0, 1, 1,10,604566.4094665217, 1, 9,10
59,970200000.0,30000.0, 1, 1,10,600000.0, 1, 8,10
521,8839050101.230986,378891.4285714286, 5, 6,50,2369473.239781425,16,13,60
637,177524115344.4157,27561607.306655232,21,16,10,41250000.0, 1, 1,20
649,177524115344.4157,27561607.306655232,21,16,10,41250000.0, 1, 1,20
4,59, 2
11,9350015812.423689,99999999999999.0, 5, 6,50,3015501.0895110685,22,15,30
23,853639691.3598142,99999999999999.0, 1, 1,10,-99999999999999.0, 1, 9,10
59,848160000.0,99999999999999.0, 1, 1,10,-99999999999999.0, 1, 8,10
521,8496376121.063895,99999999999999.0, 5, 6,50,2410934.680044547,22,15,30
637,156536175865.41983,25896581.306360822,23,12,10,-99999999999999.0, 1, 1,20
649,156536175865.41983,25896581.306360822,23,12,10,-99999999999999.0, 1, 1,20
4,90, 3
11,11012358535.93693,99999999999999.0, 5, 6,50,3377635.328759532,27,16,10
23,908012767.7493685,99999999999999.0, 1, 1,10,688761.217212167,26,14,60
59,897480000.0,99999999999999.0, 1, 1,10,-99999999999999.0, 1, 8,10
521,10104345768.187508,99999999999999.0, 5, 6,50,2697166.140480191,27,16,10
637,159641859732.93124,20321360.402995937,27,16,10,-99999999999999.0, 1, 1,20
649,159641859732.93124,20321360.402995937,27,16,10,-99999999999999.0, 1, 1,20
4,120, 4
11,10050884789.394955,30000.0,11,19,10,-99999999999999.0,27,16,10
23,957265743.8805289,99999999999999.0, 1, 1,10,-99999999999999.0,26,14,60
59,929520000.0,99999999999999.0, 1, 1,10,-99999999999999.0, 1, 8,10
521,9093619045.514364,0.0,11,14,30,2718186.582244084,14,12,50
637,121881397574.59998,0.0,11,14,30,-99999999999999.0, 1, 1,20
649,121881397574.59998,0.0,11,14,30,-99999999999999.0, 1, 1,20
4,151, 5
11,9944033135.266413,99999999999999.0,11,19,10,3378360.754253815,10,13,40
23,1023898417.8809984,99999999999999.0, 1, 1,10,696267.5950734201,13,14,10
59,970200000.0,99999999999999.0, 1, 1,10,-99999999999999.0, 1, 8,10
521,8920134717.385464,99999999999999.0,11,14,30,2720026.924023392, 6,12,50
637,97804712065.80716,99999999999999.0,11,14,30,-99999999999999.0, 1, 1,20
649,97804712065.80716,99999999999999.0,11,14,30,-99999999999999.0, 1, 1,20
4,181, 6
11,8074246925.912283,99999999999999.0,11,19,10,3388537.2669267086,17,14,30
23,931636515.5380129,99999999999999.0, 1, 1,10,-99999999999999.0,13,14,10
59,856800000.0,99999999999999.0, 1, 1,10,-99999999999999.0, 1, 8,10
521,7142610410.374191,99999999999999.0,11,14,30,-99999999999999.0, 6,12,50
637,52347407973.414246,99999999999999.0,11,14,30,-99999999999999.0, 1, 1,20
649,52347407973.414246,99999999999999.0,11,14,30,-99999999999999.0, 1, 1,20
4,212, 7
11,7620943693.346269,99999999999999.0,11,19,10,-99999999999999.0,17,14,30
23,1032220096.6424898,99999999999999.0, 1, 1,10,-99999999999999.0,13,14,10
59,970200000.0,99999999999999.0, 1, 1,10,-99999999999999.0, 1, 8,10
521,6588723596.703697,99999999999999.0,11,14,30,-99999999999999.0, 6,12,50
637,27803355401.741238,99999999999999.0,11,14,30,-99999999999999.0, 1, 1,20
649,27803355401.741238,99999999999999.0,11,14,30,-99999999999999.0, 1, 1,20
4,243, 8
11,7557912410.6540985,99999999999999.0,11,19,10,3391802.5431410656, 6, 9,60
23,1025364174.4382299,99999999999999.0, 1, 1,10,-99999999999999.0,13,14,10
59,933840000.0,99999999999999.0, 1, 1,10,-99999999999999.0, 1, 8,10
521,6532548236.215738,99999999999999.0,11,14,30,-99999999999999.0, 6,12,50
637,45308557663.43183,99999999999999.0,11,14,30,-99999999999999.0, 1, 1,20
649,45308557663.43183,99999999999999.0,11,14,30,-99999999999999.0, 1, 1,20
4,273, 9
11,9158014220.686754,99999999999999.0,11,19,10,3392550.2365370225,16,15,60
23,991339228.5268832,99999999999999.0, 1, 1,10,-99999999999999.0,13,14,10
59,893160000.0,99999999999999.0, 1, 1,10,-99999999999999.0, 1, 8,10
521,8166674992.159779,99999999999999.0,11,14,30,-99999999999999.0, 6,12,50
637,78307526858.73207,99999999999999.0,11,14,30,-99999999999999.0, 1, 1,20
649,78307526858.73207,99999999999999.0,11,14,30,-99999999999999.0, 1, 1,20
4,304,10
11,10853887842.370386,99999999999999.0,11,19,10,3402997.350093991, 9,14,40
23,997112223.8623835,99999999999999.0, 1, 1,10,-99999999999999.0,13,14,10
59,970200000.0,99999999999999.0, 1, 1,10,-99999999999999.0, 1, 8,10
521,9856775618.507967,99999999999999.0,11,14,30,-99999999999999.0, 6,12,50
637,127579327909.95955,99999999999999.0,11,14,30,-99999999999999.0, 1, 1,20
649,127579327909.95955,99999999999999.0,11,14,30,-99999999999999.0, 1, 1,20
4,334,11
11,10633218074.02127,99999999999999.0,11,19,10,-99999999999999.0, 9,14,40
23,912786717.3043046,99999999999999.0, 1, 1,10,-99999999999999.0,13,14,10
59,893160000.0,99999999999999.0, 1, 1,10,-99999999999999.0, 1, 8,10
521,9720431356.71695,99999999999999.0,11,14,30,-99999999999999.0, 6,12,50
637,146480278508.22418,99999999999999.0,11,14,30,-99999999999999.0, 1, 1,20
649,146480278508.22418,99999999999999.0,11,14,30,-99999999999999.0, 1, 1,20
4,365,12
11,10428818280.87963,99999999999999.0,11,19,10,-99999999999999.0, 9,14,40
23,939867660.495795,99999999999999.0, 1, 1,10,-99999999999999.0,13,14,10
59,933840000.0,99999999999999.0, 1, 1,10,-99999999999999.0, 1, 8,10
521,9488950620.383821,99999999999999.0,11,14,30,-99999999999999.0, 6,12,50
637,178224910365.9235,99999999999999.0,11,14,30,-99999999999999.0, 1, 1,20
649,178224910365.9235,99999999999999.0,11,14,30,-99999999999999.0, 1, 1,20
5,365
13,114499885467.19873,30000.0, 4,11,19,10,3402997.350093991,10, 9,14,40
25,11549644882.741451,30000.0, 1, 1, 1,10,696267.5950734201, 5,13,14,10
61,11066760000.0,30000.0, 1, 1, 1,10,600000.0, 1, 1, 8,10
523,102950240584.44899,0.0, 4,11,14,30,2720026.924023392, 5, 6,12,50
639,1369439625264.6113,0.0, 4,11,14,30,41250000.0, 1, 1, 1,20
651,1369439625264.6113,0.0, 4,11,14,30,41250000.0, 1, 1, 1,20
1,RUN PERIOD 2,  41.98, -87.92,  -6.00, 201.00
4,1, 7
11,210124567.49141786,99999999999999.0,11,19,10,-99999999999999.0, 9,14,40
23,42988116.34225944,99999999999999.0, 1, 1,10,-99999999999999.0,13,14,10
59,40680000.0,99999999999999.0, 1, 1,10,-99999999999999.0, 1, 8,10
521,167136451.14915836,99999999999999.0,11,14,30,-99999999999999.0, 6,12,50
637,776075131.3412212,99999999999999.0,11,14,30,-99999999999999.0, 1, 1,20
649,776075131.3412212,99999999999999.0,11,14,30,-99999999999999.0, 1, 1,20
5,1
13,210124567.49141786,99999999999999.0, 4,11,19,10,-99999999999999.0,10, 9,14,40
25,42988116.34225944,99999999999999.0, 1, 1, 1,10,-99999999999999.0, 5,13,14,10
61,40680000.0,99999999999999.0, 1, 1, 1,10,-99999999999999.0, 1, 1, 8,10
523,167136451.14915836,99999999999999.0, 4,11,14,30,-99999999999999.0, 5, 6,12,50
639,776075131.3412212,99999999999999.0, 4,11,14,30,-99999999999999.0, 1, 1, 1,20
651,776075131.3412212,99999999999999.0, 4,11,14,30,-99999999999999.0, 1, 1, 1,20
End of Data
 Number of Records Written=          90
