Program Version,EnergyPlus, Version 24.2.0-94a887817b, YMD=2025.01.30 19:34
1,5,Environment Title[],Latitude[deg],Longitude[deg],Time Zone[],Elevation[m]
2,8,Day of Simulation[],Month[],Day of Month[],DST Indicator[1=yes 0=no],Hour[],StartMinute[],EndMinute[],DayType
3,5,Cumulative Day of Simulation[],Month[],Day of Month[],DST Indicator[1=yes 0=no],DayType  ! When Daily Meters Requested
4,2,Cumulative Days of Simulation[],Month[]  ! When Monthly Meters Requested
5,1,Cumulative Days of Simulation[] ! When Run Period Meters Requested
6,1,Calendar Year of Simulation[] ! When Annual Meters Requested
11,9,Electricity:Facility [J] !Monthly [Value,Min,Day,Hour,Minute,Max,Day,Hour,Minute]
23,9,Electricity:Building [J] !Monthly [Value,Min,Day,Hour,Minute,Max,Day,Hour,Minute]
59,9,InteriorLights:Electricity [J] !Monthly [Value,Min,Day,Hour,Minute,Max,Day,Hour,Minute]
521,9,Electricity:HVAC [J] !Monthly [Value,Min,Day,Hour,Minute,Max,Day,Hour,Minute]
637,9,NaturalGas:Facility [J] !Monthly [Value,Min,Day,Hour,Minute,Max,Day,Hour,Minute]
649,9,NaturalGas:HVAC [J] !Monthly [Value,Min,Day,Hour,Minute,Max,Day,Hour,Minute]
13,11,Electricity:Facility [J] !RunPeriod [Value,Min,Month,Day,Hour,Minute,Max,Month,Day,Hour,Minute]
25,11,Electricity:Building [J] !RunPeriod [Value,Min,Month,Day,Hour,Minute,Max,Month,Day,Hour,Minute]
61,11,InteriorLights:Electricity [J] !RunPeriod [Value,Min,Month,Day,Hour,Minute,Max,Month,Day,Hour,Minute]
523,11,Electricity:HVAC [J] !RunPeriod [Value,Min,Month,Day,Hour,Minute,Max,Month,Day,Hour,Minute]
639,11,NaturalGas:Facility [J] !RunPeriod [Value,Min,Month,Day,Hour,Minute,Max,Month,Day,Hour,Minute]
651,11,NaturalGas:HVAC [J] !RunPeriod [Value,Min,Month,Day,Hour,Minute,Max,Month,Day,Hour,Minute]
End of Data Dictionary
1,RUN PERIOD 1,  41.98, -87.92,  -6.00, 201.00
4,31, 1
11,9834572145.835913,408891.4285714286, 5, 6,50,2987822.5474661374,16,13,60
23,995522044.6048741,30000.0, 1, 1,10,618349.3076847125, 1, 9,10
59,970200000.0,30000.0, 1, 1,10,600000.0, 1, 8,10
521,8839050101.230986,378891.4285714286, 5, 6,50,2369473.239781425,16,13,60
637,179180788607.90192,28337887.71825595,21,16,10,41250000.0, 1, 1,10
649,179180788607.90192,28337887.71825595,21,16,10,41250000.0, 1, 1,10
4,59, 2
11,9366555290.285515,99999999999999.0, 5, 6,50,3029283.9877292593,22,15,30
23,870179169.2216346,99999999999999.0, 1, 1,10,-99999999999999.0, 1, 9,10
59,848160000.0,99999999999999.0, 1, 1,10,-99999999999999.0, 1, 8,10
521,8496376121.063895,99999999999999.0, 5, 6,50,2410934.680044547,22,15,30
637,158607683524.4541,26646427.185638443,23,12,10,-99999999999999.0, 1, 1,10
649,158607683524.4541,26646427.185638443,23,12,10,-99999999999999.0, 1, 1,10
4,90, 3
11,10843930164.815304,30000.0,26,19,10,3039517.1084350543,26,14,60
23,920600127.6827142,99999999999999.0, 1, 1,10,-99999999999999.0, 1, 9,10
59,897480000.0,99999999999999.0, 1, 1,10,-99999999999999.0, 1, 8,10
521,9923330037.132565,0.0,19,17,10,2421167.8007503417,26,14,60
637,161519279777.1803,0.0,19,17,10,-99999999999999.0, 1, 1,10
649,161519279777.1803,0.0,19,17,10,-99999999999999.0, 1, 1,10
4,120, 4
11,8873512850.465929,99999999999999.0,26,19,10,-99999999999999.0,26,14,60
23,953741086.1437945,99999999999999.0, 1, 1,10,-99999999999999.0, 1, 9,10
59,929520000.0,99999999999999.0, 1, 1,10,-99999999999999.0, 1, 8,10
521,7919771764.322041,99999999999999.0,19,17,10,-99999999999999.0,26,14,60
637,115557317500.3051,99999999999999.0,19,17,10,-99999999999999.0, 1, 1,10
649,115557317500.3051,99999999999999.0,19,17,10,-99999999999999.0, 1, 1,10
4,151, 5
11,7302692901.546662,99999999999999.0,26,19,10,3041728.839253201, 9,15,30
23,995783495.744524,99999999999999.0, 1, 1,10,634279.5067759926,28,13,10
59,970200000.0,99999999999999.0, 1, 1,10,-99999999999999.0, 1, 8,10
521,6306909405.801979,99999999999999.0,19,17,10,2423379.531568489, 9,15,30
637,79428988673.5748,99999999999999.0,19,17,10,-99999999999999.0, 1, 1,10
649,79428988673.5748,99999999999999.0,19,17,10,-99999999999999.0, 1, 1,10
4,181, 6
11,4078754046.4972258,99999999999999.0,26,19,10,-99999999999999.0, 9,15,30
23,878905463.5044317,99999999999999.0, 1, 1,10,-99999999999999.0,28,13,10
59,856800000.0,99999999999999.0, 1, 1,10,-99999999999999.0, 1, 8,10
521,3199848582.9927373,99999999999999.0,19,17,10,2425599.5029534856,19, 6,10
637,22829211005.778187,99999999999999.0,19,17,10,-99999999999999.0, 1, 1,10
649,22829211005.778187,99999999999999.0,19,17,10,-99999999999999.0, 1, 1,10
4,212, 7
11,3641798470.047955,99999999999999.0,26,19,10,-99999999999999.0, 9,15,30
23,995794340.2638341,99999999999999.0, 1, 1,10,-99999999999999.0,28,13,10
59,970200000.0,99999999999999.0, 1, 1,10,-99999999999999.0, 1, 8,10
521,2646004129.784051,99999999999999.0,19,17,10,-99999999999999.0,19, 6,10
637,2720785142.9970846,99999999999999.0,19,17,10,-99999999999999.0, 1, 1,10
649,2720785142.9970846,99999999999999.0,19,17,10,-99999999999999.0, 1, 1,10
4,243, 8
11,2431473858.6079106,99999999999999.0,26,19,10,-99999999999999.0, 9,15,30
23,958339486.9327306,99999999999999.0, 1, 1,10,634408.0620265221,12,14,10
59,933840000.0,99999999999999.0, 1, 1,10,-99999999999999.0, 1, 8,10
521,1473134371.6751432,99999999999999.0,19,17,10,-99999999999999.0,19, 6,10
637,8814290289.116152,99999999999999.0,19,17,10,-99999999999999.0, 1, 1,10
649,8814290289.116152,99999999999999.0,19,17,10,-99999999999999.0, 1, 1,10
4,273, 9
11,4538346765.561551,99999999999999.0,26,19,10,-99999999999999.0, 9,15,30
23,916280127.6827146,99999999999999.0, 1, 1,10,-99999999999999.0,12,14,10
59,893160000.0,99999999999999.0, 1, 1,10,-99999999999999.0, 1, 8,10
521,3622066637.8787956,99999999999999.0,19,17,10,-99999999999999.0,19, 6,10
637,41658401371.12449,99999999999999.0,19,17,10,-99999999999999.0, 1, 1,10
649,41658401371.12449,99999999999999.0,19,17,10,-99999999999999.0, 1, 1,10
4,304,10
11,9887148401.64444,99999999999999.0,26,19,10,-99999999999999.0, 9,15,30
23,995522044.6048741,99999999999999.0, 1, 1,10,-99999999999999.0,12,14,10
59,970200000.0,99999999999999.0, 1, 1,10,-99999999999999.0, 1, 8,10
521,8891626357.039524,99999999999999.0,19,17,10,-99999999999999.0,19, 6,10
637,122306662638.49876,99999999999999.0,19,17,10,-99999999999999.0, 1, 1,10
649,122306662638.49876,99999999999999.0,19,17,10,-99999999999999.0, 1, 1,10
4,334,11
11,10087053128.894228,99999999999999.0,26,19,10,-99999999999999.0, 9,15,30
23,916280127.6827142,99999999999999.0, 1, 1,10,-99999999999999.0,12,14,10
59,893160000.0,99999999999999.0, 1, 1,10,-99999999999999.0, 1, 8,10
521,9170773001.211493,99999999999999.0,19,17,10,-99999999999999.0,19, 6,10
637,144235243109.1651,99999999999999.0,19,17,10,-99999999999999.0, 1, 1,10
649,144235243109.1651,99999999999999.0,19,17,10,-99999999999999.0, 1, 1,10
4,365,12
11,10447011706.527649,99999999999999.0,26,19,10,-99999999999999.0, 9,15,30
23,958061086.1437942,99999999999999.0, 1, 1,10,-99999999999999.0,12,14,10
59,933840000.0,99999999999999.0, 1, 1,10,-99999999999999.0, 1, 8,10
521,9488950620.383821,99999999999999.0,19,17,10,-99999999999999.0,19, 6,10
637,180034430046.95224,99999999999999.0,19,17,10,-99999999999999.0, 1, 1,10
649,180034430046.95224,99999999999999.0,19,17,10,-99999999999999.0, 1, 1,10
5,365
13,91332849730.73907,30000.0, 3,26,19,10,3041728.839253201, 5, 9,15,30
25,11355008600.211548,30000.0, 1, 1, 1,10,634408.0620265221, 8,12,14,10
61,11066760000.0,30000.0, 1, 1, 1,10,600000.0, 1, 1, 8,10
523,79977841130.52017,0.0, 3,19,17,10,2425599.5029534856, 6,19, 6,10
639,1216893081687.045,0.0, 3,19,17,10,41250000.0, 1, 1, 1,10
651,1216893081687.045,0.0, 3,19,17,10,41250000.0, 1, 1, 1,10
1,RUN PERIOD 2,  41.98, -87.92,  -6.00, 201.00
4,1, 7
11,84408640.83268136,99999999999999.0,26,19,10,-99999999999999.0, 9,15,30
23,41780958.46108273,99999999999999.0, 1, 1,10,-99999999999999.0,12,14,10
59,40680000.0,99999999999999.0, 1, 1,10,-99999999999999.0, 1, 8,10
521,42627682.37159848,99999999999999.0,19,17,10,-99999999999999.0,19, 6,10
637,0.0,99999999999999.0,19,17,10,-99999999999999.0, 1, 1,10
649,0.0,99999999999999.0,19,17,10,-99999999999999.0, 1, 1,10
5,1
13,84408640.83268136,99999999999999.0, 3,26,19,10,-99999999999999.0, 5, 9,15,30
25,41780958.46108273,99999999999999.0, 1, 1, 1,10,-99999999999999.0, 8,12,14,10
61,40680000.0,99999999999999.0, 1, 1, 1,10,-99999999999999.0, 1, 1, 8,10
523,42627682.37159848,99999999999999.0, 3,19,17,10,-99999999999999.0, 6,19, 6,10
639,0.0,99999999999999.0, 3,19,17,10,-99999999999999.0, 1, 1, 1,10
651,0.0,99999999999999.0, 3,19,17,10,-99999999999999.0, 1, 1, 1,10
End of Data
 Number of Records Written=          90
