Program Version,EnergyPlus, Version 24.2.0-94a887817b, YMD=2025.02.04 15:39
1,5,Environment Title[],Latitude[deg],Longitude[deg],Time Zone[],Elevation[m]
2,8,Day of Simulation[],Month[],Day of Month[],DST Indicator[1=yes 0=no],Hour[],StartMinute[],EndMinute[],DayType
3,5,Cumulative Day of Simulation[],Month[],Day of Month[],DST Indicator[1=yes 0=no],DayType  ! When Daily Report Variables Requested
4,2,Cumulative Days of Simulation[],Month[]  ! When Monthly Report Variables Requested
5,1,Cumulative Days of Simulation[] ! When Run Period Report Variables Requested
6,1,Calendar Year of Simulation[] ! When Annual Report Variables Requested
250,1,LIVING ZONE,Zone Air Temperature [C] !TimeStep,REPORTSCH
251,1,LIVING ZONE,Zone Air System Sensible Heating Energy [J] !TimeStep,REPORTSCH
336,1,LIVING ZONE,Zone Air System Sensible Cooling Energy [J] !TimeStep,REPORTSCH
385,1,LIVING ZONE,Zone Thermostat Heating Setpoint Temperature [C] !TimeStep,REPORTSCH
386,1,LIVING ZONE,Zone Thermostat Cooling Setpoint Temperature [C] !TimeStep,REPORTSCH
387,1,GARAGE ZONE,Zone Air Temperature [C] !TimeStep,REPORTSCH
388,1,GARAGE ZONE,Zone Air System Sensible Heating Energy [J] !TimeStep,REPORTSCH
425,1,GARAGE ZONE,Zone Air System Sensible Cooling Energy [J] !TimeStep,REPORTSCH
450,1,GARAGE ZONE,Zone Thermostat Heating Setpoint Temperature [C] !TimeStep,REPORTSCH
451,1,GARAGE ZONE,Zone Thermostat Cooling Setpoint Temperature [C] !TimeStep,REPORTSCH
452,1,ATTIC ZONE,Zone Air Temperature [C] !TimeStep,REPORTSCH
453,1,ATTIC ZONE,Zone Air System Sensible Heating Energy [J] !TimeStep,REPORTSCH
490,1,ATTIC ZONE,Zone Air System Sensible Cooling Energy [J] !TimeStep,REPORTSCH
515,1,ATTIC ZONE,Zone Thermostat Heating Setpoint Temperature [C] !TimeStep,REPORTSCH
516,1,ATTIC ZONE,Zone Thermostat Cooling Setpoint Temperature [C] !TimeStep,REPORTSCH
542,1,ACDXCOIL 1,Cooling Coil Total Cooling Energy [J] !TimeStep,REPORTSCH
592,1,HEAT PUMP DX HEATING COIL 1,Heating Coil Heating Energy [J] !TimeStep,REPORTSCH
632,1,SUPP HEATING COIL 1,Heating Coil Heating Energy [J] !TimeStep,REPORTSCH
686,1,TWOSPEED HEAT PUMP 1,Unitary System DX Coil Cycling Ratio [] !TimeStep,REPORTSCH
687,1,TWOSPEED HEAT PUMP 1,Unitary System DX Coil Speed Ratio [] !TimeStep,REPORTSCH
688,1,TWOSPEED HEAT PUMP 1,Unitary System DX Coil Speed Level [] !TimeStep,REPORTSCH
End of Data Dictionary
1,RUN PERIOD 1,  41.98, -87.92,  -6.00, 201.00
2,21, 1,21, 0, 1, 0.00,10.00,Monday
250,-0.7840364647601671
251,38097966.75915657
336,0.0
385,23.758509604854634
386,27.923533893374987
387,-0.9465814259936107
388,0.0
425,0.0
450,0.0
451,0.0
452,-1.9738722907140651
453,0.0
490,0.0
515,0.0
516,0.0
542,0.0
592,4839743.9850796405
632,33000000.0
686,1.0
687,1.0
688,2.0
2,21, 1,21, 0, 1,10.00,20.00,Monday
250,-0.7842124052267274
251,38082787.81567414
336,0.0
385,23.758509604854634
386,27.923533893374987
387,-0.9549445686519146
388,0.0
425,0.0
450,0.0
451,0.0
452,-1.9557315889888534
453,0.0
490,0.0
515,0.0
516,0.0
542,0.0
592,4823801.676011793
632,33000000.0
686,1.0
687,1.0
688,2.0
2,21, 1,21, 0, 1,20.00,30.00,Monday
250,-0.7844426825168725
251,38066873.558211654
336,0.0
385,23.758509604854634
386,27.923533893374987
387,-0.9645423721752276
388,0.0
425,0.0
450,0.0
451,0.0
452,-1.9526520739694102
453,0.0
490,0.0
515,0.0
516,0.0
542,0.0
592,4807858.16290522
632,33000000.0
686,1.0
687,1.0
688,2.0
2,21, 1,21, 0, 1,30.00,40.00,Monday
250,-0.7846653173774173
251,38050924.731925905
336,0.0
385,23.758509604854634
386,27.923533893374987
387,-0.9755795585532442
388,0.0
425,0.0
450,0.0
451,0.0
452,-1.9655237670678074
453,0.0
490,0.0
515,0.0
516,0.0
542,0.0
592,4791913.445623511
632,33000000.0
686,1.0
687,1.0
688,2.0
2,21, 1,21, 0, 1,40.00,50.00,Monday
250,-0.7848899138618841
251,38034979.87164253
336,0.0
385,23.758509604854634
386,27.923533893374987
387,-0.9882134449281009
388,0.0
425,0.0
450,0.0
451,0.0
452,-1.9927260896580208
453,0.0
490,0.0
515,0.0
516,0.0
542,0.0
592,4775967.524030239
632,33000000.0
686,1.0
687,1.0
688,2.0
2,21, 1,21, 0, 1,50.00,60.00,Monday
250,-0.7851152274746026
251,38019033.13695873
336,0.0
385,23.758509604854634
386,27.923533893374987
387,-1.002632843399825
388,0.0
425,0.0
450,0.0
451,0.0
452,-2.0327296435809843
453,0.0
490,0.0
515,0.0
516,0.0
542,0.0
592,4760020.397988958
632,33000000.0
686,1.0
687,1.0
688,2.0
2,21, 1,21, 0, 2, 0.00,10.00,Monday
250,-0.7852083355495177
251,38018961.95876498
336,0.0
385,23.758509604854634
386,27.923533893374987
387,-1.0181556717543332
388,0.0
425,0.0
450,0.0
451,0.0
452,-2.079489768629883
453,0.0
490,0.0
515,0.0
516,0.0
542,0.0
592,4760020.397988959
632,33000000.0
686,1.0
687,1.0
688,2.0
2,21, 1,21, 0, 2,10.00,20.00,Monday
250,-0.7852979661877962
251,38018960.086434655
336,0.0
385,23.758509604854634
386,27.923533893374987
387,-1.0338394150545396
388,0.0
425,0.0
450,0.0
451,0.0
452,-2.122217851202017
453,0.0
490,0.0
515,0.0
516,0.0
542,0.0
592,4760020.397988956
632,33000000.0
686,1.0
687,1.0
688,2.0
2,21, 1,21, 0, 2,20.00,30.00,Monday
250,-0.7853874866414396
251,38018960.02709708
336,0.0
385,23.758509604854634
386,27.923533893374987
387,-1.049130594479387
388,0.0
425,0.0
450,0.0
451,0.0
452,-2.15368439268406
453,0.0
490,0.0
515,0.0
516,0.0
542,0.0
592,4760020.397988958
632,33000000.0
686,1.0
687,1.0
688,2.0
2,21, 1,21, 0, 2,30.00,40.00,Monday
250,-0.7854752550386462
251,38018959.08373937
336,0.0
385,23.758509604854634
386,27.923533893374987
387,-1.0637078811706078
388,0.0
425,0.0
450,0.0
451,0.0
452,-2.1730666177911333
453,0.0
490,0.0
515,0.0
516,0.0
542,0.0
592,4760020.397988956
632,33000000.0
686,1.0
687,1.0
688,2.0
2,21, 1,21, 0, 2,40.00,50.00,Monday
250,-0.7855617039022658
251,38018958.37326245
336,0.0
385,23.758509604854634
386,27.923533893374987
387,-1.077430791016219
388,0.0
425,0.0
450,0.0
451,0.0
452,-2.1832074364370344
453,0.0
490,0.0
515,0.0
516,0.0
542,0.0
592,4760020.397988958
632,33000000.0
686,1.0
687,1.0
688,2.0
2,21, 1,21, 0, 2,50.00,60.00,Monday
250,-0.785646617694592
251,38018957.54673325
336,0.0
385,23.758509604854634
386,27.923533893374987
387,-1.0902618808229612
388,0.0
425,0.0
450,0.0
451,0.0
452,-2.187255395953426
453,0.0
490,0.0
515,0.0
516,0.0
542,0.0
592,4760020.397988958
632,33000000.0
686,1.0
687,1.0
688,2.0
2,21, 1,21, 0, 3, 0.00,10.00,Monday
250,-0.7035164605618979
251,37977228.943808235
336,0.0
385,23.758509604854634
386,27.923533893374987
387,-1.091812859826189
388,0.0
425,0.0
450,0.0
451,0.0
452,-2.179779324758243
453,0.0
490,0.0
515,0.0
516,0.0
542,0.0
592,4762558.894114006
632,33000000.0
686,1.0
687,1.0
688,2.0
2,21, 1,21, 0, 3,10.00,20.00,Monday
250,-0.6199166193644045
251,37978865.331160896
336,0.0
385,23.758509604854634
386,27.923533893374987
387,-1.0807726490118061
388,0.0
425,0.0
450,0.0
451,0.0
452,-2.154803075519548
453,0.0
490,0.0
515,0.0
516,0.0
542,0.0
592,4764988.4357309695
632,33000000.0
686,1.0
687,1.0
688,2.0
2,21, 1,21, 0, 3,20.00,30.00,Monday
250,-0.5368279385547384
251,37981458.51626317
336,0.0
385,23.758509604854634
386,27.923533893374987
387,-1.0615506546928142
388,0.0
425,0.0
450,0.0
451,0.0
452,-2.110877684001877
453,0.0
490,0.0
515,0.0
516,0.0
542,0.0
592,4767308.250738334
632,33000000.0
686,1.0
687,1.0
688,2.0
2,21, 1,21, 0, 3,30.00,40.00,Monday
250,-0.4539683336555558
251,37939270.406707436
336,0.0
385,23.758509604854634
386,27.923533893374987
387,-1.0379430840587494
388,0.0
425,0.0
450,0.0
451,0.0
452,-2.051135081219684
453,0.0
490,0.0
515,0.0
516,0.0
542,0.0
592,4769517.689516207
632,32955480.960590232
686,1.0
687,1.0
688,2.0
2,21, 1,21, 0, 3,40.00,50.00,Monday
250,-0.3710941429433874
251,37896235.373783685
336,0.0
385,23.758509604854634
386,27.923533893374987
387,-1.0112576545605882
388,0.0
425,0.0
450,0.0
451,0.0
452,-1.980059630357071
453,0.0
490,0.0
515,0.0
516,0.0
542,0.0
592,4771616.115684973
632,32910357.23135612
686,1.0
687,1.0
688,2.0
2,21, 1,21, 0, 3,50.00,60.00,Monday
250,-0.28820088913019265
251,37853196.91726731
336,0.0
385,23.758509604854634
386,27.923533893374987
387,-0.9812646410793552
388,0.0
425,0.0
450,0.0
451,0.0
452,-1.9012698482175117
453,0.0
490,0.0
515,0.0
516,0.0
542,0.0
592,4773602.736238394
632,32865344.30850831
686,1.0
687,1.0
688,2.0
2,21, 1,21, 0, 4, 0.00,10.00,Monday
250,-0.28748163958007394
251,37854421.24570905
336,0.0
385,23.758509604854634
386,27.923533893374987
387,-0.958537483903495
388,0.0
425,0.0
450,0.0
451,0.0
452,-1.8250540848231789
453,0.0
490,0.0
515,0.0
516,0.0
542,0.0
592,4773428.98237163
632,32822488.19784709
686,1.0
687,1.0
688,2.0
2,21, 1,21, 0, 4,10.00,20.00,Monday
250,-0.28787697362802406
251,37854692.921425685
336,0.0
385,23.758509604854634
386,27.923533893374987
387,-0.9459195376889771
388,0.0
425,0.0
450,0.0
451,0.0
452,-1.7604518273476122
453,0.0
490,0.0
515,0.0
516,0.0
542,0.0
592,4773255.169447958
632,32822333.40974848
686,1.0
687,1.0
688,2.0
2,21, 1,21, 0, 4,20.00,30.00,Monday
250,-0.2877288176604619
251,37854643.613622844
336,0.0
385,23.758509604854634
386,27.923533893374987
387,-0.9399232914389177
388,0.0
425,0.0
450,0.0
451,0.0
452,-1.7110677835348058
453,0.0
490,0.0
515,0.0
516,0.0
542,0.0
592,4773081.29743726
632,32822750.67951305
686,1.0
687,1.0
688,2.0
2,21, 1,21, 0, 4,30.00,40.00,Monday
250,-0.2876939360066302
251,37854665.58641194
336,0.0
385,23.758509604854634
386,27.923533893374987
387,-0.936681086638923
388,0.0
425,0.0
450,0.0
451,0.0
452,-1.6752431934678185
453,0.0
490,0.0
515,0.0
516,0.0
542,0.0
592,4772907.3663094025
632,32822885.57765521
686,1.0
687,1.0
688,2.0
2,21, 1,21, 0, 4,40.00,50.00,Monday
250,-0.2876671502359659
251,37854689.92393404
336,0.0
385,23.758509604854634
386,27.923533893374987
387,-0.9344003801436774
388,0.0
425,0.0
450,0.0
451,0.0
452,-1.649307802837192
453,0.0
490,0.0
515,0.0
516,0.0
542,0.0
592,4772733.376034233
632,32823079.545287926
686,1.0
687,1.0
688,2.0
2,21, 1,21, 0, 4,50.00,60.00,Monday
250,-0.2876395557456449
251,37854713.68779078
336,0.0
385,23.758509604854634
386,27.923533893374987
387,-0.9328970070797126
388,0.0
425,0.0
450,0.0
451,0.0
452,-1.6302032560000659
453,0.0
490,0.0
515,0.0
516,0.0
542,0.0
592,4772559.326581574
632,32823277.794163033
686,1.0
687,1.0
688,2.0
2,21, 1,21, 0, 5, 0.00,10.00,Monday
250,-0.2876136229966154
251,37854738.386656225
336,0.0
385,23.758509604854634
386,27.923533893374987
387,-0.9322249234962083
388,0.0
425,0.0
450,0.0
451,0.0
452,-1.6153139765537707
453,0.0
490,0.0
515,0.0
516,0.0
542,0.0
592,4759720.858689581
632,32836140.065973107
686,1.0
687,1.0
688,2.0
2,21, 1,21, 0, 5,10.00,20.00,Monday
250,-0.287577781647095
251,37856029.38082797
336,0.0
385,23.758509604854634
386,27.923533893374987
387,-0.9322487568083654
388,0.0
425,0.0
450,0.0
451,0.0
452,-1.6023291692995227
453,0.0
490,0.0
515,0.0
516,0.0
542,0.0
592,4746877.262331866
632,32850279.993636988
686,1.0
687,1.0
688,2.0
2,21, 1,21, 0, 5,20.00,30.00,Monday
250,-0.2875417864289785
251,37857343.93728278
336,0.0
385,23.758509604854634
386,27.923533893374987
387,-0.9327395313645277
388,0.0
425,0.0
450,0.0
451,0.0
452,-1.5898472500509395
453,0.0
490,0.0
515,0.0
516,0.0
542,0.0
592,4734028.534436011
632,32864443.36154252
686,1.0
687,1.0
688,2.0
2,21, 1,21, 0, 5,30.00,40.00,Monday
250,-0.28750596603632006
251,37858650.727714434
336,0.0
385,23.758509604854634
386,27.923533893374987
387,-0.9334936274734498
388,0.0
425,0.0
450,0.0
451,0.0
452,-1.5774350074299373
453,0.0
490,0.0
515,0.0
516,0.0
542,0.0
592,4721174.671927155
632,32878603.920996673
686,1.0
687,1.0
688,2.0
2,21, 1,21, 0, 5,40.00,50.00,Monday
250,-0.28747002828094764
251,37859959.627413966
336,0.0
385,23.758509604854634
386,27.923533893374987
387,-0.9343748694062907
388,0.0
425,0.0
450,0.0
451,0.0
452,-1.565161420477218
453,0.0
490,0.0
515,0.0
516,0.0
542,0.0
592,4708315.671727969
632,32892771.884789083
686,1.0
687,1.0
688,2.0
2,21, 1,21, 0, 5,50.00,60.00,Monday
250,-0.28743386367373874
251,37861269.05684618
336,0.0
385,23.758509604854634
386,27.923533893374987
387,-0.935303980686111
388,0.0
425,0.0
450,0.0
451,0.0
452,-1.5531775752103418
453,0.0
490,0.0
515,0.0
516,0.0
542,0.0
592,4695451.530758676
632,32906945.578066844
686,1.0
687,1.0
688,2.0
2,21, 1,21, 0, 6, 0.00,10.00,Monday
250,-0.28739595429078324
251,37862578.05294776
336,0.0
385,23.758509604854634
386,27.923533893374987
387,-0.9363676547172135
388,0.0
425,0.0
450,0.0
451,0.0
452,-1.5421801428711632
453,0.0
490,0.0
515,0.0
516,0.0
542,0.0
592,4695264.082255858
632,32908442.96323512
686,1.0
687,1.0
688,2.0
2,21, 1,21, 0, 6,10.00,20.00,Monday
250,-0.2873683556960151
251,37862619.768753916
336,0.0
385,23.758509604854634
386,27.923533893374987
387,-0.937649331958833
388,0.0
425,0.0
450,0.0
451,0.0
452,-1.532982924410227
453,0.0
490,0.0
515,0.0
516,0.0
542,0.0
592,4695076.569900009
632,32908666.637179963
686,1.0
687,1.0
688,2.0
2,21, 1,21, 0, 6,20.00,30.00,Monday
250,-0.2873411449259934
251,37862638.551341645
336,0.0
385,23.758509604854634
386,27.923533893374987
387,-0.939143257739564
388,0.0
425,0.0
450,0.0
451,0.0
452,-1.5259112050698178
453,0.0
490,0.0
515,0.0
516,0.0
542,0.0
592,4694888.993658496
632,32908872.787107505
686,1.0
687,1.0
688,2.0
2,21, 1,21, 0, 6,30.00,40.00,Monday
250,-0.2873135995753351
251,37862665.56613424
336,0.0
385,23.758509604854634
386,27.923533893374987
387,-0.9408073042617628
388,0.0
425,0.0
450,0.0
451,0.0
452,-1.5207575749648359
453,0.0
490,0.0
515,0.0
516,0.0
542,0.0
592,4694701.35349866
632,32909087.622309435
686,1.0
687,1.0
688,2.0
2,21, 1,21, 0, 6,40.00,50.00,Monday
250,-0.2872858151446103
251,37862690.819117986
336,0.0
385,23.758509604854634
386,27.923533893374987
387,-0.9426094819280222
388,0.0
425,0.0
450,0.0
451,0.0
452,-1.5170728540935725
453,0.0
490,0.0
515,0.0
516,0.0
542,0.0
592,4694513.649387832
632,32909300.708208565
686,1.0
687,1.0
688,2.0
2,21, 1,21, 0, 6,50.00,60.00,Monday
250,-0.28725773507183316
251,37862715.80264283
336,0.0
385,23.758509604854634
386,27.923533893374987
387,-0.9445326138931514
388,0.0
425,0.0
450,0.0
451,0.0
452,-1.5144372473456353
453,0.0
490,0.0
515,0.0
516,0.0
542,0.0
592,4694325.88129331
632,32909513.619101826
686,1.0
687,1.0
688,2.0
2,21, 1,21, 0, 7, 0.00,10.00,Monday
250,-0.2879740286899218
251,37863141.80548987
336,0.0
385,23.758509604854634
386,27.923533893374987
387,-0.9489987440671955
388,0.0
425,0.0
450,0.0
451,0.0
452,-1.5177184009643077
453,0.0
490,0.0
515,0.0
516,0.0
542,0.0
592,4723573.583255435
632,32880290.93637787
686,1.0
687,1.0
688,2.0
2,21, 1,21, 0, 7,10.00,20.00,Monday
250,-0.2879499773123637
251,37860234.1807776
336,0.0
385,23.758509604854634
386,27.923533893374987
387,-0.9581812112476741
388,0.0
425,0.0
450,0.0
451,0.0
452,-1.5363900334494607
453,0.0
490,0.0
515,0.0
516,0.0
542,0.0
592,4752837.186047653
632,32848518.521306418
686,1.0
687,1.0
688,2.0
2,21, 1,21, 0, 7,20.00,30.00,Monday
250,-0.2879056543408564
251,37857260.702377506
336,0.0
385,23.758509604854634
386,27.923533893374987
387,-0.9723207567998009
388,0.0
425,0.0
450,0.0
451,0.0
452,-1.5758219685809864
453,0.0
490,0.0
515,0.0
516,0.0
542,0.0
592,4782116.702651945
632,32816276.44362937
686,1.0
687,1.0
688,2.0
2,21, 1,21, 0, 7,30.00,40.00,Monday
250,-0.2878659340645246
251,37854307.47067233
336,0.0
385,23.758509604854634
386,27.923533893374987
387,-0.9904624304226202
388,0.0
425,0.0
450,0.0
451,0.0
452,-1.6336302713940476
453,0.0
490,0.0
515,0.0
516,0.0
542,0.0
592,4811412.146064445
632,32784025.287830517
686,1.0
687,1.0
688,2.0
2,21, 1,21, 0, 7,40.00,50.00,Monday
250,-0.28782455569875665
251,37851347.96380219
336,0.0
385,23.758509604854634
386,27.923533893374987
387,-1.0115275068295455
388,0.0
425,0.0
450,0.0
451,0.0
452,-1.7035601545119445
453,0.0
490,0.0
515,0.0
516,0.0
542,0.0
592,4840723.5292954575
632,32751755.288982626
686,1.0
687,1.0
688,2.0
2,21, 1,21, 0, 7,50.00,60.00,Monday
250,-0.2877825510038315
251,37848386.24527767
336,0.0
385,23.758509604854634
386,27.923533893374987
387,-1.0347690204792945
388,0.0
425,0.0
450,0.0
451,0.0
452,-1.7799188090635047
453,0.0
490,0.0
515,0.0
516,0.0
542,0.0
592,4870050.865369484
632,32719466.56991797
686,1.0
687,1.0
688,2.0
2,21, 1,21, 0, 8, 0.00,10.00,Monday
250,-0.08747804173128809
251,37737594.521963075
336,0.0
385,23.758509604854634
386,27.923533893374987
387,-1.0308834718848334
388,0.0
425,0.0
450,0.0
451,0.0
452,-1.8388697393885678
453,0.0
490,0.0
515,0.0
516,0.0
542,0.0
592,4889730.300311493
632,32696823.875228483
686,1.0
687,1.0
688,2.0
2,21, 1,21, 0, 8,10.00,20.00,Monday
250,0.11293437813346788
251,37631989.955051586
336,0.0
385,23.758509604854634
386,27.923533893374987
387,-0.9893501541954192
388,0.0
425,0.0
450,0.0
451,0.0
452,-1.8300275422168892
453,0.0
490,0.0
515,0.0
516,0.0
542,0.0
592,4909380.719869503
632,32571633.600529157
686,1.0
687,1.0
688,2.0
2,21, 1,21, 0, 8,20.00,30.00,Monday
250,0.3118197897709325
251,37527301.91552896
336,0.0
385,23.758509604854634
386,27.923533893374987
387,-0.918346491746313
388,0.0
425,0.0
450,0.0
451,0.0
452,-1.722616340546233
453,0.0
490,0.0
515,0.0
516,0.0
542,0.0
592,4929009.6156952735
632,32446501.284368146
686,1.0
687,1.0
688,2.0
2,21, 1,21, 0, 8,30.00,40.00,Monday
250,0.5111351608973663
251,37422346.81742253
336,0.0
385,23.758509604854634
386,27.923533893374987
387,-0.8280640949798341
388,0.0
425,0.0
450,0.0
451,0.0
452,-1.5270223266828522
453,0.0
490,0.0
515,0.0
516,0.0
542,0.0
592,4952863.6467726575
632,32317930.50724042
686,1.0
687,1.0
688,2.0
2,21, 1,21, 0, 8,40.00,50.00,Monday
250,0.7105206157899475
251,37316948.06889294
336,0.0
385,23.758509604854634
386,27.923533893374987
387,-0.7264678222223377
388,0.0
425,0.0
450,0.0
451,0.0
452,-1.2514923478803577
453,0.0
490,0.0
515,0.0
516,0.0
542,0.0
592,4977062.298687916
632,32188376.54066358
686,1.0
687,1.0
688,2.0
2,21, 1,21, 0, 8,50.00,60.00,Monday
250,0.9104775409982248
251,37212173.56259867
336,0.0
385,23.758509604854634
386,27.923533893374987
387,-0.6305908822440758
388,0.0
425,0.0
450,0.0
451,0.0
452,-0.9385338541187576
453,0.0
490,0.0
515,0.0
516,0.0
542,0.0
592,5001395.306277512
632,32006324.43050852
686,1.0
687,1.0
688,2.0
2,21, 1,21, 0, 9, 0.00,10.00,Monday
250,1.1762542709316453
251,37072990.82743999
336,0.0
385,23.758509604854634
386,27.923533893374987
387,-0.4922112430882493
388,0.0
425,0.0
450,0.0
451,0.0
452,-0.4591237727964964
453,0.0
490,0.0
515,0.0
516,0.0
542,0.0
592,5029363.153609448
632,31855848.033302873
686,1.0
687,1.0
688,2.0
2,21, 1,21, 0, 9,10.00,20.00,Monday
250,1.4419101761229205
251,36932920.49808169
336,0.0
385,23.758509604854634
386,27.923533893374987
387,-0.3414333164580987
388,0.0
425,0.0
450,0.0
451,0.0
452,0.06510075519096876
453,0.0
490,0.0
515,0.0
516,0.0
542,0.0
592,5057356.862312016
632,31687756.730700172
686,1.0
687,1.0
688,2.0
2,21, 1,21, 0, 9,20.00,30.00,Monday
250,1.7076735578600166
251,36792787.70956972
336,0.0
385,23.758509604854634
386,27.923533893374987
387,-0.18152818337416143
388,0.0
425,0.0
450,0.0
451,0.0
452,0.6297990531431573
453,0.0
490,0.0
515,0.0
516,0.0
542,0.0
592,5085392.284952975
632,31519618.047003344
686,1.0
687,1.0
688,2.0
2,21, 1,21, 0, 9,30.00,40.00,Monday
250,1.973387320190565
251,36652679.633475274
336,0.0
385,23.758509604854634
386,27.923533893374987
387,-0.011773410836355852
388,0.0
425,0.0
450,0.0
451,0.0
452,1.2244339113842182
453,0.0
490,0.0
515,0.0
516,0.0
542,0.0
592,5113485.892141593
632,31351404.134993292
686,1.0
687,1.0
688,2.0
2,21, 1,21, 0, 9,40.00,50.00,Monday
250,2.2393210497932863
251,36511461.43726428
336,0.0
385,23.758509604854652
386,27.92353389337501
387,0.13340604169381687
388,0.0
425,0.0
450,0.0
451,0.0
452,1.7261492277049766
453,0.0
490,0.0
515,0.0
516,0.0
542,0.0
592,5141654.529350725
632,31158688.370297495
686,1.0000000000000009
687,1.0000000000000009
688,2.0000000000000018
2,21, 1,21, 0, 9,50.00,60.00,Monday
250,2.5053820602887864
251,36370630.79134588
336,0.0
385,23.758509604854634
386,27.923533893374987
387,0.285566176349485
388,0.0
425,0.0
450,0.0
451,0.0
452,2.266663514674187
453,0.0
490,0.0
515,0.0
516,0.0
542,0.0
592,5169915.672059796
632,31014291.642711125
686,1.0
687,1.0
688,2.0
2,21, 1,21, 0,10, 0.00,10.00,Monday
250,2.96867273281579
251,36124812.68161442
336,0.0
385,23.758509604854634
386,27.923533893374987
387,0.4760483758307522
388,0.0
425,0.0
450,0.0
451,0.0
452,2.8259793522914594
453,0.0
490,0.0
515,0.0
516,0.0
542,0.0
592,5241404.10703412
632,30707788.825889394
686,1.0
687,1.0
688,2.0
2,21, 1,21, 0,10,10.00,20.00,Monday
250,3.432845531352067
251,35879140.347385794
336,0.0
385,23.758509604854634
386,27.923533893374987
387,0.7670965543472748
388,0.0
425,0.0
450,0.0
451,0.0
452,3.5808770472371956
453,0.0
490,0.0
515,0.0
516,0.0
542,0.0
592,5315291.857316207
632,30387333.834986433
686,1.0
687,1.0
688,2.0
2,21, 1,21, 0,10,20.00,30.00,Monday
250,3.8972666316842943
251,35632066.26822814
336,0.0
385,23.758509604854623
386,27.923533893374973
387,1.0474768426680798
388,0.0
425,0.0
450,0.0
451,0.0
452,4.269814236898349
453,0.0
490,0.0
515,0.0
516,0.0
542,0.0
592,5391793.298050372
632,30063845.317813974
686,0.9999999999999996
687,0.9999999999999996
688,1.9999999999999991
2,21, 1,21, 0,10,30.00,40.00,Monday
250,4.361836475372478
251,35384778.30854159
336,0.0
385,23.758509604854645
386,27.923533893374994
387,1.3292359687813446
388,0.0
425,0.0
450,0.0
451,0.0
452,4.97169605539815
453,0.0
490,0.0
515,0.0
516,0.0
542,0.0
592,5471132.199313744
632,29737289.721258663
686,1.0000000000000004
687,1.0000000000000004
688,2.000000000000001
2,21, 1,21, 0,10,40.00,50.00,Monday
250,4.826614854279958
251,35137237.265746
336,0.0
385,23.758509604854652
386,27.92353389337501
387,1.6193673321746287
388,0.0
425,0.0
450,0.0
451,0.0
452,5.7357880310013964
453,0.0
490,0.0
515,0.0
516,0.0
542,0.0
592,5553542.3757593315
632,29407422.773772866
686,1.0000000000000009
687,1.0000000000000009
688,2.0000000000000018
2,21, 1,21, 0,10,50.00,60.00,Monday
250,5.291404764922925
251,34889542.55918157
336,0.0
385,23.758509604854652
386,27.92353389337501
387,1.9195847527458905
388,0.0
425,0.0
450,0.0
451,0.0
452,6.564842834049047
453,0.0
490,0.0
515,0.0
516,0.0
542,0.0
592,5639267.778995938
632,29074053.763510566
686,1.0000000000000009
687,1.0000000000000009
688,2.0000000000000018
2,21, 1,21, 0,11, 0.00,10.00,Monday
250,5.574891649789416
251,34738690.643666044
336,0.0
385,23.758509604854634
386,27.923533893374987
387,2.20608772540185
388,0.0
425,0.0
450,0.0
451,0.0
452,7.420061872884862
453,0.0
490,0.0
515,0.0
516,0.0
542,0.0
592,5689519.861596226
632,28840632.393877745
686,1.0
687,1.0
688,2.0
2,21, 1,21, 0,11,10.00,20.00,Monday
250,5.857709075909691
251,34588140.8498816
336,0.0
385,23.758509604854634
386,27.923533893374987
387,2.475853880741759
388,0.0
425,0.0
450,0.0
451,0.0
452,8.270582343661836
453,0.0
490,0.0
515,0.0
516,0.0
542,0.0
592,5740969.350869596
632,28638527.73430147
686,1.0
687,1.0
688,2.0
2,21, 1,21, 0,11,20.00,30.00,Monday
250,6.140579764094664
251,34437513.060965076
336,0.0
385,23.758509604854623
386,27.923533893374973
387,2.748012450055758
388,0.0
425,0.0
450,0.0
451,0.0
452,9.117186438224511
453,0.0
490,0.0
515,0.0
516,0.0
542,0.0
592,5793671.0952822175
632,28435224.344081946
686,0.9999999999999996
687,0.9999999999999996
688,1.9999999999999991
2,21, 1,21, 0,11,30.00,40.00,Monday
250,6.4232089582427925
251,34286962.59320329
336,0.0
385,23.758509604854645
386,27.923533893374994
387,3.0253462394192097
388,0.0
425,0.0
450,0.0
451,0.0
452,9.939025727326861
453,0.0
490,0.0
515,0.0
516,0.0
542,0.0
592,5847681.4279665835
632,28230637.558624342
686,1.0000000000000004
687,1.0000000000000004
688,2.000000000000001
2,21, 1,21, 0,11,40.00,50.00,Monday
250,6.705733865943774
251,34136414.416356675
336,0.0
385,23.758509604854652
386,27.92353389337501
387,3.3044537799443927
388,0.0
425,0.0
450,0.0
451,0.0
452,10.684577633266251
453,0.0
490,0.0
515,0.0
516,0.0
542,0.0
592,5903058.082199926
632,28024711.904780053
686,1.0000000000000009
687,1.0000000000000009
688,2.0000000000000018
2,21, 1,21, 0,11,50.00,60.00,Monday
250,6.988117780468083
251,33985886.85028332
336,0.0
385,23.758509604854652
386,27.92353389337501
387,3.581482631588313
388,0.0
425,0.0
450,0.0
451,0.0
452,11.32038527315069
453,0.0
490,0.0
515,0.0
516,0.0
542,0.0
592,5959860.237244541
632,27817375.248292103
686,1.0000000000000009
687,1.0000000000000009
688,2.0000000000000018
2,21, 1,21, 0,12, 0.00,10.00,Monday
250,7.2547863887444075
251,33843766.40764514
336,0.0
385,23.758509604854634
386,27.923533893374987
387,3.821486868756462
388,0.0
425,0.0
450,0.0
451,0.0
452,11.819504201884264
453,0.0
490,0.0
515,0.0
516,0.0
542,0.0
592,5991096.197635708
632,27666469.864354182
686,1.0
687,1.0
688,2.0
2,21, 1,21, 0,12,10.00,20.00,Monday
250,7.520019677454543
251,33705896.79321102
336,0.0
385,23.758509604854634
386,27.923533893374987
387,4.113879800768184
388,0.0
425,0.0
450,0.0
451,0.0
452,12.383494818130002
453,0.0
490,0.0
515,0.0
516,0.0
542,0.0
592,7572016.881221028
632,25945840.703342203
686,1.0
687,1.0
688,2.0
2,21, 1,21, 0,12,20.00,30.00,Monday
250,7.7859705733200695
251,33565922.431706935
336,0.0
385,23.758509604854634
386,27.923533893374987
387,4.383002452375332
388,0.0
425,0.0
450,0.0
451,0.0
452,12.898585764212068
453,0.0
490,0.0
515,0.0
516,0.0
542,0.0
592,7609409.155487608
632,25768658.28156959
686,1.0
687,1.0
688,2.0
2,21, 1,21, 0,12,30.00,40.00,Monday
250,8.051832127724913
251,33425997.60490635
336,0.0
385,23.758509604854634
386,27.923533893374987
387,4.64182164760847
388,0.0
425,0.0
450,0.0
451,0.0
452,13.390333401668258
453,0.0
490,0.0
515,0.0
516,0.0
542,0.0
592,7646583.592010483
632,25591534.8228747
686,1.0
687,1.0
688,2.0
2,21, 1,21, 0,12,40.00,50.00,Monday
250,8.317662376304419
251,33286089.34949504
336,0.0
385,23.758509604854634
386,27.923533893374987
387,4.896252864179542
388,0.0
425,0.0
450,0.0
451,0.0
452,13.832340108435115
453,0.0
490,0.0
515,0.0
516,0.0
542,0.0
592,7683540.190789655
632,25414661.698376425
686,1.0
687,1.0
688,2.0
2,21, 1,21, 0,12,50.00,60.00,Monday
250,8.583483020103547
251,33146185.489036523
336,0.0
385,23.758509604854634
386,27.923533893374987
387,5.145204018246988
388,0.0
425,0.0
450,0.0
451,0.0
452,14.200125501002855
453,0.0
490,0.0
515,0.0
516,0.0
542,0.0
592,7720278.951825122
632,25238016.976456694
686,1.0
687,1.0
688,2.0
2,21, 1,21, 0,13, 0.00,10.00,Monday
250,8.76642511574874
251,33047545.00441259
336,0.0
385,23.758509604854634
386,27.923533893374987
387,5.3775965346312
388,0.0
425,0.0
450,0.0
451,0.0
452,14.49137077087244
453,0.0
490,0.0
515,0.0
516,0.0
542,0.0
592,7745410.487127085
632,25139883.97254227
686,1.0
687,1.0
688,2.0
2,21, 1,21, 0,13,10.00,20.00,Monday
250,8.948953889220954
251,32953090.588793237
336,0.0
385,23.758509604854634
386,27.923533893374987
387,5.596390549235796
388,0.0
425,0.0
450,0.0
451,0.0
452,14.720629834910213
453,0.0
490,0.0
515,0.0
516,0.0
542,0.0
592,7770439.060057994
632,25022282.362933517
686,1.0
687,1.0
688,2.0
2,21, 1,21, 0,13,20.00,30.00,Monday
250,9.132029785756036
251,32858451.32332533
336,0.0
385,23.758509604854634
386,27.923533893374987
387,5.801299424399593
388,0.0
425,0.0
450,0.0
451,0.0
452,14.90381211729777
453,0.0
490,0.0
515,0.0
516,0.0
542,0.0
592,7795364.6706178645
632,24903025.370986644
686,1.0
687,1.0
688,2.0
2,21, 1,21, 0,13,30.00,40.00,Monday
250,9.314938140659033
251,32763932.06657161
336,0.0
385,23.758509604854634
386,27.923533893374987
387,5.996342899640925
388,0.0
425,0.0
450,0.0
451,0.0
452,15.052683626234028
453,0.0
490,0.0
515,0.0
516,0.0
542,0.0
592,7820187.318806683
632,24783605.742456093
686,1.0
687,1.0
688,2.0
2,21, 1,21, 0,13,40.00,50.00,Monday
250,9.497852503449305
251,32669443.105794907
336,0.0
385,23.758509604854634
386,27.923533893374987
387,6.185271246253129
388,0.0
425,0.0
450,0.0
451,0.0
452,15.172012153099608
453,0.0
490,0.0
515,0.0
516,0.0
542,0.0
592,7844907.00462445
632,24664413.238933805
686,1.0
687,1.0
688,2.0
2,21, 1,21, 0,13,50.00,60.00,Monday
250,9.680759873063
251,32574991.070239063
336,0.0
385,23.758509604854634
386,27.923533893374987
387,6.369384557444062
388,0.0
425,0.0
450,0.0
451,0.0
452,15.265431480756765
453,0.0
490,0.0
515,0.0
516,0.0
542,0.0
592,7869523.72807117
632,24545353.78147591
686,1.0
687,1.0
688,2.0
2,21, 1,21, 0,14, 0.00,10.00,Monday
250,9.880672723321364
251,32471387.39787868
336,0.0
385,23.758509604854634
386,27.923533893374987
387,6.551521684224102
388,0.0
425,0.0
450,0.0
451,0.0
452,15.321540858344317
453,0.0
490,0.0
515,0.0
516,0.0
542,0.0
592,7896260.907308879
632,24424211.11397046
686,1.0
687,1.0
688,2.0
2,21, 1,21, 0,14,10.00,20.00,Monday
250,10.08018418337497
251,32367604.458527744
336,0.0
385,23.758509604854634
386,27.923533893374987
387,6.731814336943132
388,0.0
425,0.0
450,0.0
451,0.0
452,15.322020830724739
453,0.0
490,0.0
515,0.0
516,0.0
542,0.0
592,7922875.552815756
632,24293609.971697643
686,1.0
687,1.0
688,2.0
2,21, 1,21, 0,14,20.00,30.00,Monday
250,10.279569430402313
251,32263902.478259742
336,0.0
385,23.758509604854634
386,27.923533893374987
387,6.908104888137908
388,0.0
425,0.0
450,0.0
451,0.0
452,15.2664041449559
453,0.0
490,0.0
515,0.0
516,0.0
542,0.0
592,7949367.664591794
632,24163361.064027138
686,1.0
687,1.0
688,2.0
2,21, 1,21, 0,14,30.00,40.00,Monday
250,10.478871040751049
251,32160270.816433527
336,0.0
385,23.758509604854634
386,27.923533893374987
387,7.074441302148739
388,0.0
425,0.0
450,0.0
451,0.0
452,15.144165688546826
453,0.0
490,0.0
515,0.0
516,0.0
542,0.0
592,7975737.242637001
632,24033328.16991988
686,1.0
687,1.0
688,2.0
2,21, 1,21, 0,14,40.00,50.00,Monday
250,10.67809789463378
251,32056701.471131288
336,0.0
385,23.758509604854634
386,27.923533893374987
387,7.227129877481883
388,0.0
425,0.0
450,0.0
451,0.0
452,14.935584477605902
453,0.0
490,0.0
515,0.0
516,0.0
542,0.0
592,8001984.286951372
632,23903485.077937834
686,1.0
687,1.0
688,2.0
2,21, 1,21, 0,14,50.00,60.00,Monday
250,10.87727244199058
251,31953182.84811046
336,0.0
385,23.758509604854634
386,27.923533893374987
387,7.366460753299717
388,0.0
425,0.0
450,0.0
451,0.0
452,14.643699336188158
453,0.0
490,0.0
515,0.0
516,0.0
542,0.0
592,8028108.797534915
632,23773827.532738946
686,1.0
687,1.0
688,2.0
2,21, 1,21, 0,15, 0.00,10.00,Monday
250,11.142895599741037
251,31814501.549508136
336,0.0
385,23.758509604854634
386,27.923533893374987
387,7.487436361181561
388,0.0
425,0.0
450,0.0
451,0.0