Program Version,EnergyPlus, Version 24.2.0-94a887817b, YMD=2025.02.04 15:39
1,5,Environment Title[],Latitude[deg],Longitude[deg],Time Zone[],Elevation[m]
2,8,Day of Simulation[],Month[],Day of Month[],DST Indicator[1=yes 0=no],Hour[],StartMinute[],EndMinute[],DayType
3,5,Cumulative Day of Simulation[],Month[],Day of Month[],DST Indicator[1=yes 0=no],DayType  ! When Daily Meters Requested
4,2,Cumulative Days of Simulation[],Month[]  ! When Monthly Meters Requested
5,1,Cumulative Days of Simulation[] ! When Run Period Meters Requested
6,1,Calendar Year of Simulation[] ! When Annual Meters Requested
11,9,Electricity:Facility [J] !Monthly [Value,Min,Day,Hour,Minute,Max,Day,Hour,Minute]
23,9,Electricity:Building [J] !Monthly [Value,Min,Day,Hour,Minute,Max,Day,Hour,Minute]
59,9,InteriorLights:Electricity [J] !Monthly [Value,Min,Day,Hour,Minute,Max,Day,Hour,Minute]
521,9,Electricity:HVAC [J] !Monthly [Value,Min,Day,Hour,Minute,Max,Day,Hour,Minute]
637,9,NaturalGas:Facility [J] !Monthly [Value,Min,Day,Hour,Minute,Max,Day,Hour,Minute]
649,9,NaturalGas:HVAC [J] !Monthly [Value,Min,Day,Hour,Minute,Max,Day,Hour,Minute]
13,11,Electricity:Facility [J] !RunPeriod [Value,Min,Month,Day,Hour,Minute,Max,Month,Day,Hour,Minute]
25,11,Electricity:Building [J] !RunPeriod [Value,Min,Month,Day,Hour,Minute,Max,Month,Day,Hour,Minute]
61,11,InteriorLights:Electricity [J] !RunPeriod [Value,Min,Month,Day,Hour,Minute,Max,Month,Day,Hour,Minute]
523,11,Electricity:HVAC [J] !RunPeriod [Value,Min,Month,Day,Hour,Minute,Max,Month,Day,Hour,Minute]
639,11,NaturalGas:Facility [J] !RunPeriod [Value,Min,Month,Day,Hour,Minute,Max,Month,Day,Hour,Minute]
651,11,NaturalGas:HVAC [J] !RunPeriod [Value,Min,Month,Day,Hour,Minute,Max,Month,Day,Hour,Minute]
End of Data Dictionary
1,RUN PERIOD 1,  41.98, -87.92,  -6.00, 201.00
4,31, 1
11,9828176397.374372,408891.4285714286, 5, 6,50,2983187.9471317027,16,13,60
23,989126296.143361,30000.0, 1, 1,10,613714.7073502777, 1, 9,10
59,970200000.0,30000.0, 1, 1,10,600000.0, 1, 8,10
521,8839050101.230986,378891.4285714286, 5, 6,50,2369473.239781425,16,13,60
637,179099839248.34818,28295611.48850988,21,16,10,41250000.0, 1, 1,10
649,179099839248.34818,28295611.48850988,21,16,10,41250000.0, 1, 1,10
4,59, 2
11,9360993769.884203,99999999999999.0, 5, 6,50,3024649.3873948245,22,15,30
23,864617648.8203151,99999999999999.0, 1, 1,10,-99999999999999.0, 1, 9,10
59,848160000.0,99999999999999.0, 1, 1,10,-99999999999999.0, 1, 8,10
521,8496376121.063895,99999999999999.0, 5, 6,50,2410934.680044547,22,15,30
637,158505774169.71124,26605599.3629031,23,12,10,-99999999999999.0, 1, 1,10
649,158505774169.71124,26605599.3629031,23,12,10,-99999999999999.0, 1, 1,10
4,90, 3
11,11016945498.510117,99999999999999.0, 5, 6,50,3271255.156846064,27,16,10
23,914760531.2613304,99999999999999.0, 1, 1,10,-99999999999999.0, 1, 9,10
59,897480000.0,99999999999999.0, 1, 1,10,-99999999999999.0, 1, 8,10
521,10102184967.248724,99999999999999.0, 5, 6,50,2657540.449495787,27,16,10
637,163044171816.04654,21080849.604458604,27,16,10,-99999999999999.0, 1, 1,10
649,163044171816.04654,21080849.604458604,27,16,10,-99999999999999.0, 1, 1,10
4,120, 4
11,10240859785.514292,30000.0,11,19,10,3356259.212695935,11,15,40
23,947680087.9387035,99999999999999.0, 1, 1,10,-99999999999999.0, 1, 9,10
59,929520000.0,99999999999999.0, 1, 1,10,-99999999999999.0, 1, 8,10
521,9293179697.575554,0.0,11,15,50,2742544.505345657,11,15,40
637,126976223401.80196,0.0,11,15,50,-99999999999999.0, 1, 1,10
649,126976223401.80196,0.0,11,15,50,-99999999999999.0, 1, 1,10
4,151, 5
11,10327502320.749521,99999999999999.0,11,19,10,-99999999999999.0,11,15,40
23,989442709.0444988,99999999999999.0, 1, 1,10,629636.0542341134,28,13,10
59,970200000.0,99999999999999.0, 1, 1,10,-99999999999999.0, 1, 8,10
521,9338059611.704947,99999999999999.0,11,15,50,-99999999999999.0,11,15,40
637,105538075447.72911,99999999999999.0,11,15,50,-99999999999999.0, 1, 1,10
649,105538075447.72911,99999999999999.0,11,15,50,-99999999999999.0, 1, 1,10
4,181, 6
11,8759863034.736912,99999999999999.0,11,19,10,-99999999999999.0,11,15,40
23,873368623.6365817,99999999999999.0, 1, 1,10,-99999999999999.0,28,13,10
59,856800000.0,99999999999999.0, 1, 1,10,-99999999999999.0, 1, 8,10
521,7886494411.100259,99999999999999.0,11,15,50,-99999999999999.0,11,15,40
637,62077661846.02532,99999999999999.0,11,15,50,-99999999999999.0, 1, 1,10
649,62077661846.02532,99999999999999.0,11,15,50,-99999999999999.0, 1, 1,10
4,212, 7
11,8217668191.666691,99999999999999.0,11,19,10,-99999999999999.0,11,15,40
23,989404066.7787125,99999999999999.0, 1, 1,10,-99999999999999.0,28,13,10
59,970200000.0,99999999999999.0, 1, 1,10,-99999999999999.0, 1, 8,10
521,7228264124.887854,99999999999999.0,11,15,50,-99999999999999.0,11,15,40
637,38812979055.0903,99999999999999.0,11,15,50,-99999999999999.0, 1, 1,10
649,38812979055.0903,99999999999999.0,11,15,50,-99999999999999.0, 1, 1,10
4,243, 8
11,8622860235.796677,99999999999999.0,11,19,10,-99999999999999.0,11,15,40
23,952226951.266631,99999999999999.0, 1, 1,10,629736.5589326532,12,14,10
59,933840000.0,99999999999999.0, 1, 1,10,-99999999999999.0, 1, 8,10
521,7670633284.529924,99999999999999.0,11,15,50,-99999999999999.0,11,15,40
637,59079958991.24236,99999999999999.0,11,15,50,-99999999999999.0, 1, 1,10
649,59079958991.24236,99999999999999.0,11,15,50,-99999999999999.0, 1, 1,10
4,273, 9
11,9933630128.4124,99999999999999.0,11,19,10,-99999999999999.0,11,15,40
23,910440531.2613304,99999999999999.0, 1, 1,10,-99999999999999.0,12,14,10
59,893160000.0,99999999999999.0, 1, 1,10,-99999999999999.0, 1, 8,10
521,9023189597.151014,99999999999999.0,11,15,50,-99999999999999.0,11,15,40
637,88636701749.93137,99999999999999.0,11,15,50,-99999999999999.0, 1, 1,10
649,88636701749.93137,99999999999999.0,11,15,50,-99999999999999.0, 1, 1,10
4,304,10
11,11076500250.564445,99999999999999.0,11,19,10,-99999999999999.0,11,15,40
23,989199468.42223,99999999999999.0, 1, 1,10,632467.0275837394,22,16,10
59,970200000.0,99999999999999.0, 1, 1,10,-99999999999999.0, 1, 8,10
521,10087300782.142153,99999999999999.0,11,15,50,-99999999999999.0,11,15,40
637,132809545899.68835,99999999999999.0,11,15,50,-99999999999999.0, 1, 1,10
649,132809545899.68835,99999999999999.0,11,15,50,-99999999999999.0, 1, 1,10
4,334,11
11,10660816901.712246,99999999999999.0,11,19,10,-99999999999999.0,11,15,40
23,910440531.2613304,99999999999999.0, 1, 1,10,-99999999999999.0,22,16,10
59,893160000.0,99999999999999.0, 1, 1,10,-99999999999999.0, 1, 8,10
521,9750376370.450888,99999999999999.0,11,15,50,-99999999999999.0,11,15,40
637,149505934670.958,99999999999999.0,11,15,50,-99999999999999.0, 1, 1,10
649,149505934670.958,99999999999999.0,11,15,50,-99999999999999.0, 1, 1,10
4,365,12
11,10440894034.086157,99999999999999.0,11,19,10,-99999999999999.0,11,15,40
23,951943413.7023456,99999999999999.0, 1, 1,10,-99999999999999.0,22,16,10
59,933840000.0,99999999999999.0, 1, 1,10,-99999999999999.0, 1, 8,10
521,9488950620.383821,99999999999999.0,11,15,50,-99999999999999.0,11,15,40
637,179945012121.98413,99999999999999.0,11,15,50,-99999999999999.0, 1, 1,10
649,179945012121.98413,99999999999999.0,11,15,50,-99999999999999.0, 1, 1,10
5,365
13,118486710549.016,30000.0, 4,11,19,10,3356259.212695935, 4,11,15,40
25,11282650859.538319,30000.0, 1, 1, 1,10,632467.0275837394,10,22,16,10
61,11066760000.0,30000.0, 1, 1, 1,10,600000.0, 1, 1, 8,10
523,107204059689.47652,0.0, 4,11,15,50,2742544.505345657, 4,11,15,40
639,1444031878418.5684,0.0, 4,11,15,50,41250000.0, 1, 1, 1,10
651,1444031878418.5684,0.0, 4,11,15,50,41250000.0, 1, 1, 1,10
1,RUN PERIOD 2,  41.98, -87.92,  -6.00, 201.00
4,1, 7
11,288892379.36291206,99999999999999.0,11,19,10,-99999999999999.0,11,15,40
23,41502882.441016614,99999999999999.0, 1, 1,10,-99999999999999.0,22,16,10
59,40680000.0,99999999999999.0, 1, 1,10,-99999999999999.0, 1, 8,10
521,247389496.92189527,99999999999999.0,11,15,50,-99999999999999.0,11,15,40
637,1525829460.6412654,99999999999999.0,11,15,50,-99999999999999.0, 1, 1,10
649,1525829460.6412654,99999999999999.0,11,15,50,-99999999999999.0, 1, 1,10
5,1
13,288892379.36291206,99999999999999.0, 4,11,19,10,-99999999999999.0, 4,11,15,40
25,41502882.441016614,99999999999999.0, 1, 1, 1,10,-99999999999999.0,10,22,16,10
61,40680000.0,99999999999999.0, 1, 1, 1,10,-99999999999999.0, 1, 1, 8,10
523,247389496.92189527,99999999999999.0, 4,11,15,50,-99999999999999.0, 4,11,15,40
639,1525829460.6412654,99999999999999.0, 4,11,15,50,-99999999999999.0, 1, 1, 1,10
651,1525829460.6412654,99999999999999.0, 4,11,15,50,-99999999999999.0, 1, 1, 1,10
End of Data
 Number of Records Written=          90
