Program Version,EnergyPlus, Version 24.2.0-94a887817b, YMD=2025.02.04 15:39
1,5,Environment Title[],Latitude[deg],Longitude[deg],Time Zone[],Elevation[m]
2,8,Day of Simulation[],Month[],Day of Month[],DST Indicator[1=yes 0=no],Hour[],StartMinute[],EndMinute[],DayType
3,5,Cumulative Day of Simulation[],Month[],Day of Month[],DST Indicator[1=yes 0=no],DayType  ! When Daily Report Variables Requested
4,2,Cumulative Days of Simulation[],Month[]  ! When Monthly Report Variables Requested
5,1,Cumulative Days of Simulation[] ! When Run Period Report Variables Requested
6,1,Calendar Year of Simulation[] ! When Annual Report Variables Requested
250,1,LIVING ZONE,Zone Air Temperature [C] !TimeStep,REPORTSCH
251,1,LIVING ZONE,Zone Air System Sensible Heating Energy [J] !TimeStep,REPORTSCH
336,1,LIVING ZONE,Zone Air System Sensible Cooling Energy [J] !TimeStep,REPORTSCH
385,1,LIVING ZONE,Zone Thermostat Heating Setpoint Temperature [C] !TimeStep,REPORTSCH
386,1,LIVING ZONE,Zone Thermostat Cooling Setpoint Temperature [C] !TimeStep,REPORTSCH
387,1,GARAGE ZONE,Zone Air Temperature [C] !TimeStep,REPORTSCH
388,1,GARAGE ZONE,Zone Air System Sensible Heating Energy [J] !TimeStep,REPORTSCH
425,1,GARAGE ZONE,Zone Air System Sensible Cooling Energy [J] !TimeStep,REPORTSCH
450,1,GARAGE ZONE,Zone Thermostat Heating Setpoint Temperature [C] !TimeStep,REPORTSCH
451,1,GARAGE ZONE,Zone Thermostat Cooling Setpoint Temperature [C] !TimeStep,REPORTSCH
452,1,ATTIC ZONE,Zone Air Temperature [C] !TimeStep,REPORTSCH
453,1,ATTIC ZONE,Zone Air System Sensible Heating Energy [J] !TimeStep,REPORTSCH
490,1,ATTIC ZONE,Zone Air System Sensible Cooling Energy [J] !TimeStep,REPORTSCH
515,1,ATTIC ZONE,Zone Thermostat Heating Setpoint Temperature [C] !TimeStep,REPORTSCH
516,1,ATTIC ZONE,Zone Thermostat Cooling Setpoint Temperature [C] !TimeStep,REPORTSCH
542,1,ACDXCOIL 1,Cooling Coil Total Cooling Energy [J] !TimeStep,REPORTSCH
592,1,HEAT PUMP DX HEATING COIL 1,Heating Coil Heating Energy [J] !TimeStep,REPORTSCH
632,1,SUPP HEATING COIL 1,Heating Coil Heating Energy [J] !TimeStep,REPORTSCH
686,1,TWOSPEED HEAT PUMP 1,Unitary System DX Coil Cycling Ratio [] !TimeStep,REPORTSCH
687,1,TWOSPEED HEAT PUMP 1,Unitary System DX Coil Speed Ratio [] !TimeStep,REPORTSCH
688,1,TWOSPEED HEAT PUMP 1,Unitary System DX Coil Speed Level [] !TimeStep,REPORTSCH
End of Data Dictionary
1,RUN PERIOD 1,  41.98, -87.92,  -6.00, 201.00
2,21, 1,21, 0, 1, 0.00,10.00,Monday
250,1.6289236000905567
251,36803481.3809395
336,0.0
385,17.352507773575912
386,27.562889490005656
387,-0.8943858861091241
388,0.0
425,0.0
450,0.0
451,0.0
452,-1.9194464025182385
453,0.0
490,0.0
515,0.0
516,0.0
542,0.0
592,4839743.985079642
632,31710333.79024965
686,1.0
687,1.0
688,2.0
2,21, 1,21, 0, 1,10.00,20.00,Monday
250,1.6295942038927307
251,36804553.34620425
336,0.0
385,17.352507773575912
386,27.562889490005656
387,-0.9028846764554258
388,0.0
425,0.0
450,0.0
451,0.0
452,-1.901466534598672
453,0.0
490,0.0
515,0.0
516,0.0
542,0.0
592,4823801.676011793
632,31722221.23514043
686,1.0
687,1.0
688,2.0
2,21, 1,21, 0, 1,20.00,30.00,Monday
250,1.6285231076645947
251,36806773.61169823
336,0.0
385,17.352507773575912
386,27.562889490005656
387,-0.9125755696431487
388,0.0
425,0.0
450,0.0
451,0.0
452,-1.8982014874787299
453,0.0
490,0.0
515,0.0
516,0.0
542,0.0
592,4807858.162905221
632,31739447.411404908
686,1.0
687,1.0
688,2.0
2,21, 1,21, 0, 1,30.00,40.00,Monday
250,1.6279031611377968
251,36808701.546461724
336,0.0
385,17.352507773575912
386,27.562889490005656
387,-0.9236653963995617
388,0.0
425,0.0
450,0.0
451,0.0
452,-1.9108357077542544
453,0.0
490,0.0
515,0.0
516,0.0
542,0.0
592,4791913.445623511
632,31757562.918765943
686,1.0
687,1.0
688,2.0
2,21, 1,21, 0, 1,40.00,50.00,Monday
250,1.627309366114272
251,36810614.27653556
336,0.0
385,17.352507773575912
386,27.562889490005656
387,-0.9363128285054376
388,0.0
425,0.0
450,0.0
451,0.0
452,-1.937799249039749
453,0.0
490,0.0
515,0.0
516,0.0
542,0.0
592,4775967.524030239
632,31775435.63548274
686,1.0
687,1.0
688,2.0
2,21, 1,21, 0, 1,50.00,60.00,Monday
250,1.6266747862496727
251,36812554.36381771
336,0.0
385,17.352507773575912
386,27.562889490005656
387,-0.9507068853341457
388,0.0
425,0.0
450,0.0
451,0.0
452,-1.9775018677238838
453,0.0
490,0.0
515,0.0
516,0.0
542,0.0
592,4760020.397988958
632,31793300.876153503
686,1.0
687,1.0
688,2.0
2,21, 1,21, 0, 2, 0.00,10.00,Monday
250,1.626058239090143
251,36814485.12016545
336,0.0
385,17.352507773575912
386,27.562889490005656
387,-0.9661905187852954
388,0.0
425,0.0
450,0.0
451,0.0
452,-2.023939447353488
453,0.0
490,0.0
515,0.0
516,0.0
542,0.0
592,4760020.397988958
632,31795241.32698671
686,1.0
687,1.0
688,2.0
2,21, 1,21, 0, 2,10.00,20.00,Monday
250,1.6253616747157804
251,36815026.91117817
336,0.0
385,17.352507773575912
386,27.562889490005656
387,-0.9818487014988366
388,0.0
425,0.0
450,0.0
451,0.0
452,-2.0664420951719813
453,0.0
490,0.0
515,0.0
516,0.0
542,0.0
592,4760020.397988958
632,31795740.03274452
686,1.0
687,1.0
688,2.0
2,21, 1,21, 0, 2,20.00,30.00,Monday
250,1.6246496778154413
251,36815364.84208402
336,0.0
385,17.352507773575912
386,27.562889490005656
387,-0.9971402265208946
388,0.0
425,0.0
450,0.0
451,0.0
452,-2.0978122677989472
453,0.0
490,0.0
515,0.0
516,0.0
542,0.0
592,4760020.397988958
632,31796069.65477259
686,1.0
687,1.0
688,2.0
2,21, 1,21, 0, 2,30.00,40.00,Monday
250,1.6239574036311473
251,36815741.48461137
336,0.0
385,17.352507773575912
386,27.562889490005656
387,-1.0117448228946322
388,0.0
425,0.0
450,0.0
451,0.0
452,-2.117199378791831
453,0.0
490,0.0
515,0.0
516,0.0
542,0.0
592,4760020.397988958
632,31796456.91656965
686,1.0
687,1.0
688,2.0
2,21, 1,21, 0, 2,40.00,50.00,Monday
250,1.6232787794902532
251,36816112.1057013
336,0.0
385,17.352507773575912
386,27.562889490005656
387,-1.0255194409115775
388,0.0
425,0.0
450,0.0
451,0.0
452,-2.127411323026344
453,0.0
490,0.0
515,0.0
516,0.0
542,0.0
592,4760020.397988958
632,31796834.88720631
686,1.0
687,1.0
688,2.0
2,21, 1,21, 0, 2,50.00,60.00,Monday
250,1.622613575754389
251,36816470.256186895
336,0.0
385,17.352507773575912
386,27.562889490005656
387,-1.038423972057401
388,0.0
425,0.0
450,0.0
451,0.0
452,-2.1315531335807476
453,0.0
490,0.0
515,0.0
516,0.0
542,0.0
592,4760020.397988958
632,31797200.26364743
686,1.0
687,1.0
688,2.0
2,21, 1,21, 0, 3, 0.00,10.00,Monday
250,1.6964742426622446
251,36776701.17146369
336,0.0
385,17.352507773575912
386,27.562889490005656
387,-1.0401030361479122
388,0.0
425,0.0
450,0.0
451,0.0
452,-2.1242151474092617
453,0.0
490,0.0
515,0.0
516,0.0
542,0.0
592,4762558.894114006
632,31795019.684209175
686,1.0
687,1.0
688,2.0
2,21, 1,21, 0, 3,10.00,20.00,Monday
250,1.7786515368396754
251,36733810.47288837
336,0.0
385,17.352507773575912
386,27.562889490005656
387,-1.0293148628418558
388,0.0
425,0.0
450,0.0
451,0.0
452,-2.099550868000573
453,0.0
490,0.0
515,0.0
516,0.0
542,0.0
592,4764988.4357309695
632,31754179.0032233
686,1.0
687,1.0
688,2.0
2,21, 1,21, 0, 3,20.00,30.00,Monday
250,1.8579099146204143
251,36692697.97826522
336,0.0
385,17.352507773575912
386,27.562889490005656
387,-1.0105136770723397
388,0.0
425,0.0
450,0.0
451,0.0
452,-2.0560377538350645
453,0.0
490,0.0
515,0.0
516,0.0
542,0.0
592,4767308.250738333
632,31709176.821356393
686,1.0
687,1.0
688,2.0
2,21, 1,21, 0, 3,30.00,40.00,Monday
250,1.9373103466701354
251,36651469.03931657
336,0.0
385,17.352507773575912
386,27.562889490005656
387,-0.9874946008793931
388,0.0
425,0.0
450,0.0
451,0.0
452,-1.9967098154397978
453,0.0
490,0.0
515,0.0
516,0.0
542,0.0
592,4769517.689516207
632,31665816.716351215
686,1.0
687,1.0
688,2.0
2,21, 1,21, 0, 3,40.00,50.00,Monday
250,2.0168549074264552
251,36610167.68089569
336,0.0
385,17.352507773575912
386,27.562889490005656
387,-0.9615557252786335
388,0.0
425,0.0
450,0.0
451,0.0
452,-1.926008175593183
453,0.0
490,0.0
515,0.0
516,0.0
542,0.0
592,4771616.115684973
632,31622496.33822171
686,1.0
687,1.0
688,2.0
2,21, 1,21, 0, 3,50.00,60.00,Monday
250,2.0967214684748625
251,36568704.32479182
336,0.0
385,17.352507773575912
386,27.562889490005656
387,-0.9325147792179561
388,0.0
425,0.0
450,0.0
451,0.0
452,-1.8475671962197378
453,0.0
490,0.0
515,0.0
516,0.0
542,0.0
592,4773602.736238396
632,31579221.58328258
686,1.0
687,1.0
688,2.0
2,21, 1,21, 0, 4, 0.00,10.00,Monday
250,2.102115436375042
251,36567355.947938584
336,0.0
385,17.352507773575912
386,27.562889490005656
387,-0.9109034966980178
388,0.0
425,0.0
450,0.0
451,0.0
452,-1.7716297729232462
453,0.0
490,0.0
515,0.0
516,0.0
542,0.0
592,4773428.982371633
632,31537940.533895575
686,1.0
687,1.0
688,2.0
2,21, 1,21, 0, 4,10.00,20.00,Monday
250,2.0995206839586356
251,36568949.7307477
336,0.0
385,17.352507773575912
386,27.562889490005656
387,-0.8991658634257212
388,0.0
425,0.0
450,0.0
451,0.0
452,-1.707167809322678
453,0.0
490,0.0
515,0.0
516,0.0
542,0.0
592,4773255.169447958
632,31535405.68499841
686,1.0
687,1.0
688,2.0
2,21, 1,21, 0, 4,20.00,30.00,Monday
250,2.100148019254454
251,36568605.99150237
336,0.0
385,17.352507773575912
386,27.562889490005656
387,-0.8936958120727614
388,0.0
425,0.0
450,0.0
451,0.0
452,-1.6578496853948474
453,0.0
490,0.0
515,0.0
516,0.0
542,0.0
592,4773081.297437258
632,31536971.127456386
686,1.0
687,1.0
688,2.0
2,21, 1,21, 0, 4,30.00,40.00,Monday
250,2.1006251926220894
251,36568389.97573624
336,0.0
385,17.352507773575912
386,27.562889490005656
387,-0.8907395528512336
388,0.0
425,0.0
450,0.0
451,0.0
452,-1.6221354414461635
453,0.0
490,0.0
515,0.0
516,0.0
542,0.0
592,4772907.3663094025
632,31536848.17087694
686,1.0
687,1.0
688,2.0
2,21, 1,21, 0, 4,40.00,50.00,Monday
250,2.1008036311176292
251,36568336.170896165
336,0.0
385,17.352507773575912
386,27.562889490005656
387,-0.888654080789337
388,0.0
425,0.0
450,0.0
451,0.0
452,-1.596397273137482
453,0.0
490,0.0
515,0.0
516,0.0
542,0.0
592,4772733.376034233
632,31536807.467558857
686,1.0
687,1.0
688,2.0
2,21, 1,21, 0, 4,50.00,60.00,Monday
250,2.100989988742852
251,36568273.13150659
336,0.0
385,17.352507773575912
386,27.562889490005656
387,-0.8873368696601567
388,0.0
425,0.0
450,0.0
451,0.0
452,-1.5775368020479041
453,0.0
490,0.0
515,0.0
516,0.0
542,0.0
592,4772559.326581573
632,31536922.742714424
686,1.0
687,1.0
688,2.0
2,21, 1,21, 0, 5, 0.00,10.00,Monday
250,2.101166447845144
251,36568215.20935486
336,0.0
385,17.352507773575912
386,27.562889490005656
387,-0.8868611783812127
388,0.0
425,0.0
450,0.0
451,0.0
452,-1.5629111291204165
453,0.0
490,0.0
515,0.0
516,0.0
542,0.0
592,4759720.858689582
632,31549697.957517747
686,1.0
687,1.0
688,2.0
2,21, 1,21, 0, 5,10.00,20.00,Monday
250,2.1014048034742223
251,36569238.56145915
336,0.0
385,17.352507773575912
386,27.562889490005656
387,-0.8870857709109276
388,0.0
425,0.0
450,0.0
451,0.0
452,-1.5502100476742615
453,0.0
490,0.0
515,0.0
516,0.0
542,0.0
592,4746877.262331866
632,31563598.245580945
686,1.0
687,1.0
688,2.0
2,21, 1,21, 0, 5,20.00,30.00,Monday
250,2.101658394377234
251,36570419.428055145
336,0.0
385,17.352507773575912
386,27.562889490005656
387,-0.8877759956288432
388,0.0
425,0.0
450,0.0
451,0.0
452,-1.5380279693675913
453,0.0
490,0.0
515,0.0
516,0.0
542,0.0
592,4734028.534436013
632,31577636.050499823
686,1.0
687,1.0
688,2.0
2,21, 1,21, 0, 5,30.00,40.00,Monday
250,2.101907344118429
251,36571564.96226167
336,0.0
385,17.352507773575912
386,27.562889490005656
387,-0.8887291574204594
388,0.0
425,0.0
450,0.0
451,0.0
452,-1.5259168110825625
453,0.0
490,0.0
515,0.0
516,0.0
542,0.0
592,4721174.671927155
632,31591632.95215173
686,1.0
687,1.0
688,2.0
2,21, 1,21, 0, 5,40.00,50.00,Monday
250,2.1021580177793173
251,36572709.02837851
336,0.0
385,17.352507773575912
386,27.562889490005656
387,-0.8898130845233909
388,0.0
425,0.0
450,0.0
451,0.0
452,-1.5139328634551226
453,0.0
490,0.0
515,0.0
516,0.0
542,0.0
592,4708315.671727969
632,31605636.95173514
686,1.0
687,1.0
688,2.0
2,21, 1,21, 0, 5,50.00,60.00,Monday
250,2.1024156469991473
251,36573853.92786119
336,0.0
385,17.352507773575912
386,27.562889490005656
387,-0.8909515199611797
388,0.0
425,0.0
450,0.0
451,0.0
452,-1.502228207217567
453,0.0
490,0.0
515,0.0
516,0.0
542,0.0
592,4695451.530758674
632,31619649.74362218
686,1.0
687,1.0
688,2.0
2,21, 1,21, 0, 6, 0.00,10.00,Monday
250,2.1027093500944782
251,36574980.08049391
336,0.0
385,17.352507773575912
386,27.562889490005656
387,-0.8922282114618636
388,0.0
425,0.0
450,0.0
451,0.0
452,-1.4914791842296997
453,0.0
490,0.0
515,0.0
516,0.0
542,0.0
592,4695264.08225586
632,31620982.78194223
686,1.0
687,1.0
688,2.0
2,21, 1,21, 0, 6,10.00,20.00,Monday
250,2.1028958649437426
251,36575048.460349746
336,0.0
385,17.352507773575912
386,27.562889490005656
387,-0.8937219885884038
388,0.0
425,0.0
450,0.0
451,0.0
452,-1.4824974516135652
453,0.0
490,0.0
515,0.0
516,0.0
542,0.0
592,4695076.569900009
632,31621180.93434672
686,1.0
687,1.0
688,2.0
2,21, 1,21, 0, 6,20.00,30.00,Monday
250,2.1030573457801847
251,36574964.86240022
336,0.0
385,17.352507773575912
386,27.562889490005656
387,-0.8954243700670768
388,0.0
425,0.0
450,0.0
451,0.0
452,-1.4756210806133652
453,0.0
490,0.0
515,0.0
516,0.0
542,0.0
592,4694888.993658494
632,31621271.427237574
686,1.0
687,1.0
688,2.0
2,21, 1,21, 0, 6,30.00,40.00,Monday
250,2.103220892665061
251,36574918.52964941
336,0.0
385,17.352507773575912
386,27.562889490005656
387,-0.8972925959320153
388,0.0
425,0.0
450,0.0
451,0.0
452,-1.4706453355523768
453,0.0
490,0.0
515,0.0
516,0.0
542,0.0
592,4694701.35349866
632,31621413.84769347
686,1.0
687,1.0
688,2.0
2,21, 1,21, 0, 6,40.00,50.00,Monday
250,2.103382188006409
251,36574874.46709936
336,0.0
385,17.352507773575912
386,27.562889490005656
387,-0.8992951598240946
388,0.0
425,0.0
450,0.0
451,0.0
452,-1.4671220122963353
453,0.0
490,0.0
515,0.0
516,0.0
542,0.0
592,4694513.649387832
632,31621556.276485182
686,1.0
687,1.0
688,2.0
2,21, 1,21, 0, 6,50.00,60.00,Monday
250,2.103541076654718
251,36574827.63181499
336,0.0
385,17.352507773575912
386,27.562889490005656
387,-0.9014155720155157
388,0.0
425,0.0
450,0.0
451,0.0
452,-1.464632617526549
453,0.0
490,0.0
515,0.0
516,0.0
542,0.0
592,4694325.88129331
632,31621695.912937123
686,1.0
687,1.0
688,2.0
2,21, 1,21, 0, 7, 0.00,10.00,Monday
250,2.0976856110239077
251,36578020.47365063
336,0.0
385,17.352507773575912
386,27.562889490005656
387,-0.9061035960848208
388,0.0
425,0.0
450,0.0
451,0.0
452,-1.4679900862481254
453,0.0
490,0.0
515,0.0
516,0.0
542,0.0
592,4723573.583255435
632,31592401.204952635
686,1.0
687,1.0
688,2.0
2,21, 1,21, 0, 7,10.00,20.00,Monday
250,2.0971887439676813
251,36575752.916810855
336,0.0
385,17.352507773575912
386,27.562889490005656
387,-0.9155058189850341
388,0.0
425,0.0
450,0.0
451,0.0
452,-1.4866039147052326
453,0.0
490,0.0
515,0.0
516,0.0
542,0.0
592,4752837.186047653
632,31563756.66545708
686,1.0
687,1.0
688,2.0
2,21, 1,21, 0, 7,20.00,30.00,Monday
250,2.097604064735509
251,36572612.95048101
336,0.0
385,17.352507773575912
386,27.562889490005656
387,-0.9297940935676868
388,0.0
425,0.0
450,0.0
451,0.0
452,-1.525921870511759
453,0.0
490,0.0
515,0.0
516,0.0
542,0.0
592,4782116.702651945
632,31531828.513362728
686,1.0
687,1.0
688,2.0
2,21, 1,21, 0, 7,30.00,40.00,Monday
250,2.097765346954024
251,36569697.04333843
336,0.0
385,17.352507773575912
386,27.562889490005656
387,-0.9479701069592464
388,0.0
425,0.0
450,0.0
451,0.0
452,-1.583759585436492
453,0.0
490,0.0
515,0.0
516,0.0
542,0.0
592,4811412.146064445
632,31499480.329494398
686,1.0
687,1.0
688,2.0
2,21, 1,21, 0, 7,40.00,50.00,Monday
250,2.097922994727387
251,36566783.90782065
336,0.0
385,17.352507773575912
386,27.562889490005656
387,-0.9689646134095369
388,0.0
425,0.0
450,0.0
451,0.0
452,-1.6538508002865486
453,0.0
490,0.0
515,0.0
516,0.0
542,0.0
592,4840723.52929546
632,31467253.8467981
686,1.0
687,1.0
688,2.0
2,21, 1,21, 0, 7,50.00,60.00,Monday
250,2.0981085002552575
251,36563844.83378049
336,0.0
385,17.352507773575912
386,27.562889490005656
387,-0.9920725730288176
388,0.0
425,0.0
450,0.0
451,0.0
452,-1.7304166187652956
453,0.0
490,0.0
515,0.0
516,0.0
542,0.0
592,4870050.865369482
632,31435002.430949934
686,1.0
687,1.0
688,2.0
2,21, 1,21, 0, 8, 0.00,10.00,Monday
250,2.299790105297518
251,36452410.528339244
336,0.0
385,17.352507773575912
386,27.562889490005656
387,-0.9882523700942087
388,0.0
425,0.0
450,0.0
451,0.0
452,-1.789509606490751
453,0.0
490,0.0
515,0.0
516,0.0
542,0.0
592,4889730.300311495
632,31412381.973309834
686,1.0
687,1.0
688,2.0
2,21, 1,21, 0, 8,10.00,20.00,Monday
250,2.5018526293871735
251,36345369.624748304
336,0.0
385,17.352507773575912
386,27.562889490005656
387,-0.947229314757171
388,0.0
425,0.0
450,0.0
451,0.0
452,-1.7813697595391633
453,0.0
490,0.0
515,0.0
516,0.0
542,0.0
592,4909380.719869504
632,31285901.012573697
686,1.0
687,1.0
688,2.0
2,21, 1,21, 0, 8,20.00,30.00,Monday
250,2.691831537542924
251,36245513.41145033
336,0.0
385,17.352507773575912
386,27.562889490005656
387,-0.8771333311060936
388,0.0
425,0.0
450,0.0
451,0.0
452,-1.6751836647328016
453,0.0
490,0.0
515,0.0
516,0.0
542,0.0
592,4929009.6156952735
632,31159916.191827033
686,1.0
687,1.0
688,2.0
2,21, 1,21, 0, 8,30.00,40.00,Monday
250,2.884423755184851
251,36144091.83144787
336,0.0
385,17.352507773575912
386,27.562889490005656
387,-0.7854283465562795
388,0.0
425,0.0
450,0.0
451,0.0
452,-1.47948817848517
453,0.0
490,0.0
515,0.0
516,0.0
542,0.0
592,4952863.646772657
632,31036054.420317534
686,1.0
687,1.0
688,2.0
2,21, 1,21, 0, 8,40.00,50.00,Monday
250,3.078885225976835
251,36041297.769607626
336,0.0
385,17.352507773575912
386,27.562889490005656
387,-0.6814686298894845
388,0.0
425,0.0
450,0.0
451,0.0
452,-1.201454376225878
453,0.0
490,0.0
515,0.0
516,0.0
542,0.0
592,4977062.298687916
632,30910073.973958004
686,1.0
687,1.0
688,2.0
2,21, 1,21, 0, 8,50.00,60.00,Monday
250,3.2767556315711763
251,35937487.71945978
336,0.0
385,17.352507773575912
386,27.562889490005656
387,-0.5842028117927922
388,0.0
425,0.0
450,0.0
451,0.0
452,-0.8857277700882339
453,0.0
490,0.0
515,0.0
516,0.0
542,0.0
592,5001395.306277511
632,30734536.167490922
686,1.0
687,1.0
688,2.0
2,21, 1,21, 0, 9, 0.00,10.00,Monday
250,3.5357375585883197
251,35801707.844509915
336,0.0
385,17.352507773575912
386,27.562889490005656
387,-0.44434381070647866
388,0.0
425,0.0
450,0.0
451,0.0
452,-0.4045809143807436
453,0.0
490,0.0
515,0.0
516,0.0
542,0.0
592,5029363.153609448
632,30588096.131895736
686,1.0
687,1.0
688,2.0
2,21, 1,21, 0, 9,10.00,20.00,Monday
250,3.794293016903802
251,35665376.16224385
336,0.0
385,17.352507773575912
386,27.562889490005656
387,-0.29222965306784177
388,0.0
425,0.0
450,0.0
451,0.0
452,0.11987057669379445
453,0.0
490,0.0
515,0.0
516,0.0
542,0.0
592,5057356.862312016
632,30423274.384810045
686,1.0
687,1.0
688,2.0
2,21, 1,21, 0, 9,20.00,30.00,Monday
250,4.052924878675423
251,35528976.92481502
336,0.0
385,17.352507773575912
386,27.562889490005656
387,-0.13215482472031312
388,0.0
425,0.0
450,0.0
451,0.0
452,0.6846700822310893
453,0.0
490,0.0
515,0.0
516,0.0
542,0.0
592,5085392.284952975
632,30258906.29229111
686,1.0
687,1.0
688,2.0
2,21, 1,21, 0, 9,30.00,40.00,Monday
250,4.311115407069294
251,35392816.61650358
336,0.0
385,17.352507773575912
386,27.562889490005656
387,0.03743677436435233
388,0.0
425,0.0
450,0.0
451,0.0
452,1.2794799338838283
453,0.0
490,0.0
515,0.0
516,0.0
542,0.0
592,5113485.892141593
632,30094520.144741315
686,1.0
687,1.0
688,2.0
2,21, 1,21, 0, 9,40.00,50.00,Monday
250,4.5714607794367375
251,35254648.7868662
336,0.0
385,17.352507773575923
386,27.562889490005677
387,0.18216802688516337
388,0.0
425,0.0
450,0.0
451,0.0
452,1.7826511887293792
453,0.0
490,0.0
515,0.0
516,0.0
542,0.0
592,5141654.529350725
632,29902599.584652077
686,1.0000000000000009
687,1.0000000000000009
688,2.0000000000000018
2,21, 1,21, 0, 9,50.00,60.00,Monday
250,4.829810907070593
251,35117835.879631326
336,0.0
385,17.352507773575912
386,27.562889490005656
387,0.3342053593599427
388,0.0
425,0.0
450,0.0
451,0.0
452,2.3244651742319045
453,0.0
490,0.0
515,0.0
516,0.0
542,0.0
592,5169915.672059796
632,29763891.573340952
686,1.0
687,1.0
688,2.0
2,21, 1,21, 0,10, 0.00,10.00,Monday
250,5.269266143235447
251,34884774.7498058
336,0.0
385,17.352507773575912
386,27.56288949000566
387,0.5244490846735868
388,0.0
425,0.0
450,0.0
451,0.0
452,2.8853184184564156
453,0.0
490,0.0
515,0.0
516,0.0
542,0.0
592,5241404.10703412
632,29466711.637433074
686,1.0
687,1.0
688,2.0
2,21, 1,21, 0,10,10.00,20.00,Monday
250,5.712247273042965
251,34650320.044560626
336,0.0
385,17.352507773575912
386,27.562889490005656
387,0.8156949355741772
388,0.0
425,0.0
450,0.0
451,0.0
452,3.640503713052859
453,0.0
490,0.0
515,0.0
516,0.0
542,0.0
592,5315291.857316207
632,29158826.505180117
686,1.0
687,1.0
688,2.0
2,21, 1,21, 0,10,20.00,30.00,Monday
250,6.158837879932171
251,34412752.80098993
336,0.0
385,17.352507773575905
386,27.562889490005645
387,1.0965109920920348
388,0.0
425,0.0
450,0.0
451,0.0
452,4.331017995859793
453,0.0
490,0.0
515,0.0
516,0.0
542,0.0
592,5391793.298050372
632,28845426.129306026
686,0.9999999999999996
687,0.9999999999999996
688,1.9999999999999991
2,21, 1,21, 0,10,30.00,40.00,Monday
250,6.6069462885400405
251,34174241.709524594
336,0.0
385,17.352507773575915
386,27.562889490005666
387,1.3786125238187457
388,0.0
425,0.0
450,0.0
451,0.0
452,5.03033783948853
453,0.0
490,0.0
515,0.0
516,0.0
542,0.0
592,5471132.199313744
632,28527895.745302565
686,1.0000000000000004
687,1.0000000000000004
688,2.000000000000001
2,21, 1,21, 0,10,40.00,50.00,Monday
250,7.057070623011263
251,33934507.95074856
336,0.0
385,17.352507773575923
386,27.562889490005677
387,1.6690086011497405
388,0.0
425,0.0
450,0.0
451,0.0
452,5.794499934579978
453,0.0
490,0.0
515,0.0
516,0.0
542,0.0
592,5553542.3757593315
632,28206173.202502623
686,1.0000000000000009
687,1.0000000000000009
688,2.0000000000000018
2,21, 1,21, 0,10,50.00,60.00,Monday
250,7.5073994661468095
251,33694522.220856905
336,0.0
385,17.352507773575923
386,27.562889490005677
387,1.9694417379889388
388,0.0
425,0.0
450,0.0
451,0.0
452,6.624410927123623
453,0.0
490,0.0
515,0.0
516,0.0
542,0.0
592,5639267.778995938
632,27880546.592234
686,1.0000000000000009
687,1.0000000000000009
688,2.0000000000000018
2,21, 1,21, 0,11, 0.00,10.00,Monday
250,7.791395880410784
251,33543399.788756672
336,0.0
385,17.352507773575912
386,27.56288949000566
387,2.2561193152504897
388,0.0
425,0.0
450,0.0
451,0.0
452,7.479801193574479
453,0.0
490,0.0
515,0.0
516,0.0
542,0.0
592,5689519.861596227
632,27648117.02189138
686,1.0
687,1.0
688,2.0
2,21, 1,21, 0,11,10.00,20.00,Monday
250,8.071198590217094
251,33394408.073392257
336,0.0
385,17.352507773575912
386,27.562889490005656
387,2.525968033554765
388,0.0
425,0.0
450,0.0
451,0.0
452,8.330554026727327
453,0.0
490,0.0
515,0.0
516,0.0
542,0.0
592,5740969.350869596
632,27446803.83673206
686,1.0
687,1.0
688,2.0
2,21, 1,21, 0,11,20.00,30.00,Monday
250,8.350920098731136
251,33245419.337891348
336,0.0
385,17.352507773575905
386,27.562889490005645
387,2.7981408702019293
388,0.0
425,0.0
450,0.0
451,0.0
452,9.177381737265083
453,0.0
490,0.0
515,0.0
516,0.0
542,0.0
592,5793671.095282218
632,27245126.206805285
686,0.9999999999999996
687,0.9999999999999996
688,1.9999999999999991
2,21, 1,21, 0,11,30.00,40.00,Monday
250,8.628507372901968
251,33097528.047822807
336,0.0
385,17.352507773575915
386,27.562889490005666
387,3.075462860313512
388,0.0
425,0.0
450,0.0
451,0.0
452,10.000320170719883
453,0.0
490,0.0
515,0.0
516,0.0
542,0.0
592,5847681.4279665835
632,27042843.01327745
686,1.0000000000000004
687,1.0000000000000004
688,2.000000000000001
2,21, 1,21, 0,11,40.00,50.00,Monday
250,8.905035009260837
251,32950155.961685553
336,0.0
385,17.352507773575923
386,27.562889490005677
387,3.354535509725758
388,0.0
425,0.0
450,0.0
451,0.0
452,10.74553597019673
453,0.0
490,0.0
515,0.0
516,0.0
542,0.0
592,5903058.082199926
632,26839911.572141334
686,1.0000000000000009
687,1.0000000000000009
688,2.0000000000000018
2,21, 1,21, 0,11,50.00,60.00,Monday
250,9.180196864206682
251,32803466.929180294
336,0.0
385,17.352507773575923
386,27.562889490005677
387,3.63150419550898
388,0.0
425,0.0
450,0.0
451,0.0
452,11.380269118886346
453,0.0
490,0.0
515,0.0
516,0.0
542,0.0
592,5959860.237244541
632,26636181.369326845
686,1.0000000000000009
687,1.0000000000000009
688,2.0000000000000018
2,21, 1,21, 0,12, 0.00,10.00,Monday
250,9.444478921068828
251,32662442.680685803
336,0.0
385,17.352507773575912
386,27.562889490005656
387,3.8713456212541857
388,0.0
425,0.0
450,0.0
451,0.0
452,11.879719960349806
453,0.0
490,0.0
515,0.0
516,0.0
542,0.0
592,5991096.197635707
632,26489055.31453177
686,1.0
687,1.0
688,2.0
2,21, 1,21, 0,12,10.00,20.00,Monday
250,9.70072080837354
251,32529167.41278399
336,0.0
385,17.352507773575912
386,27.562889490005656
387,4.163650104357117
388,0.0
425,0.0
450,0.0
451,0.0
452,12.443705247044068
453,0.0
490,0.0
515,0.0
516,0.0
542,0.0
592,7572016.881221028
632,24771851.029299237
686,1.0
687,1.0
688,2.0
2,21, 1,21, 0,12,20.00,30.00,Monday
250,9.961761633886482
251,32391712.463505253
336,0.0
385,17.352507773575912
386,27.562889490005656
387,4.432734743831843
388,0.0
425,0.0
450,0.0
451,0.0
452,12.959672447313057
453,0.0
490,0.0
515,0.0
516,0.0
542,0.0
592,7609409.155487606
632,24598178.694939524
686,1.0
687,1.0
688,2.0
2,21, 1,21, 0,12,30.00,40.00,Monday
250,10.221366605691536
251,32255040.381513692
336,0.0
385,17.352507773575912
386,27.562889490005656
387,4.691497803741388
388,0.0
425,0.0
450,0.0
451,0.0
452,13.450442360033726
453,0.0
490,0.0
515,0.0
516,0.0
542,0.0
592,7646583.592010483
632,24423938.4487297
686,1.0
687,1.0
688,2.0
2,21, 1,21, 0,12,40.00,50.00,Monday
250,10.48066703253907
251,32118531.415393185
336,0.0
385,17.352507773575912
386,27.562889490005656
387,4.945870117164398
388,0.0
425,0.0
450,0.0
451,0.0
452,13.891976376246042
453,0.0
490,0.0
515,0.0
516,0.0
542,0.0
592,7683540.190789654
632,24250382.86000757
686,1.0
687,1.0
688,2.0
2,21, 1,21, 0,12,50.00,60.00,Monday
250,10.73981778418894
251,31982102.508219488
336,0.0
385,17.352507773575912
386,27.562889490005656
387,5.194766665965377
388,0.0
425,0.0
450,0.0
451,0.0
452,14.260035958154916
453,0.0
490,0.0
515,0.0
516,0.0
542,0.0
592,7720278.951825122
632,24077172.974371906
686,1.0
687,1.0
688,2.0
2,21, 1,21, 0,13, 0.00,10.00,Monday
250,10.919931307346843
251,31885426.69873914
336,0.0
385,17.352507773575912
386,27.562889490005656
387,5.427087631242716
388,0.0
425,0.0
450,0.0
451,0.0
452,14.551324544049518
453,0.0
490,0.0
515,0.0
516,0.0
542,0.0
592,7745410.487127085
632,23966322.93453115
686,1.0
687,1.0
688,2.0
2,21, 1,21, 0,13,10.00,20.00,Monday
250,11.097202284497605
251,31793279.506874964
336,0.0
385,17.352507773575912
386,27.562889490005656
387,5.645767859170669
388,0.0
425,0.0
450,0.0
451,0.0
452,14.780422700414249
453,0.0
490,0.0
515,0.0
516,0.0
542,0.0
592,7770439.060057999
632,23859632.51620488
686,1.0
687,1.0
688,2.0
2,21, 1,21, 0,13,20.00,30.00,Monday
250,11.278274966721384
251,31699562.117017232
336,0.0
385,17.352507773575912
386,27.562889490005656
387,5.8505525805226055
388,0.0
425,0.0
450,0.0
451,0.0
452,14.963500691557647
453,0.0
490,0.0
515,0.0
516,0.0
542,0.0
592,7795364.6706178645
632,23743053.908146124
686,1.0
687,1.0
688,2.0
2,21, 1,21, 0,13,30.00,40.00,Monday
250,11.458719529036424
251,31606220.70904849
336,0.0
385,17.352507773575912
386,27.562889490005656
387,6.045463447546489
388,0.0
425,0.0
450,0.0
451,0.0
452,15.112520942079149
453,0.0
490,0.0
515,0.0
516,0.0
542,0.0
592,7820187.318806681
632,23624563.313174743
686,1.0
687,1.0
688,2.0
2,21, 1,21, 0,13,40.00,50.00,Monday
250,11.63869915758489
251,31513161.226297505
336,0.0
385,17.352507773575912
386,27.562889490005656
387,6.234248650383043
388,0.0
425,0.0
450,0.0
451,0.0
452,15.231733813763327
453,0.0
490,0.0
515,0.0
516,0.0
542,0.0
592,7844907.00462445
632,23506545.805989087
686,1.0
687,1.0
688,2.0
2,21, 1,21, 0,13,50.00,60.00,Monday
250,11.818588561359473
251,31420182.88004573
336,0.0
385,17.352507773575912
386,27.562889490005656
387,6.418213423922575
388,0.0
425,0.0
450,0.0
451,0.0
452,15.32488502179782
453,0.0
490,0.0
515,0.0
516,0.0
542,0.0
592,7869523.728071173
632,23388914.867568593
686,1.0
687,1.0
688,2.0
2,21, 1,21, 0,14, 0.00,10.00,Monday
250,12.01740989381859
251,31317011.032151096
336,0.0
385,17.352507773575912
386,27.562889490005656
387,6.60018168548106
388,0.0
425,0.0
450,0.0
451,0.0
452,15.380616155678664
453,0.0
490,0.0
515,0.0
516,0.0
542,0.0
592,7896260.907308879
632,23269244.203724787
686,1.0
687,1.0
688,2.0
2,21, 1,21, 0,14,10.00,20.00,Monday
250,12.21337563541357
251,31215058.1167197
336,0.0
385,17.352507773575912
386,27.562889490005656
387,6.780277039856689
388,0.0
425,0.0
450,0.0
451,0.0
452,15.380647942508007
453,0.0
490,0.0
515,0.0
516,0.0
542,0.0
592,7922875.552815753
632,23139147.500538755
686,1.0
687,1.0
688,2.0
2,21, 1,21, 0,14,20.00,30.00,Monday
250,12.408007675549056
251,31113773.581006233
336,0.0
385,17.352507773575912
386,27.562889490005656
387,6.9563485381428
388,0.0
425,0.0
450,0.0
451,0.0
452,15.32455310315088
453,0.0
490,0.0
515,0.0
516,0.0
542,0.0
592,7949367.664591796
632,23010663.43275655
686,1.0
687,1.0
688,2.0
2,21, 1,21, 0,14,30.00,40.00,Monday
250,12.601771997767674
251,31012987.587218672
336,0.0
385,17.352507773575912
386,27.562889490005656
387,7.1224599353838896
388,0.0
425,0.0
450,0.0
451,0.0
452,15.201846497703482
453,0.0
490,0.0
515,0.0
516,0.0
542,0.0
592,7975737.242637003
632,22883052.22674412
686,1.0
687,1.0
688,2.0
2,21, 1,21, 0,14,40.00,50.00,Monday
250,12.794685625063256
251,30912683.796820022
336,0.0
385,17.352507773575912
386,27.562889490005656
387,7.274918467163899
388,0.0
425,0.0
450,0.0
451,0.0
452,14.992846971469179
453,0.0
490,0.0
515,0.0
516,0.0
542,0.0
592,8001984.286951372
632,22756055.00356042
686,1.0
687,1.0
688,2.0
2,21, 1,21, 0,14,50.00,60.00,Monday
250,12.986923161322474
251,30812765.75452953
336,0.0
385,17.352507773575912
386,27.562889490005656
387,7.41400923342333
388,0.0
425,0.0
450,0.0
451,0.0
452,14.70067158334562
453,0.0
490,0.0
515,0.0
516,0.0
542,0.0
592,8028108.797534912
632,22629660.468012992
686,1.0
687,1.0
688,2.0
2,21, 1,21, 0,15, 0.00,10.00,Monday
250,13.240696901727514
251,30680388.012380317
336,0.0
385,17.352507773575912
386,27.562889490005656