Program Version,EnergyPlus, Version 24.1.0-9d7789a3ac, YMD=2024.07.03 09:44
1,5,Environment Title[],Latitude[deg],Longitude[deg],Time Zone[],Elevation[m]
2,8,Day of Simulation[],Month[],Day of Month[],DST Indicator[1=yes 0=no],Hour[],StartMinute[],EndMinute[],DayType
3,5,Cumulative Day of Simulation[],Month[],Day of Month[],DST Indicator[1=yes 0=no],DayType  ! When Daily Report Variables Requested
4,2,Cumulative Days of Simulation[],Month[]  ! When Monthly Report Variables Requested
5,1,Cumulative Days of Simulation[] ! When Run Period Report Variables Requested
6,1,Calendar Year of Simulation[] ! When Annual Report Variables Requested
250,1,LIVING ZONE,Zone Air Temperature [C] !TimeStep,REPORTSCH
251,1,LIVING ZONE,Zone Air System Sensible Heating Energy [J] !TimeStep,REPORTSCH
336,1,LIVING ZONE,Zone Air System Sensible Cooling Energy [J] !TimeStep,REPORTSCH
385,1,LIVING ZONE,Zone Thermostat Heating Setpoint Temperature [C] !TimeStep,REPORTSCH
386,1,LIVING ZONE,Zone Thermostat Cooling Setpoint Temperature [C] !TimeStep,REPORTSCH
387,1,GARAGE ZONE,Zone Air Temperature [C] !TimeStep,REPORTSCH
388,1,GARAGE ZONE,Zone Air System Sensible Heating Energy [J] !TimeStep,REPORTSCH
425,1,GARAGE ZONE,Zone Air System Sensible Cooling Energy [J] !TimeStep,REPORTSCH
450,1,GARAGE ZONE,Zone Thermostat Heating Setpoint Temperature [C] !TimeStep,REPORTSCH
451,1,GARAGE ZONE,Zone Thermostat Cooling Setpoint Temperature [C] !TimeStep,REPORTSCH
452,1,ATTIC ZONE,Zone Air Temperature [C] !TimeStep,REPORTSCH
453,1,ATTIC ZONE,Zone Air System Sensible Heating Energy [J] !TimeStep,REPORTSCH
490,1,ATTIC ZONE,Zone Air System Sensible Cooling Energy [J] !TimeStep,REPORTSCH
515,1,ATTIC ZONE,Zone Thermostat Heating Setpoint Temperature [C] !TimeStep,REPORTSCH
516,1,ATTIC ZONE,Zone Thermostat Cooling Setpoint Temperature [C] !TimeStep,REPORTSCH
542,1,ACDXCOIL 1,Cooling Coil Total Cooling Energy [J] !TimeStep,REPORTSCH
592,1,HEAT PUMP DX HEATING COIL 1,Heating Coil Heating Energy [J] !TimeStep,REPORTSCH
632,1,SUPP HEATING COIL 1,Heating Coil Heating Energy [J] !TimeStep,REPORTSCH
686,1,TWOSPEED HEAT PUMP 1,Unitary System DX Coil Cycling Ratio [] !TimeStep,REPORTSCH
687,1,TWOSPEED HEAT PUMP 1,Unitary System DX Coil Speed Ratio [] !TimeStep,REPORTSCH
688,1,TWOSPEED HEAT PUMP 1,Unitary System DX Coil Speed Level [] !TimeStep
End of Data Dictionary
1,CHICAGO_IL_USA ANNUAL HEATING 99% DESIGN CONDITIONS DB,  41.98, -87.92,  -6.00, 201.00
2,1, 1,21, 0, 1, 0.00,10.00,WinterDesignDay
250,21.206367354231563
251,15073650.286081212
336,0.0
385,21.59454951280459
386,26.66902459832326
387,-17.584105906759714
388,0.0
425,0.0
450,0.0
451,0.0
452,-18.26100376434998
453,0.0
490,0.0
515,0.0
516,0.0
542,0.0
592,0.0
632,15549324.815173756
686,1.0
687,1.0
688,2.0
2,1, 1,21, 0, 1,10.00,20.00,WinterDesignDay
250,21.55980535523547
251,16152173.478856519
336,0.0
385,21.59454951280459
386,26.66902459832326
387,-17.58410422558387
388,0.0
425,0.0
450,0.0
451,0.0
452,-18.26085959626207
453,0.0
490,0.0
515,0.0
516,0.0
542,0.0
592,0.0
632,15994844.845963519
686,1.0
687,1.0
688,2.0
2,1, 1,21, 0, 1,20.00,30.00,WinterDesignDay
250,20.616060370156323
251,15091369.579109157
336,0.0
385,20.92788284613794
386,26.669024598323283
387,-17.584209881777095
388,0.0
425,0.0
450,0.0
451,0.0
452,-18.260940942223783
453,0.0
490,0.0
515,0.0
516,0.0
542,0.0
592,0.0
632,14742107.276094956
686,1.0000000000000007
687,1.0000000000000007
688,2.0000000000000013
2,1, 1,21, 0, 1,30.00,40.00,WinterDesignDay
250,20.963976450699416
251,14064841.058500614
336,0.0
385,20.92788284613794
386,26.669024598323283
387,-17.584213875380556
388,0.0
425,0.0
450,0.0
451,0.0
452,-18.26106065202369
453,0.0
490,0.0
515,0.0
516,0.0
542,0.0
592,0.0
632,13666593.115861915
686,1.0000000000000009
687,1.0000000000000009
688,2.0000000000000018
2,1, 1,21, 0, 1,40.00,50.00,WinterDesignDay
250,21.20636735448826
251,15073650.326976236
336,0.0
385,21.59454951280459
386,26.66902459832326
387,-17.584110756933494
388,0.0
425,0.0
450,0.0
451,0.0
452,-18.261004238483018
453,0.0
490,0.0
515,0.0
516,0.0
542,0.0
592,0.0
632,15549324.856248705
686,1.0
687,1.0
688,2.0
2,1, 1,21, 0, 1,50.00,60.00,WinterDesignDay
250,21.559805355274683
251,16152173.520223077
336,0.0
385,21.59454951280459
386,26.66902459832326
387,-17.584109010514453
388,0.0
425,0.0
450,0.0
451,0.0
452,-18.26086006417397
453,0.0
490,0.0
515,0.0
516,0.0
542,0.0
592,0.0
632,15994844.887264978
686,1.0
687,1.0
688,2.0
2,1, 1,21, 0, 2, 0.00,10.00,WinterDesignDay
250,20.616060368309967
251,15091369.610937543
336,0.0
385,20.927882846137926
386,26.66902459832326
387,-17.584214611301185
388,0.0
425,0.0
450,0.0
451,0.0
452,-18.260941404740983
453,0.0
490,0.0
515,0.0
516,0.0
542,0.0
592,0.0
632,14742107.307443708
686,1.0
687,1.0
688,2.0
2,1, 1,21, 0, 2,10.00,20.00,WinterDesignDay
250,20.963976450605266
251,14064841.097500924
336,0.0
385,20.927882846137923
386,26.66902459832326
387,-17.58421854587819
388,0.0
425,0.0
450,0.0
451,0.0
452,-18.26106110860411
453,0.0
490,0.0
515,0.0
516,0.0
542,0.0
592,0.0
632,13666593.15517883
686,1.0
687,1.0
688,2.0
2,1, 1,21, 0, 2,20.00,30.00,WinterDesignDay
250,21.20636735473171
251,15073650.365758289
336,0.0
385,21.59454951280459
386,26.66902459832326
387,-17.584115356524208
388,0.0
425,0.0
450,0.0
451,0.0
452,-18.261004688126018
453,0.0
490,0.0
515,0.0
516,0.0
542,0.0
592,0.0
632,15549324.895201387
686,1.0
687,1.0
688,2.0
2,1, 1,21, 0, 2,30.00,40.00,WinterDesignDay
250,21.55980535531188
251,16152173.559452228
336,0.0
385,21.59454951280459
386,26.66902459832326
387,-17.584113548232555
388,0.0
425,0.0
450,0.0
451,0.0
452,-18.26086050791705
453,0.0
490,0.0
515,0.0
516,0.0
542,0.0
592,0.0
632,15994844.92643239
686,1.0
687,1.0
688,2.0
2,1, 1,21, 0, 2,40.00,50.00,WinterDesignDay
250,20.616060366559
251,15091369.641121354
336,0.0
385,20.927882846137894
386,26.669024598323222
387,-17.584219096475433
388,0.0
425,0.0
450,0.0
451,0.0
452,-18.260941843367902
453,0.0
490,0.0
515,0.0
516,0.0
542,0.0
592,0.0
632,14742107.337172676
686,0.9999999999999986
687,0.9999999999999986
688,1.9999999999999971
2,1, 1,21, 0, 2,50.00,60.00,WinterDesignDay
250,20.96397645051602
251,14064841.134486172
336,0.0
385,20.92788284613794
386,26.669024598323283
387,-17.584222975075843
388,0.0
425,0.0
450,0.0
451,0.0
452,-18.261061541600867
453,0.0
490,0.0
515,0.0
516,0.0
542,0.0
592,0.0
632,13666593.192464322
686,1.0000000000000009
687,1.0000000000000009
688,2.0000000000000018
2,1, 1,21, 0, 3, 0.00,10.00,WinterDesignDay
250,21.20636735496257
251,15073650.402536584
336,0.0
385,21.59454951280459
386,26.66902459832326
387,-17.58411971847821
388,0.0
425,0.0
450,0.0
451,0.0
452,-18.26100511454359
453,0.0
490,0.0
515,0.0
516,0.0
542,0.0
592,0.0
632,15549324.9321415
686,1.0
687,1.0
688,2.0
2,1, 1,21, 0, 3,10.00,20.00,WinterDesignDay
250,21.559805355347155
251,16152173.596654523
336,0.0
385,21.59454951280459
386,26.66902459832326
387,-17.584117851510555
388,0.0
425,0.0
450,0.0
451,0.0
452,-18.260860928739355
453,0.0
490,0.0
515,0.0
516,0.0
542,0.0
592,0.0
632,15994844.96357614
686,1.0
687,1.0
688,2.0
2,1, 1,21, 0, 3,20.00,30.00,WinterDesignDay
250,20.61606036489857
251,15091369.669745684
336,0.0
385,20.92788284613794
386,26.669024598323283
387,-17.58422334992429
388,0.0
425,0.0
450,0.0
451,0.0
452,-18.260942259338293
453,0.0
490,0.0
515,0.0
516,0.0
542,0.0
592,0.0
632,14742107.365365662
686,1.0000000000000007
687,1.0000000000000007
688,2.0000000000000013
2,1, 1,21, 0, 3,30.00,40.00,WinterDesignDay
250,20.963976450431364
251,14064841.169560563
336,0.0
385,20.92788284613794
386,26.669024598323283
387,-17.5842271754397
388,0.0
425,0.0
450,0.0
451,0.0
452,-18.26106195223175
453,0.0
490,0.0
515,0.0
516,0.0
542,0.0
592,0.0
632,13666593.227823453
686,1.0000000000000009
687,1.0000000000000009
688,2.0000000000000018
2,1, 1,21, 0, 3,40.00,50.00,WinterDesignDay
250,21.20636735518151
251,15073650.437414605
336,0.0
385,21.59454951280459
386,26.66902459832326
387,-17.584123855072345
388,0.0
425,0.0
450,0.0
451,0.0
452,-18.261005518935058
453,0.0
490,0.0
515,0.0
516,0.0
542,0.0
592,0.0
632,15549324.96717297
686,1.0
687,1.0
688,2.0
2,1, 1,21, 0, 3,50.00,60.00,WinterDesignDay
250,21.559805355380604
251,16152173.631934674
336,0.0
385,21.59454951280459
386,26.66902459832326
387,-17.58412193245968
388,0.0
425,0.0
450,0.0
451,0.0
452,-18.260861327824493
453,0.0
490,0.0
515,0.0
516,0.0
542,0.0
592,0.0
632,15994844.998800766
686,1.0
687,1.0
688,2.0
2,1, 1,21, 0, 4, 0.00,10.00,WinterDesignDay
250,20.61606036332387
251,15091369.696891088
336,0.0
385,20.927882846137926
386,26.66902459832326
387,-17.584227383618057
388,0.0
425,0.0
450,0.0
451,0.0
452,-18.260942653822
453,0.0
490,0.0
515,0.0
516,0.0
542,0.0
592,0.0
632,14742107.392102003
686,1.0
687,1.0
688,2.0
2,1, 1,21, 0, 4,10.00,20.00,WinterDesignDay
250,20.963976450351062
251,14064841.20282259
336,0.0
385,20.927882846137923
386,26.66902459832326
387,-17.58423115879109
388,0.0
425,0.0
450,0.0
451,0.0
452,-18.261062341651748
453,0.0
490,0.0
515,0.0
516,0.0
542,0.0
592,0.0
632,13666593.261355506
686,1.0
687,1.0
688,2.0
2,1, 1,21, 0, 4,20.00,30.00,WinterDesignDay
250,21.20636735538913
251,15073650.470490625
336,0.0
385,21.59454951280459
386,26.66902459832326
387,-17.58412777794846
388,0.0
425,0.0
450,0.0
451,0.0
452,-18.26100590243787
453,0.0
490,0.0
515,0.0
516,0.0
542,0.0
592,0.0
632,15549325.000394512
686,1.0
687,1.0
688,2.0
2,1, 1,21, 0, 4,30.00,40.00,WinterDesignDay
250,21.55980535541233
251,16152173.665391916
336,0.0
385,21.59454951280459
386,26.66902459832326
387,-17.58412580256567
388,0.0
425,0.0
450,0.0
451,0.0
452,-18.26086170629499
453,0.0
490,0.0
515,0.0
516,0.0
542,0.0
592,0.0
632,15994845.032205354
686,1.0
687,1.0
688,2.0
2,1, 1,21, 0, 4,40.00,50.00,WinterDesignDay
250,20.616060361830524
251,15091369.722633861
336,0.0
385,20.927882846137894
386,26.669024598323222
387,-17.58423120890984
388,0.0
425,0.0
450,0.0
451,0.0
452,-18.26094302792866
453,0.0
490,0.0
515,0.0
516,0.0
542,0.0
592,0.0
632,14742107.41745685
686,0.9999999999999986
687,0.9999999999999986
688,1.9999999999999971
2,1, 1,21, 0, 4,50.00,60.00,WinterDesignDay
250,20.96397645027495
251,14064841.23436609
336,0.0
385,20.92788284613794
386,26.669024598323283
387,-17.58423493634095
388,0.0
425,0.0
450,0.0
451,0.0
452,-18.261062710956235
453,0.0
490,0.0
515,0.0
516,0.0
542,0.0
592,0.0
632,13666593.293155074
686,1.0000000000000009
687,1.0000000000000009
688,2.0000000000000018
2,1, 1,21, 0, 5, 0.00,10.00,WinterDesignDay
250,21.20636735558603
251,15073650.501857545
336,0.0
385,21.59454951280459
386,26.66902459832326
387,-17.584131498147052
388,0.0
425,0.0
450,0.0
451,0.0
452,-18.26100626613072
453,0.0
490,0.0
515,0.0
516,0.0
542,0.0
592,0.0
632,15549325.03189944
686,1.0
687,1.0
688,2.0
2,1, 1,21, 0, 5,10.00,20.00,WinterDesignDay
250,21.559805355442414
251,16152173.697120551
336,0.0
385,21.59454951280459
386,26.66902459832326
387,-17.584129472720186
388,0.0
425,0.0
450,0.0
451,0.0
452,-18.260862065215377
453,0.0
490,0.0
515,0.0
516,0.0
542,0.0
592,0.0
632,15994845.063884055
686,1.0
687,1.0
688,2.0
2,1, 1,21, 0, 5,20.00,30.00,WinterDesignDay
250,20.61606036041441
251,15091369.74704656
336,0.0
385,20.92788284613794
386,26.669024598323283
387,-17.584234836565983
388,0.0
425,0.0
450,0.0
451,0.0
452,-18.26094338271063
453,0.0
490,0.0
515,0.0
516,0.0
542,0.0
592,0.0
632,14742107.441501673
686,1.0000000000000007
687,1.0000000000000007
688,2.0000000000000013
2,1, 1,21, 0, 5,30.00,40.00,WinterDesignDay
250,20.963976450202747
251,14064841.264279831
336,0.0
385,20.92788284613794
386,26.669024598323283
387,-17.584238518721797
388,0.0
425,0.0
450,0.0
451,0.0
452,-18.26106306118396
453,0.0
490,0.0
515,0.0
516,0.0
542,0.0
592,0.0
632,13666593.323311657
686,1.0000000000000009
687,1.0000000000000009
688,2.0000000000000018
2,1, 1,21, 0, 5,40.00,50.00,WinterDesignDay
250,21.20636735577275
251,15073650.53160392
336,0.0
385,21.59454951280459
386,26.66902459832326
387,-17.584135026139748
388,0.0
425,0.0
450,0.0
451,0.0
452,-18.261006611036652
453,0.0
490,0.0
515,0.0
516,0.0
542,0.0
592,0.0
632,15549325.061776692
686,1.0
687,1.0
688,2.0
2,1, 1,21, 0, 5,50.00,60.00,WinterDesignDay
250,21.559805355470942
251,16152173.72720984
336,0.0
385,21.59454951280459
386,26.66902459832326
387,-17.584132953254766
388,0.0
425,0.0
450,0.0
451,0.0
452,-18.26086240559531
453,0.0
490,0.0
515,0.0
516,0.0
542,0.0
592,0.0
632,15994845.09392599
686,1.0
687,1.0
688,2.0
2,1, 1,21, 0, 6, 0.00,10.00,WinterDesignDay
250,20.616060359071398
251,15091369.770197906
336,0.0
385,20.927882846137926
386,26.66902459832326
387,-17.5842382767978
388,0.0
425,0.0
450,0.0
451,0.0
452,-18.260943719165795
453,0.0
490,0.0
515,0.0
516,0.0
542,0.0
592,0.0
632,14742107.464304144
686,1.0
687,1.0
688,2.0
2,1, 1,21, 0, 6,10.00,20.00,WinterDesignDay
250,20.963976450134265
251,14064841.292647963
336,0.0
385,20.927882846137923
386,26.66902459832326
387,-17.58424191601736
388,0.0
425,0.0
450,0.0
451,0.0
452,-18.261063393320132
453,0.0
490,0.0
515,0.0
516,0.0
542,0.0
592,0.0
632,13666593.35191008
686,1.0
687,1.0
688,2.0
2,1, 1,21, 0, 6,20.00,30.00,WinterDesignDay
250,21.206367355949826
251,15073650.559813255
336,0.0
385,21.59454951280459
386,26.66902459832326
387,-17.584138371856827
388,0.0
425,0.0
450,0.0
451,0.0
452,-18.261006938125902
453,0.0
490,0.0
515,0.0
516,0.0
542,0.0
592,0.0
632,15549325.090110138
686,1.0
687,1.0
688,2.0
2,1, 1,21, 0, 6,30.00,40.00,WinterDesignDay
250,21.559805355497993
251,16152173.755744386
336,0.0
385,21.59454951280459
386,26.66902459832326
387,-17.58413625396502
388,0.0
425,0.0
450,0.0
451,0.0
452,-18.260862728392315
453,0.0
490,0.0
515,0.0
516,0.0
542,0.0
592,0.0
632,15994845.122415628
686,1.0
687,1.0
688,2.0
2,1, 1,21, 0, 6,40.00,50.00,WinterDesignDay
250,20.616060357797767
251,15091369.792153116
336,0.0
385,20.927882846137894
386,26.669024598323222
387,-17.584241539286936
388,0.0
425,0.0
450,0.0
451,0.0
452,-18.260944038240726
453,0.0
490,0.0
515,0.0
516,0.0
542,0.0
592,0.0
632,14742107.485928504
686,0.9999999999999986
687,0.9999999999999986
688,1.9999999999999971
2,1, 1,21, 0, 6,50.00,60.00,WinterDesignDay
250,20.963976450069346
251,14064841.319550361
336,0.0
385,20.92788284613794
386,26.669024598323283
387,-17.584245137788734
388,0.0
425,0.0
450,0.0
451,0.0
452,-18.26106370829917
453,0.0
490,0.0
515,0.0
516,0.0
542,0.0
592,0.0
632,13666593.37903087
686,1.0000000000000009
687,1.0000000000000009
688,2.0000000000000018
2,1, 1,21, 0, 7, 0.00,10.00,WinterDesignDay
250,21.206367356117752
251,15073650.5865651
336,0.0
385,21.59454951280459
386,26.66902459832326
387,-17.584141544714928
388,0.0
425,0.0
450,0.0
451,0.0
452,-18.261007248318638
453,0.0
490,0.0
515,0.0
516,0.0
542,0.0
592,0.0
632,15549325.11697969
686,1.0
687,1.0
688,2.0
2,1, 1,21, 0, 7,10.00,20.00,WinterDesignDay
250,21.55980535552365
251,16152173.782804653
336,0.0
385,21.59454951280459
386,26.66902459832326
387,-17.58413938414169
388,0.0
425,0.0
450,0.0
451,0.0
452,-18.260863034514472
453,0.0
490,0.0
515,0.0
516,0.0
542,0.0
592,0.0
632,15994845.149433313
686,1.0
687,1.0
688,2.0
2,1, 1,21, 0, 7,20.00,30.00,WinterDesignDay
250,20.616060356590015
251,15091369.812973939
336,0.0
385,20.92788284613794
386,26.669024598323283
387,-17.584244633217384
388,0.0
425,0.0
450,0.0
451,0.0
452,-18.26094434083309
453,0.0
490,0.0
515,0.0
516,0.0
542,0.0
592,0.0
632,14742107.506435577
686,1.0000000000000007
687,1.0000000000000007
688,2.0000000000000013
2,1, 1,21, 0, 7,30.00,40.00,WinterDesignDay
250,20.96397645000777
251,14064841.345062792
336,0.0
385,20.92788284613794
386,26.669024598323283
387,-17.584248193104784
388,0.0
425,0.0
450,0.0
451,0.0
452,-18.2610640070071
453,0.0
490,0.0
515,0.0
516,0.0
542,0.0
592,0.0
632,13666593.404750414
686,1.0000000000000009
687,1.0000000000000009
688,2.0000000000000018
2,1, 1,21, 0, 7,40.00,50.00,WinterDesignDay
250,21.206367356277003
251,15073650.611934802
336,0.0
385,21.59454951280459
386,26.66902459832326
387,-17.584144553644382
388,0.0
425,0.0
450,0.0
451,0.0
452,-18.261007542487498
453,0.0
490,0.0
515,0.0
516,0.0
542,0.0
592,0.0
632,15549325.142461004
686,1.0
687,1.0
688,2.0
2,1, 1,21, 0, 7,50.00,60.00,WinterDesignDay
250,21.559805355547983
251,16152173.808466813
336,0.0
385,21.59454951280459
386,26.66902459832326
387,-17.584142352594647
388,0.0
425,0.0
450,0.0
451,0.0
452,-18.26086332482297
453,0.0
490,0.0
515,0.0
516,0.0
542,0.0
592,0.0
632,15994845.175055083
686,1.0
687,1.0
688,2.0
2,1, 1,21, 0, 8, 0.00,10.00,WinterDesignDay
250,20.616060355444606
251,15091369.832718935
336,0.0
385,20.927882846137926
386,26.66902459832326
387,-17.58424756729668
388,0.0
425,0.0
450,0.0
451,0.0
452,-18.260944627794043
453,0.0
490,0.0
515,0.0
516,0.0
542,0.0
592,0.0
632,14742107.525883026
686,1.0
687,1.0
688,2.0
2,1, 1,21, 0, 8,10.00,20.00,WinterDesignDay
250,20.963976449949357
251,14064841.369256977
336,0.0
385,20.927882846137923
386,26.66902459832326
387,-17.584251090564766
388,0.0
425,0.0
450,0.0
451,0.0
452,-18.2610642902843
453,0.0
490,0.0
515,0.0
516,0.0
542,0.0
592,0.0
632,13666593.429141007
686,1.0
687,1.0
688,2.0
2,1, 1,21, 0, 8,20.00,30.00,WinterDesignDay
250,21.206367356428025
251,15073650.635993592
336,0.0
385,21.59454951280459
386,26.66902459832326
387,-17.58414740711461
388,0.0
425,0.0
450,0.0
451,0.0
452,-18.261007821460087
453,0.0
490,0.0
515,0.0
516,0.0
542,0.0
592,0.0
632,15549325.166625652
686,1.0
687,1.0
688,2.0
2,1, 1,21, 0, 8,30.00,40.00,WinterDesignDay
250,21.559805355571058
251,16152173.832802989
336,0.0
385,21.59454951280459
386,26.66902459832326
387,-17.58414516767977
388,0.0
425,0.0
450,0.0
451,0.0
452,-18.260863600134584
453,0.0
490,0.0
515,0.0
516,0.0
542,0.0
592,0.0
632,15994845.199352954
686,1.0
687,1.0
688,2.0
2,1, 1,21, 0, 8,40.00,50.00,WinterDesignDay
250,20.61606035435836
251,15091369.851443812
336,0.0
385,20.927882846137894
386,26.669024598323222
387,-17.584250349784007
388,0.0
425,0.0
450,0.0
451,0.0
452,-18.26094489993099
453,0.0
490,0.0
515,0.0
516,0.0
542,0.0
592,0.0
632,14742107.544325735
686,0.9999999999999986
687,0.9999999999999986
688,1.9999999999999971
2,1, 1,21, 0, 8,50.00,60.00,WinterDesignDay
250,20.963976449894002
251,14064841.392201178
336,0.0
385,20.92788284613794
386,26.669024598323283
387,-17.58425383832448
388,0.0
425,0.0
450,0.0
451,0.0
452,-18.261064558927796
453,0.0
490,0.0
515,0.0
516,0.0
542,0.0
592,0.0
632,13666593.452271469
686,1.0000000000000009
687,1.0000000000000009
688,2.0000000000000018
2,1, 1,21, 0, 9, 0.00,10.00,WinterDesignDay
250,21.20636735657125
251,15073650.658809343
336,0.0
385,21.59454951280459
386,26.66902459832326
387,-17.584150113156596
388,0.0
425,0.0
450,0.0
451,0.0
452,-18.261008086021274
453,0.0
490,0.0
515,0.0
516,0.0
542,0.0
592,0.0
632,15549325.189541785
686,1.0
687,1.0
688,2.0
2,1, 1,21, 0, 9,10.00,20.00,WinterDesignDay
250,21.55980535559294
251,16152173.85588184
336,0.0
385,21.59454951280459
386,26.66902459832326
387,-17.58414783731946
388,0.0
425,0.0
450,0.0
451,0.0
452,-18.260863861223875
453,0.0
490,0.0
515,0.0
516,0.0
542,0.0
592,0.0
632,15994845.222395487
686,1.0
687,1.0
688,2.0
2,1, 1,21, 0, 9,20.00,30.00,WinterDesignDay
250,20.616060353328315
251,15091369.869201168
336,0.0
385,20.92788284613794
386,26.669024598323283
387,-17.584252988509988
388,0.0
425,0.0
450,0.0
451,0.0
452,-18.260945158009633
453,0.0
490,0.0
515,0.0
516,0.0
542,0.0
592,0.0
632,14742107.561815502
686,1.0000000000000007
687,1.0000000000000007
688,2.0000000000000013
2,1, 1,21, 0, 9,30.00,40.00,WinterDesignDay
250,20.963976449841482
251,14064841.41395988
336,0.0
385,20.92788284613794
386,26.669024598323283
387,-17.584256444117074
388,0.0
425,0.0
450,0.0
451,0.0
452,-18.261064813693345
453,0.0
490,0.0
515,0.0
516,0.0
542,0.0
592,0.0
632,13666593.474206815
686,1.0000000000000009
687,1.0000000000000009
688,2.0000000000000018
2,1, 1,21, 0, 9,40.00,50.00,WinterDesignDay
250,21.20636735670707
251,15073650.680446345
336,0.0
385,21.59454951280459
386,26.66902459832326
387,-17.58415267938738
388,0.0
425,0.0
450,0.0
451,0.0
452,-18.261008336915378
453,0.0
490,0.0
515,0.0
516,0.0
542,0.0
592,0.0
632,15549325.21127398
686,1.0
687,1.0
688,2.0
2,1, 1,21, 0, 9,50.00,60.00,WinterDesignDay
250,21.55980535561369
251,16152173.877768258
336,0.0
385,21.59454951280459
386,26.66902459832326
387,-17.584150369029203
388,0.0
425,0.0
450,0.0
451,0.0
452,-18.260864108825402
453,0.0
490,0.0
515,0.0
516,0.0
542,0.0
592,0.0
632,15994845.244247459
686,1.0
687,1.0
688,2.0
2,1, 1,21, 0,10, 0.00,10.00,WinterDesignDay
250,20.616060352351433
251,15091369.886041088
336,0.0
385,20.927882846137926
386,26.66902459832326
387,-17.584255490903363
388,0.0
425,0.0
450,0.0
451,0.0
452,-18.260945402755976
453,0.0
490,0.0
515,0.0
516,0.0
542,0.0
592,0.0
632,14742107.578401659
686,1.0
687,1.0
688,2.0
2,1, 1,21, 0,10,10.00,20.00,WinterDesignDay
250,20.96397644979166
251,14064841.434594387
336,0.0
385,20.927882846137923
386,26.66902459832326
387,-17.584258915278614
388,0.0
425,0.0
450,0.0
451,0.0
452,-18.261065055297763
453,0.0
490,0.0
515,0.0
516,0.0
542,0.0
592,0.0
632,13666593.49500883
686,1.0
687,1.0
688,2.0
2,1, 1,21, 0,10,20.00,30.00,WinterDesignDay
250,21.206367356835866
251,15073650.700965345
336,0.0
385,21.59454951280459
386,26.66902459832326
387,-17.584155113030803
388,0.0
425,0.0
450,0.0
451,0.0
452,-18.26100857484835
453,0.0
490,0.0
515,0.0
516,0.0
542,0.0
592,0.0
632,15549325.231883265
686,1.0
687,1.0
688,2.0
2,1, 1,21, 0,10,30.00,40.00,WinterDesignDay
250,21.559805355633365
251,16152173.898523819
336,0.0
385,21.59454951280459
386,26.66902459832326
387,-17.58415276993467
388,0.0
425,0.0
450,0.0
451,0.0
452,-18.260864343635873
453,0.0
490,0.0
515,0.0
516,0.0
542,0.0
592,0.0
632,15994845.264970355
686,1.0
687,1.0
688,2.0
2,1, 1,21, 0,10,40.00,50.00,WinterDesignDay
250,20.61606035142501
251,15091369.902010866
336,0.0
385,20.927882846137894
386,26.669024598323222
387,-17.584257864006787
388,0.0
425,0.0
450,0.0
451,0.0
452,-18.260945634858707
453,0.0
490,0.0
515,0.0
516,0.0
542,0.0
592,0.0
632,14742107.59413078
686,0.9999999999999986
687,0.9999999999999986
688,1.9999999999999971
2,1, 1,21, 0,10,50.00,60.00,WinterDesignDay
250,20.963976449744447
251,14064841.454162672
336,0.0
385,20.92788284613794
386,26.669024598323283
387,-17.584261258763735
388,0.0
425,0.0
450,0.0
451,0.0
452,-18.261065284420898
453,0.0
490,0.0
515,0.0
516,0.0
542,0.0
592,0.0
632,13666593.514735967
686,1.0000000000000009
687,1.0000000000000009
688,2.0000000000000018
2,1, 1,21, 0,11, 0.00,10.00,WinterDesignDay
250,21.20636735695801
251,15073650.720424183
336,0.0
385,21.59454951280459
386,26.66902459832326
387,-17.584157420936254
388,0.0
425,0.0
450,0.0
451,0.0
452,-18.26100880048964
453,0.0
490,0.0
515,0.0
516,0.0
542,0.0
592,0.0
632,15549325.251427712
686,1.0
687,1.0
688,2.0
2,1, 1,21, 0,11,10.00,20.00,WinterDesignDay
250,21.55980535565203
251,16152173.918206943
336,0.0
385,21.59454951280459
386,26.66902459832326
387,-17.584155046793448
388,0.0
425,0.0
450,0.0
451,0.0
452,-18.260864566315924
453,0.0
490,0.0
515,0.0
516,0.0
542,0.0
592,0.0
632,15994845.284622505
686,1.0
687,1.0
688,2.0
2,1, 1,21, 0,11,20.00,30.00,WinterDesignDay
250,20.616060350546526
251,15091369.91715554
336,0.0
385,20.92788284613794
386,26.669024598323283
387,-17.584260114499827
388,0.0
425,0.0
450,0.0
451,0.0
452,-18.260945854970945
453,0.0
490,0.0
515,0.0
516,0.0
542,0.0
592,0.0
632,14742107.609047234
686,1.0000000000000007
687,1.0000000000000007
688,2.0000000000000013
2,1, 1,21, 0,11,30.00,40.00,WinterDesignDay
250,20.963976449699658
251,14064841.472719995
336,0.0
385,20.92788284613794
386,26.669024598323283
387,-17.584263481168655
388,0.0
425,0.0
450,0.0
451,0.0
452,-18.261065501707364
453,0.0
490,0.0
515,0.0
516,0.0
542,0.0
592,0.0
632,13666593.533443939
686,1.0000000000000009
687,1.0000000000000009
688,2.0000000000000018
2,1, 1,21, 0,11,40.00,50.00,WinterDesignDay
250,21.20636735707385
251,15073650.738877624
336,0.0
385,21.59454951280459
386,26.66902459832326
387,-17.584159609599816
388,0.0
425,0.0
450,0.0
451,0.0
452,-18.26100901447413
453,0.0
490,0.0
515,0.0
516,0.0
542,0.0
592,0.0
632,15549325.269962344
686,1.0
687,1.0
688,2.0
2,1, 1,21, 0,11,50.00,60.00,WinterDesignDay
250,21.55980535566973
251,16152173.936873153
336,0.0
385,21.59454951280459
386,26.66902459832326
387,-17.58415720601472
388,0.0
425,0.0
450,0.0
451,0.0
452,-18.260864777492138
453,0.0
490,0.0
515,0.0
516,0.0
542,0.0
592,0.0
632,15994845.303259334
686,1.0
687,1.0
688,2.0
2,1, 1,21, 0,12, 0.00,10.00,WinterDesignDay
250,20.616060349713365
251,15091369.931517748
336,0.0
385,20.927882846137926
386,26.66902459832326
387,-17.58426224871816
388,0.0
425,0.0
450,0.0
451,0.0
452,-18.260946063711927
453,0.0
490,0.0
515,0.0
516,0.0
542,0.0
592,0.0
632,14742107.623193016
686,1.0
687,1.0
688,2.0
2,1, 1,21, 0,12,10.00,20.00,WinterDesignDay
250,20.963976449657167
251,14064841.490318406
336,0.0
385,20.927882846137923
386,26.66902459832326
387,-17.58426558875023
388,0.0
425,0.0
450,0.0
451,0.0
452,-18.261065707768587
453,0.0
490,0.0
515,0.0
516,0.0
542,0.0
592,0.0
632,13666593.551185217
686,1.0
687,1.0
688,2.0
2,1, 1,21, 0,12,20.00,30.00,WinterDesignDay
250,21.206367357183698
251,15073650.75637754
336,0.0
385,21.59454951280459
386,26.66902459832326
387,-17.584161685183002
388,0.0
425,0.0
450,0.0
451,0.0
452,-18.261009217403966
453,0.0
490,0.0
515,0.0
516,0.0
542,0.0
592,0.0
632,15549325.287539255
686,1.0
687,1.0
688,2.0
2,1, 1,21, 0,12,30.00,40.00,WinterDesignDay
250,21.559805355686514
251,16152173.954574917
336,0.0
385,21.59454951280459
386,26.66902459832326
387,-17.58415925367661
388,0.0
425,0.0
450,0.0
451,0.0
452,-18.26086497775876
453,0.0
490,0.0
515,0.0
516,0.0
542,0.0
592,0.0
632,15994845.320933243
686,1.0
687,1.0
688,2.0
2,1, 1,21, 0,12,40.00,50.00,WinterDesignDay
250,20.61606034892324
251,15091369.945137903
336,0.0
385,20.927882846137894
386,26.669024598323222
387,-17.58426427266835
388,0.0
425,0.0
450,0.0
451,0.0
452,-18.260946261669083
453,0.0
490,0.0
515,0.0
516,0.0
542,0.0
592,0.0
632,14742107.63660793
686,0.9999999999999986
687,0.9999999999999986
688,1.9999999999999971
2,1, 1,21, 0,12,50.00,60.00,WinterDesignDay
250,20.963976449616904
251,14064841.5070076
336,0.0
385,20.92788284613794
386,26.669024598323283
387,-17.584267587439648
388,0.0
425,0.0
450,0.0
451,0.0
452,-18.261065903184452
453,0.0
490,0.0
515,0.0
516,0.0
542,0.0
592,0.0
632,13666593.568009894
686,1.0000000000000009
687,1.0000000000000009
688,2.0000000000000018
2,1, 1,21, 0,13, 0.00,10.00,WinterDesignDay
250,21.20636735728788
251,15073650.77297341
336,0.0
385,21.59454951280459
386,26.66902459832326
387,-17.584163653527362
388,0.0
425,0.0
450,0.0
451,0.0
452,-18.26100940985016
453,0.0
490,0.0
515,0.0
516,0.0
542,0.0
592,0.0
632,15549325.30420814
686,1.0
687,1.0
688,2.0
2,1, 1,21, 0,13,10.00,20.00,WinterDesignDay
250,21.55980535570243
251,16152173.971362047
336,0.0
385,21.59454951280459
386,26.66902459832326
387,-17.58416119554211
388,0.0
425,0.0
450,0.0
451,0.0
452,-18.260865167679295
453,0.0
490,0.0
515,0.0
516,0.0
542,0.0
592,0.0
632,15994845.337693952
686,1.0
687,1.0
688,2.0
2,1, 1,21, 0,13,20.00,30.00,WinterDesignDay
250,20.616060348174024
251,15091369.958054282
336,0.0
385,20.92788284613794
386,26.669024598323283
387,-17.58426619204727
388,0.0
425,0.0
450,0.0
451,0.0
452,-18.260946449399516
453,0.0
490,0.0
515,0.0
516,0.0
542,0.0
592,0.0
632,14742107.649329666
686,1.0000000000000007
687,1.0000000000000007
688,2.0000000000000013
2,1, 1,21, 0,13,30.00,40.00,WinterDesignDay
250,20.963976449578706
251,14064841.522834526
336,0.0
385,20.92788284613794
386,26.669024598323283
387,-17.584269482863142
388,0.0
425,0.0
450,0.0
451,0.0
452,-18.26106608850476
453,0.0
490,0.0
515,0.0
516,0.0
542,0.0
592,0.0
632,13666593.583965305
686,1.0000000000000009
687,1.0000000000000009
688,2.0000000000000018
2,1, 1,21, 0,13,40.00,50.00,WinterDesignDay
250,21.20636735738667
251,15073650.788711743
336,0.0
385,21.59454951280459
386,26.66902459832326
387,-17.584165520173908
388,0.0
425,0.0
450,0.0
451,0.0
452,-18.261009592354213
453,0.0
490,0.0
515,0.0
516,0.0
542,0.0
592,0.0
632,15549325.320015717
686,1.0
687,1.0
688,2.0
2,1, 1,21, 0,13,50.00,60.00,WinterDesignDay
250,21.559805355717522
251,16152173.987281818
336,0.0
385,21.59454951280459
386,26.66902459832326
387,-17.584163037077836
388,0.0
425,0.0
450,0.0
451,0.0
452,-18.26086534778816
453,0.0
490,0.0
515,0.0
516,0.0
542,0.0
592,0.0
632,15994845.353588667
686,1.0
687,1.0
688,2.0
2,1, 1,21, 0,14, 0.00,10.00,WinterDesignDay
250,20.616060347463446
251,15091369.97030332
336,0.0
385,20.927882846137926
386,26.66902459832326
387,-17.5842680122583
388,0.0
425,0.0
450,0.0
451,0.0
452,-18.26094662743136
453,0.0
490,0.0
515,0.0
516,0.0
542,0.0
592,0.0
632,14742107.661394123
686,1.0
687,1.0
688,2.0
2,1, 1,21, 0,14,10.00,20.00,WinterDesignDay
250,20.96397644954246
251,14064841.537843669
336,0.0
385,20.927882846137923
386,26.66902459832326
387,-17.584271280355907
388,0.0
425,0.0
450,0.0
451,0.0
452,-18.26106626425104
453,0.0
490,0.0
515,0.0
516,0.0
542,0.0
592,0.0
632,13666593.599096293
686,1.0
687,1.0
688,2.0
2,1, 1,21, 0,14,20.00,30.00,WinterDesignDay
250,21.206367357480357
251,15073650.803636914
336,0.0
385,21.59454951280459
386,26.66902459832326
387,-17.584167290375785
388,0.0
425,0.0
450,0.0
451,0.0
452,-18.261009765429733
453,0.0
490,0.0
515,0.0
516,0.0
542,0.0
592,0.0
632,15549325.33500656
686,1.0
687,1.0
688,2.0
2,1, 1,21, 0,14,30.00,40.00,WinterDesignDay
250,21.55980535573184
251,16152174.002379078
336,0.0
385,21.59454951280459
386,26.66902459832326
387,-17.584164783466306
388,0.0
425,0.0
450,0.0
451,0.0
452,-18.2608655185922
453,0.0
490,0.0
515,0.0
516,0.0
542,0.0
592,0.0
632,15994845.368662171
686,1.0
687,1.0
688,2.0
2,1, 1,21, 0,14,40.00,50.00,WinterDesignDay
250,20.616060346789574
251,15091369.981919507
336,0.0
385,20.927882846137894
386,26.669024598323222
387,-17.584269738423853
388,0.0
425,0.0
450,0.0
451,0.0
452,-18.260946796265635
453,0.0
490,0.0
515,0.0
516,0.0
542,0.0
592,0.0
632,14742107.67283526
686,0.9999999999999986
687,0.9999999999999986
688,1.9999999999999971
2,1, 1,21, 0,14,50.00,60.00,WinterDesignDay
250,20.963976449508127
251,14064841.552077428
336,0.0
385,20.92788284613794