Program Version,EnergyPlus, Version 24.2.0-94a887817b, YMD=2025.02.04 15:37
1,5,Environment Title[],Latitude[deg],Longitude[deg],Time Zone[],Elevation[m]
2,8,Day of Simulation[],Month[],Day of Month[],DST Indicator[1=yes 0=no],Hour[],StartMinute[],EndMinute[],DayType
3,5,Cumulative Day of Simulation[],Month[],Day of Month[],DST Indicator[1=yes 0=no],DayType  ! When Daily Meters Requested
4,2,Cumulative Days of Simulation[],Month[]  ! When Monthly Meters Requested
5,1,Cumulative Days of Simulation[] ! When Run Period Meters Requested
6,1,Calendar Year of Simulation[] ! When Annual Meters Requested
11,9,Electricity:Facility [J] !Monthly [Value,Min,Day,Hour,Minute,Max,Day,Hour,Minute]
23,9,Electricity:Building [J] !Monthly [Value,Min,Day,Hour,Minute,Max,Day,Hour,Minute]
59,9,InteriorLights:Electricity [J] !Monthly [Value,Min,Day,Hour,Minute,Max,Day,Hour,Minute]
521,9,Electricity:HVAC [J] !Monthly [Value,Min,Day,Hour,Minute,Max,Day,Hour,Minute]
637,9,NaturalGas:Facility [J] !Monthly [Value,Min,Day,Hour,Minute,Max,Day,Hour,Minute]
649,9,NaturalGas:HVAC [J] !Monthly [Value,Min,Day,Hour,Minute,Max,Day,Hour,Minute]
13,11,Electricity:Facility [J] !RunPeriod [Value,Min,Month,Day,Hour,Minute,Max,Month,Day,Hour,Minute]
25,11,Electricity:Building [J] !RunPeriod [Value,Min,Month,Day,Hour,Minute,Max,Month,Day,Hour,Minute]
61,11,InteriorLights:Electricity [J] !RunPeriod [Value,Min,Month,Day,Hour,Minute,Max,Month,Day,Hour,Minute]
523,11,Electricity:HVAC [J] !RunPeriod [Value,Min,Month,Day,Hour,Minute,Max,Month,Day,Hour,Minute]
639,11,NaturalGas:Facility [J] !RunPeriod [Value,Min,Month,Day,Hour,Minute,Max,Month,Day,Hour,Minute]
651,11,NaturalGas:HVAC [J] !RunPeriod [Value,Min,Month,Day,Hour,Minute,Max,Month,Day,Hour,Minute]
End of Data Dictionary
1,RUN PERIOD 1,  41.98, -87.92,  -6.00, 201.00
4,31, 1
11,9830325523.619907,408891.4285714286, 5, 6,50,2984745.284990773,16,13,60
23,991275422.3889384,30000.0, 1, 1,10,615272.0452093484, 1, 9,10
59,970200000.0,30000.0, 1, 1,10,600000.0, 1, 8,10
521,8839050101.230986,378891.4285714286, 5, 6,50,2369473.239781425,16,13,60
637,175821712179.9789,26886572.70958602,21,16,10,41250000.0, 1, 1,30
649,175821712179.9789,26886572.70958602,21,16,10,41250000.0, 1, 1,30
4,59, 2
11,9362862575.315084,99999999999999.0, 5, 6,50,3026206.7252538954,22,15,30
23,866486454.2512459,99999999999999.0, 1, 1,10,-99999999999999.0, 1, 9,10
59,848160000.0,99999999999999.0, 1, 1,10,-99999999999999.0, 1, 8,10
521,8496376121.063895,99999999999999.0, 5, 6,50,2410934.680044547,22,15,30
637,154527213899.42944,25244516.260101218,23,12,20,-99999999999999.0, 1, 1,30
649,154527213899.42944,25244516.260101218,23,12,20,-99999999999999.0, 1, 1,30
4,90, 3
11,10650814903.145052,30000.0,10,12,10,3027759.1599249966,12,17,60
23,916722776.9638103,99999999999999.0, 1, 1,10,-99999999999999.0, 1, 9,10
59,897480000.0,99999999999999.0, 1, 1,10,-99999999999999.0, 1, 8,10
521,9734092126.181194,0.0,10,12,10,2412487.1147156483, 9,11,60
637,152829005795.49698,0.0,10,12,10,-99999999999999.0, 1, 1,30
649,152829005795.49698,0.0,10,12,10,-99999999999999.0, 1, 1,30
4,120, 4
11,8551709384.277149,99999999999999.0,10,12,10,-99999999999999.0,12,17,60
23,949735796.3447291,99999999999999.0, 1, 1,10,-99999999999999.0, 1, 9,10
59,929520000.0,99999999999999.0, 1, 1,10,-99999999999999.0, 1, 8,10
521,7601973587.93253,99999999999999.0,10,12,10,-99999999999999.0, 9,11,60
637,107152559801.1886,99999999999999.0,10,12,10,-99999999999999.0, 1, 1,30
649,107152559801.1886,99999999999999.0,10,12,10,-99999999999999.0, 1, 1,30
4,151, 5
11,6320296763.895944,99999999999999.0,10,12,10,-99999999999999.0,12,17,60
23,991536855.8834901,99999999999999.0, 1, 1,10,630372.7412532867,28,13,40
59,970200000.0,99999999999999.0, 1, 1,10,-99999999999999.0, 1, 8,10
521,5328759908.0126705,99999999999999.0,10,12,10,-99999999999999.0, 9,11,60
637,65278962119.30358,99999999999999.0,10,12,10,-99999999999999.0, 1, 1,30
649,65278962119.30358,99999999999999.0,10,12,10,-99999999999999.0, 1, 1,30
4,181, 6
11,3590615189.5807934,99999999999999.0,10,12,10,-99999999999999.0,12,17,60
23,875253470.7897065,99999999999999.0, 1, 1,10,-99999999999999.0,28,13,40
59,856800000.0,99999999999999.0, 1, 1,10,-99999999999999.0, 1, 8,10
521,2715361718.791077,99999999999999.0,10,12,10,-99999999999999.0, 9,11,60
637,16803166505.133,99999999999999.0,10,12,10,-99999999999999.0, 1, 1,30
649,16803166505.133,99999999999999.0,10,12,10,-99999999999999.0, 1, 1,30
4,212, 7
11,3462234203.132906,99999999999999.0,10,12,10,-99999999999999.0,12,17,60
23,991538532.9015135,99999999999999.0, 1, 1,10,-99999999999999.0,28,13,40
59,970200000.0,99999999999999.0, 1, 1,10,-99999999999999.0, 1, 8,10
521,2470695670.2313943,99999999999999.0,10,12,10,-99999999999999.0, 9,11,60
637,1676478606.7044685,99999999999999.0,10,12,10,-99999999999999.0, 1, 1,30
649,1676478606.7044685,99999999999999.0,10,12,10,-99999999999999.0, 1, 1,30
4,243, 8
11,2195370900.6327276,99999999999999.0,10,12,10,-99999999999999.0,12,17,60
23,954245898.6116275,99999999999999.0, 1, 1,10,631421.9611019125,12,14,10
59,933840000.0,99999999999999.0, 1, 1,10,-99999999999999.0, 1, 8,10
521,1241125002.0210752,99999999999999.0,10,12,10,-99999999999999.0, 9,11,60
637,6003108031.283771,99999999999999.0,10,12,10,-99999999999999.0, 1, 1,30
649,6003108031.283771,99999999999999.0,10,12,10,-99999999999999.0, 1, 1,30
4,273, 9
11,3752441776.5402985,99999999999999.0,10,12,10,-99999999999999.0,12,17,60
23,912417929.1737279,99999999999999.0, 1, 1,10,-99999999999999.0,12,14,10
59,893160000.0,99999999999999.0, 1, 1,10,-99999999999999.0, 1, 8,10
521,2840023847.3665366,99999999999999.0,10,12,10,-99999999999999.0, 9,11,60
637,31278580675.39154,99999999999999.0,10,12,10,-99999999999999.0, 1, 1,30
649,31278580675.39154,99999999999999.0,10,12,10,-99999999999999.0, 1, 1,30
4,304,10
11,8734377557.236458,99999999999999.0,10,12,10,-99999999999999.0,12,17,60
23,991372676.8635856,99999999999999.0, 1, 1,10,640168.4443894873,22,16,10
59,970200000.0,99999999999999.0, 1, 1,10,-99999999999999.0, 1, 8,10
521,7743004880.372969,99999999999999.0,10,12,10,-99999999999999.0, 9,11,60
637,104272313462.57642,99999999999999.0,10,12,10,-99999999999999.0, 1, 1,30
649,104272313462.57642,99999999999999.0,10,12,10,-99999999999999.0, 1, 1,30
4,334,11
11,9340039521.196253,99999999999999.0,10,12,10,-99999999999999.0,12,17,60
23,912402776.9638103,99999999999999.0, 1, 1,10,-99999999999999.0,22,16,10
59,893160000.0,99999999999999.0, 1, 1,10,-99999999999999.0, 1, 8,10
521,8427636744.232472,99999999999999.0,10,12,10,-99999999999999.0, 9,11,60
637,131302086126.09329,99999999999999.0,10,12,10,-99999999999999.0, 1, 1,30
649,131302086126.09329,99999999999999.0,10,12,10,-99999999999999.0, 1, 1,30
4,365,12
11,10442949720.060156,99999999999999.0,10,12,10,-99999999999999.0,12,17,60
23,953999099.6763743,99999999999999.0, 1, 1,10,-99999999999999.0,22,16,10
59,933840000.0,99999999999999.0, 1, 1,10,-99999999999999.0, 1, 8,10
521,9488950620.383821,99999999999999.0,10,12,10,-99999999999999.0, 9,11,60
637,176423642170.42178,99999999999999.0,10,12,10,-99999999999999.0, 1, 1,30
649,176423642170.42178,99999999999999.0,10,12,10,-99999999999999.0, 1, 1,30
5,365
13,86234038018.64893,30000.0, 3,10,12,10,3027759.1599249966, 3,12,17,60
25,11306987690.812002,30000.0, 1, 1, 1,10,640168.4443894873,10,22,16,10
61,11066760000.0,30000.0, 1, 1, 1,10,600000.0, 1, 1, 8,10
523,74927050327.82375,0.0, 3,10,12,10,2412487.1147156483, 3, 9,11,60
639,1123368829373.0051,0.0, 3,10,12,10,41250000.0, 1, 1, 1,30
651,1123368829373.0051,0.0, 3,10,12,10,41250000.0, 1, 1, 1,30
1,RUN PERIOD 2,  41.98, -87.92,  -6.00, 201.00
4,1, 7
11,64634614.73858759,99999999999999.0,10,12,10,-99999999999999.0,12,17,60
23,41596322.71256089,99999999999999.0, 1, 1,10,-99999999999999.0,22,16,10
59,40680000.0,99999999999999.0, 1, 1,10,-99999999999999.0, 1, 8,10
521,23038292.02602669,99999999999999.0,10,12,10,-99999999999999.0, 9,11,60
637,0.0,99999999999999.0,10,12,10,-99999999999999.0, 1, 1,30
649,0.0,99999999999999.0,10,12,10,-99999999999999.0, 1, 1,30
5,1
13,64634614.73858759,99999999999999.0, 3,10,12,10,-99999999999999.0, 3,12,17,60
25,41596322.71256089,99999999999999.0, 1, 1, 1,10,-99999999999999.0,10,22,16,10
61,40680000.0,99999999999999.0, 1, 1, 1,10,-99999999999999.0, 1, 1, 8,10
523,23038292.02602669,99999999999999.0, 3,10,12,10,-99999999999999.0, 3, 9,11,60
639,0.0,99999999999999.0, 3,10,12,10,-99999999999999.0, 1, 1, 1,30
651,0.0,99999999999999.0, 3,10,12,10,-99999999999999.0, 1, 1, 1,30
End of Data
 Number of Records Written=          90
