Program Version,EnergyPlus, Version 24.2.0-94a887817b, YMD=2025.01.22 00:03
1,5,Environment Title[],Latitude[deg],Longitude[deg],Time Zone[],Elevation[m]
2,8,Day of Simulation[],Month[],Day of Month[],DST Indicator[1=yes 0=no],Hour[],StartMinute[],EndMinute[],DayType
3,5,Cumulative Day of Simulation[],Month[],Day of Month[],DST Indicator[1=yes 0=no],DayType  ! When Daily Meters Requested
4,2,Cumulative Days of Simulation[],Month[]  ! When Monthly Meters Requested
5,1,Cumulative Days of Simulation[] ! When Run Period Meters Requested
6,1,Calendar Year of Simulation[] ! When Annual Meters Requested
11,9,Electricity:Facility [J] !Monthly [Value,Min,Day,Hour,Minute,Max,Day,Hour,Minute]
23,9,Electricity:Building [J] !Monthly [Value,Min,Day,Hour,Minute,Max,Day,Hour,Minute]
59,9,InteriorLights:Electricity [J] !Monthly [Value,Min,Day,Hour,Minute,Max,Day,Hour,Minute]
521,9,Electricity:HVAC [J] !Monthly [Value,Min,Day,Hour,Minute,Max,Day,Hour,Minute]
637,9,NaturalGas:Facility [J] !Monthly [Value,Min,Day,Hour,Minute,Max,Day,Hour,Minute]
649,9,NaturalGas:HVAC [J] !Monthly [Value,Min,Day,Hour,Minute,Max,Day,Hour,Minute]
13,11,Electricity:Facility [J] !RunPeriod [Value,Min,Month,Day,Hour,Minute,Max,Month,Day,Hour,Minute]
25,11,Electricity:Building [J] !RunPeriod [Value,Min,Month,Day,Hour,Minute,Max,Month,Day,Hour,Minute]
61,11,InteriorLights:Electricity [J] !RunPeriod [Value,Min,Month,Day,Hour,Minute,Max,Month,Day,Hour,Minute]
523,11,Electricity:HVAC [J] !RunPeriod [Value,Min,Month,Day,Hour,Minute,Max,Month,Day,Hour,Minute]
639,11,NaturalGas:Facility [J] !RunPeriod [Value,Min,Month,Day,Hour,Minute,Max,Month,Day,Hour,Minute]
651,11,NaturalGas:HVAC [J] !RunPeriod [Value,Min,Month,Day,Hour,Minute,Max,Month,Day,Hour,Minute]
End of Data Dictionary
1,RUN PERIOD 1,  41.98, -87.92,  -6.00, 201.00
4,31, 1
11,9834084740.92357,408891.4285714286, 5, 6,50,2987469.3555006734,16,13,60
23,995034639.6925368,30000.0, 1, 1,10,617996.1157192488, 1, 9,10
59,970200000.0,30000.0, 1, 1,10,600000.0, 1, 8,10
521,8839050101.230986,378891.4285714286, 5, 6,50,2369473.239781425,16,13,60
637,179013448389.31213,28251648.49995689,21,16,10,41250000.0, 1, 1,10
649,179013448389.31213,28251648.49995689,21,16,10,41250000.0, 1, 1,10
4,59, 2
11,9366131459.926966,99999999999999.0, 5, 6,50,3028930.7957637957,22,15,30
23,869755338.8630801,99999999999999.0, 1, 1,10,-99999999999999.0, 1, 9,10
59,848160000.0,99999999999999.0, 1, 1,10,-99999999999999.0, 1, 8,10
521,8496376121.063895,99999999999999.0, 5, 6,50,2410934.680044547,22,15,30
637,158397970404.2096,26563187.259880994,23,12,10,-99999999999999.0, 1, 1,10
649,158397970404.2096,26563187.259880994,23,12,10,-99999999999999.0, 1, 1,10
4,90, 3
11,11022438850.450974,99999999999999.0, 5, 6,50,3277878.538606175,27,16,10
23,920155105.8062321,99999999999999.0, 1, 1,10,-99999999999999.0, 1, 9,10
59,897480000.0,99999999999999.0, 1, 1,10,-99999999999999.0, 1, 8,10
521,10102283744.6447,99999999999999.0, 5, 6,50,2659882.422886926,27,16,10
637,162844770057.54016,21035020.556432016,27,16,10,-99999999999999.0, 1, 1,10
649,162844770057.54016,21035020.556432016,27,16,10,-99999999999999.0, 1, 1,10
4,120, 4
11,10132402866.378483,30000.0,11,19,10,3305149.220472903,24,12,10
23,953289588.0710949,99999999999999.0, 1, 1,10,-99999999999999.0, 1, 9,10
59,929520000.0,99999999999999.0, 1, 1,10,-99999999999999.0, 1, 8,10
521,9179113278.307394,0.0,11,14,40,2687153.104753654,24,12,10
637,124219200931.263,0.0,11,14,40,-99999999999999.0, 1, 1,10
649,124219200931.263,0.0,11,14,40,-99999999999999.0, 1, 1,10
4,151, 5
11,10110582262.306295,99999999999999.0,11,19,10,-99999999999999.0,24,12,10
23,995349105.2079307,99999999999999.0, 1, 1,10,633908.1987114158,28,13,10
59,970200000.0,99999999999999.0, 1, 1,10,-99999999999999.0, 1, 8,10
521,9115233157.09838,99999999999999.0,11,14,40,2691451.136210375,26,14,20
637,100047209918.87582,99999999999999.0,11,14,40,-99999999999999.0, 1, 1,10
649,100047209918.87582,99999999999999.0,11,14,40,-99999999999999.0, 1, 1,10
4,181, 6
11,8822212480.927174,99999999999999.0,11,19,10,3307005.9759772085,13,10,50
23,878421379.9208566,99999999999999.0, 1, 1,10,-99999999999999.0,28,13,10
59,856800000.0,99999999999999.0, 1, 1,10,-99999999999999.0, 1, 8,10
521,7943791101.006292,99999999999999.0,11,14,40,-99999999999999.0,26,14,20
637,52761391485.5748,99999999999999.0,11,14,40,-99999999999999.0, 1, 1,10
649,52761391485.5748,99999999999999.0,11,14,40,-99999999999999.0, 1, 1,10
4,212, 7
11,8425062602.909467,99999999999999.0,11,19,10,-99999999999999.0,13,10,50
23,995283652.9005203,99999999999999.0, 1, 1,10,-99999999999999.0,28,13,10
59,970200000.0,99999999999999.0, 1, 1,10,-99999999999999.0, 1, 8,10
521,7429778950.008914,99999999999999.0,11,14,40,-99999999999999.0,26,14,20
637,26668131337.134148,99999999999999.0,11,14,40,-99999999999999.0, 1, 1,10
649,26668131337.134148,99999999999999.0,11,14,40,-99999999999999.0, 1, 1,10
4,243, 8
11,8317616517.877805,99999999999999.0,11,19,10,3307262.4429757716,16,11,20
23,957877284.2096609,99999999999999.0, 1, 1,10,634010.8050327528,12,14,10
59,933840000.0,99999999999999.0, 1, 1,10,-99999999999999.0, 1, 8,10
521,7359739233.668259,99999999999999.0,11,14,40,-99999999999999.0,26,14,20
637,45619905708.28884,99999999999999.0,11,14,40,-99999999999999.0, 1, 1,10
649,45619905708.28884,99999999999999.0,11,14,40,-99999999999999.0, 1, 1,10
4,273, 9
11,9467158317.521425,99999999999999.0,11,19,10,3308787.8624728993, 3,13,30
23,915920326.1582048,99999999999999.0, 1, 1,10,-99999999999999.0,12,14,10
59,893160000.0,99999999999999.0, 1, 1,10,-99999999999999.0, 1, 8,10
521,8551237991.3632145,99999999999999.0,11,14,40,-99999999999999.0,26,14,20
637,79550894449.81982,99999999999999.0,11,14,40,-99999999999999.0, 1, 1,10
649,79550894449.81982,99999999999999.0,11,14,40,-99999999999999.0, 1, 1,10
4,304,10
11,10863809515.55484,99999999999999.0,11,19,10,-99999999999999.0, 3,13,30
23,995095348.9379286,99999999999999.0, 1, 1,10,642649.0016658935,22,16,20
59,970200000.0,99999999999999.0, 1, 1,10,-99999999999999.0, 1, 8,10
521,9868714166.61692,99999999999999.0,11,14,40,-99999999999999.0,26,14,20
637,130646104069.32645,99999999999999.0,11,14,40,-99999999999999.0, 1, 1,10
649,130646104069.32645,99999999999999.0,11,14,40,-99999999999999.0, 1, 1,10
4,334,11
11,10666560247.591858,99999999999999.0,11,19,10,-99999999999999.0, 3,13,30
23,915835105.8062321,99999999999999.0, 1, 1,10,-99999999999999.0,22,16,20
59,893160000.0,99999999999999.0, 1, 1,10,-99999999999999.0, 1, 8,10
521,9750725141.785597,99999999999999.0,11,14,40,-99999999999999.0,26,14,20
637,149345422379.71796,99999999999999.0,11,14,40,-99999999999999.0, 1, 1,10
649,149345422379.71796,99999999999999.0,11,14,40,-99999999999999.0, 1, 1,10
4,365,12
11,10446545493.13321,99999999999999.0,11,19,10,-99999999999999.0, 3,13,30
23,957594872.7493845,99999999999999.0, 1, 1,10,-99999999999999.0,22,16,20
59,933840000.0,99999999999999.0, 1, 1,10,-99999999999999.0, 1, 8,10
521,9488950620.383821,99999999999999.0,11,14,40,-99999999999999.0,26,14,20
637,179850986383.61743,99999999999999.0,11,14,40,-99999999999999.0, 1, 1,10
649,179850986383.61743,99999999999999.0,11,14,40,-99999999999999.0, 1, 1,10
5,365
13,117474605355.51282,30000.0, 4,11,19,10,3308787.8624728993, 9, 3,13,30
25,11349611748.32027,30000.0, 1, 1, 1,10,642649.0016658935,10,22,16,20
61,11066760000.0,30000.0, 1, 1, 1,10,600000.0, 1, 1, 8,10
523,106124993607.18462,0.0, 4,11,14,40,2691451.136210375, 5,26,14,20
639,1388965435514.6763,0.0, 4,11,14,40,41250000.0, 1, 1, 1,10
651,1388965435514.6763,0.0, 4,11,14,40,41250000.0, 1, 1, 1,10
1,RUN PERIOD 2,  41.98, -87.92,  -6.00, 201.00
4,1, 7
11,135678201.3160626,99999999999999.0,11,19,10,-99999999999999.0, 3,13,30
23,41759766.94315494,99999999999999.0, 1, 1,10,-99999999999999.0,22,16,20
59,40680000.0,99999999999999.0, 1, 1,10,-99999999999999.0, 1, 8,10
521,93918434.3729077,99999999999999.0,11,14,40,-99999999999999.0,26,14,20
637,0.0,99999999999999.0,11,14,40,-99999999999999.0, 1, 1,10
649,0.0,99999999999999.0,11,14,40,-99999999999999.0, 1, 1,10
5,1
13,135678201.3160626,99999999999999.0, 4,11,19,10,-99999999999999.0, 9, 3,13,30
25,41759766.94315494,99999999999999.0, 1, 1, 1,10,-99999999999999.0,10,22,16,20
61,40680000.0,99999999999999.0, 1, 1, 1,10,-99999999999999.0, 1, 1, 8,10
523,93918434.3729077,99999999999999.0, 4,11,14,40,-99999999999999.0, 5,26,14,20
639,0.0,99999999999999.0, 4,11,14,40,-99999999999999.0, 1, 1, 1,10
651,0.0,99999999999999.0, 4,11,14,40,-99999999999999.0, 1, 1, 1,10
End of Data
 Number of Records Written=          90
