Program Version,EnergyPlus, Version 24.1.0-9d7789a3ac, YMD=2026.01.15 11:10
1,5,Environment Title[],Latitude[deg],Longitude[deg],Time Zone[],Elevation[m]
2,8,Day of Simulation[],Month[],Day of Month[],DST Indicator[1=yes 0=no],Hour[],StartMinute[],EndMinute[],DayType
3,5,Cumulative Day of Simulation[],Month[],Day of Month[],DST Indicator[1=yes 0=no],DayType  ! When Daily Report Variables Requested
4,2,Cumulative Days of Simulation[],Month[]  ! When Monthly Report Variables Requested
5,1,Cumulative Days of Simulation[] ! When Run Period Report Variables Requested
6,1,Calendar Year of Simulation[] ! When Annual Report Variables Requested
250,1,LIVING ZONE,Zone Air Temperature [C] !TimeStep,REPORTSCH
251,1,LIVING ZONE,Zone Air System Sensible Heating Energy [J] !TimeStep,REPORTSCH
336,1,LIVING ZONE,Zone Air System Sensible Cooling Energy [J] !TimeStep,REPORTSCH
385,1,LIVING ZONE,Zone Thermostat Heating Setpoint Temperature [C] !TimeStep,REPORTSCH
386,1,LIVING ZONE,Zone Thermostat Cooling Setpoint Temperature [C] !TimeStep,REPORTSCH
387,1,GARAGE ZONE,Zone Air Temperature [C] !TimeStep,REPORTSCH
388,1,GARAGE ZONE,Zone Air System Sensible Heating Energy [J] !TimeStep,REPORTSCH
425,1,GARAGE ZONE,Zone Air System Sensible Cooling Energy [J] !TimeStep,REPORTSCH
450,1,GARAGE ZONE,Zone Thermostat Heating Setpoint Temperature [C] !TimeStep,REPORTSCH
451,1,GARAGE ZONE,Zone Thermostat Cooling Setpoint Temperature [C] !TimeStep,REPORTSCH
452,1,ATTIC ZONE,Zone Air Temperature [C] !TimeStep,REPORTSCH
453,1,ATTIC ZONE,Zone Air System Sensible Heating Energy [J] !TimeStep,REPORTSCH
490,1,ATTIC ZONE,Zone Air System Sensible Cooling Energy [J] !TimeStep,REPORTSCH
515,1,ATTIC ZONE,Zone Thermostat Heating Setpoint Temperature [C] !TimeStep,REPORTSCH
516,1,ATTIC ZONE,Zone Thermostat Cooling Setpoint Temperature [C] !TimeStep,REPORTSCH
542,1,ACDXCOIL 1,Cooling Coil Total Cooling Energy [J] !TimeStep,REPORTSCH
592,1,HEAT PUMP DX HEATING COIL 1,Heating Coil Heating Energy [J] !TimeStep,REPORTSCH
632,1,SUPP HEATING COIL 1,Heating Coil Heating Energy [J] !TimeStep,REPORTSCH
686,1,TWOSPEED HEAT PUMP 1,Unitary System DX Coil Cycling Ratio [] !TimeStep,REPORTSCH
687,1,TWOSPEED HEAT PUMP 1,Unitary System DX Coil Speed Ratio [] !TimeStep,REPORTSCH
688,1,TWOSPEED HEAT PUMP 1,Unitary System DX Coil Speed Level [] !TimeStep
End of Data Dictionary
1,RUN PERIOD 1,  41.98, -87.92,  -6.00, 201.00
2,21, 1,21, 0, 1, 0.00,10.00,Saturday
250,23.954178340686077
251,7955064.210652692
336,0.0
385,24.0
386,26.6
387,0.1840369475796797
388,0.0
425,0.0
450,0.0
451,0.0
452,-1.5841995948511558
453,0.0
490,0.0
515,0.0
516,0.0
542,0.0
592,4876118.623349026
632,2945836.0287503432
686,1.0
687,1.0
688,2.0
2,21, 1,21, 0, 1,10.00,20.00,Saturday
250,22.89912020004297
251,5835340.652868481
336,0.0
385,22.666666666666664
386,26.6
387,0.1632174932284466
388,0.0
425,0.0
450,0.0
451,0.0
452,-1.5754495191492837
453,0.0
490,0.0
515,0.0
516,0.0
542,0.0
592,2608367.27636836
632,3130711.7778009064
686,0.5504865233205078
687,0.5
688,1.1666666666666665
2,21, 1,21, 0, 1,20.00,30.00,Saturday
250,23.292097105939206
251,5710095.553083573
336,0.0
385,23.33333333333332
386,26.59999999999999
387,0.14163603208733305
388,0.0
425,0.0
450,0.0
451,0.0
452,-1.5683281863596603
453,0.0
490,0.0
515,0.0
516,0.0
542,0.0
592,3411994.335440907
632,2263058.996984143
686,0.7186675571852116
687,0.6666666666666664
688,1.666666666666666
2,21, 1,21, 0, 1,30.00,40.00,Saturday
250,23.52692380180791
251,6977013.348886072
336,0.0
385,24.00000000000001
386,26.600000000000012
387,0.11669861581773414
388,0.0
425,0.0
450,0.0
451,0.0
452,-1.5623640069614022
453,0.0
490,0.0
515,0.0
516,0.0
542,0.0
592,4831379.183340212
632,2689225.624733322
686,1.0000000000000004
687,1.0000000000000004
688,2.000000000000001
2,21, 1,21, 0, 1,40.00,50.00,Saturday
250,23.954985085506316
251,8088117.254769529
336,0.0
385,24.0
386,26.6
387,0.09466968375725783
388,0.0
425,0.0
450,0.0
451,0.0
452,-1.5594015043428109
453,0.0
490,0.0
515,0.0
516,0.0
542,0.0
592,4812841.12045753
632,3140335.6165442895
686,1.0
687,1.0
688,2.0
2,21, 1,21, 0, 1,50.00,60.00,Saturday
250,22.893160272160927
251,5950557.924081413
336,0.0
385,22.666666666666636
386,26.599999999999962
387,0.07574538251335629
388,0.0
425,0.0
450,0.0
451,0.0
452,-1.5589729442486204
453,0.0
490,0.0
515,0.0
516,0.0
542,0.0
592,2596425.358595762
632,3259684.8816986885
686,0.5568440721524733
687,0.49999999999999933
688,1.166666666666665
2,21, 1,21, 0, 2, 0.00,10.00,Saturday
250,23.293779068021102
251,5814560.198484714
336,0.0
385,23.333333333333336
386,26.6
387,0.05567245239979356
388,0.0
425,0.0
450,0.0
451,0.0
452,-1.5604029630401262
453,0.0
490,0.0
515,0.0
516,0.0
542,0.0
592,3406984.8557699095
632,2364834.4565537637
686,0.7268749650409766
687,0.6666666666666666
688,1.6666666666666665
2,21, 1,21, 0, 2,10.00,20.00,Saturday
250,23.52964006444348
251,7053987.343715368
336,0.0
385,24.0
386,26.6
387,0.03199792067241571
388,0.0
425,0.0
450,0.0
451,0.0
452,-1.5650089751264
453,0.0
490,0.0
515,0.0
516,0.0
542,0.0
592,4799730.077590602
632,2796292.7209778633
686,1.0
687,1.0
688,2.0
2,21, 1,21, 0, 2,20.00,30.00,Saturday
250,23.95530236212559
251,8147374.869694684
336,0.0
385,24.0
386,26.6
387,0.010721751794642725
388,0.0
425,0.0
450,0.0
451,0.0
452,-1.5727315122601686
453,0.0
490,0.0
515,0.0
516,0.0
542,0.0
592,4797025.276005209
632,3214701.68670425
686,1.0
687,1.0
688,2.0
2,21, 1,21, 0, 2,30.00,40.00,Saturday
250,22.89110204820643
251,5989963.682529377
336,0.0
385,22.66666666666665
386,26.59999999999998
387,-0.00793735942108107
388,0.0
425,0.0
450,0.0
451,0.0
452,-1.5833044457210246
453,0.0
490,0.0
515,0.0
516,0.0
542,0.0
592,2603395.402667455
632,3292781.27277381
686,0.5588569149089956
687,0.49999999999999967
688,1.1666666666666659
2,21, 1,21, 0, 2,40.00,50.00,Saturday
250,23.29437107079513
251,5854012.5044632405
336,0.0
385,23.333333333333353
386,26.600000000000023
387,-0.027986242078802633
388,0.0
425,0.0
450,0.0
451,0.0
452,-1.5969370133110306
453,0.0
490,0.0
515,0.0
516,0.0
542,0.0
592,3416875.7374322475
632,2391729.376654214
686,0.7297322521456976
687,0.6666666666666672
688,1.6666666666666679
2,21, 1,21, 0, 2,50.00,60.00,Saturday
250,23.530821821175664
251,7088477.794232431
336,0.0
385,24.0
386,26.6
387,-0.0518607254678352
388,0.0
425,0.0
450,0.0
451,0.0
452,-1.6149916415752743
453,0.0
490,0.0
515,0.0
516,0.0
542,0.0
592,4799730.678424115
632,2830384.0457579875
686,1.0
687,1.0
688,2.0
2,21, 1,21, 0, 3, 0.00,10.00,Saturday
250,23.95545293815445
251,8190086.258399218
336,0.0
385,24.0
386,26.6
387,-0.0728948915323607
388,0.0
425,0.0
450,0.0
451,0.0
452,-1.6304140982435888
453,0.0
490,0.0
515,0.0
516,0.0
542,0.0
592,4797025.276005209
632,3257107.328907416
686,1.0
687,1.0
688,2.0
2,21, 1,21, 0, 3,10.00,20.00,Saturday
250,22.88848612226852
251,6039744.394443179
336,0.0
385,22.666666666666664
386,26.6
387,-0.09054549510461593
388,0.0
425,0.0
450,0.0
451,0.0
452,-1.6398833494128133
453,0.0
490,0.0
515,0.0
516,0.0
542,0.0
592,2612135.9800149277
632,3334669.053016862
686,0.5613810564096935
687,0.5
688,1.1666666666666665
2,21, 1,21, 0, 3,20.00,30.00,Saturday
250,23.29539137291352
251,5917905.836709347
336,0.0
385,23.33333333333332
386,26.59999999999999
387,-0.10876922340388195
388,0.0
425,0.0
450,0.0
451,0.0
452,-1.6448325334590863
453,0.0
490,0.0
515,0.0
516,0.0
542,0.0
592,3433714.3207786214
632,2434102.237037662
686,0.7345968152644633
687,0.6666666666666664
688,1.666666666666666
2,21, 1,21, 0, 3,30.00,40.00,Saturday
250,23.53254346215173
251,7158831.25192593
336,0.0
385,24.00000000000001
386,26.600000000000012
387,-0.12952049901216953
388,0.0
425,0.0
450,0.0
451,0.0
452,-1.6449898329032313
453,0.0
490,0.0
515,0.0
516,0.0
542,0.0
592,4799731.675038322
632,2899905.009400867
686,1.0000000000000004
687,1.0000000000000004
688,2.000000000000001
2,21, 1,21, 0, 3,40.00,50.00,Saturday
250,23.955667269495976
251,8258318.071870873
336,0.0
385,24.0
386,26.6
387,-0.14724273679596317
388,0.0
425,0.0
450,0.0
451,0.0
452,-1.6406860951271884
453,0.0
490,0.0
515,0.0
516,0.0
542,0.0
592,4797025.276005209
632,3324894.1578949094
686,1.0
687,1.0
688,2.0
2,21, 1,21, 0, 3,50.00,60.00,Saturday
250,22.885103159312365
251,6104141.692840457
336,0.0
385,22.666666666666636
386,26.599999999999962
387,-0.16180563427861488
388,0.0
425,0.0
450,0.0
451,0.0
452,-1.6333144447170107
453,0.0
490,0.0
515,0.0
516,0.0
542,0.0
592,2623406.183218212
632,3388897.5722615696
686,0.5646357340279171
687,0.49999999999999933
688,1.166666666666665
2,21, 1,21, 0, 4, 0.00,10.00,Saturday
250,23.297794475796103
251,6057302.33489948
336,0.0
385,23.333333333333336
386,26.6
387,-0.18875292487832301
388,0.0
425,0.0
450,0.0
451,0.0
452,-1.6285307047634832
453,0.0
490,0.0
515,0.0
516,0.0
542,0.0
592,3468650.8920047022
632,2527455.835590932
686,0.7457305825281274
687,0.6666666666666666
688,1.6666666666666665
2,21, 1,21, 0, 4,10.00,20.00,Saturday
250,23.535984599060804
251,7354749.907331587
336,0.0
385,24.0
386,26.6
387,-0.22929616341297812
388,0.0
425,0.0
450,0.0
451,0.0
452,-1.626577300889943
453,0.0
490,0.0
515,0.0
516,0.0
542,0.0
592,4790548.489530689
632,3102843.637639355
686,1.0
687,1.0
688,2.0
2,21, 1,21, 0, 4,20.00,30.00,Saturday
250,23.95612856690192
251,8522552.149987243
336,0.0
385,24.0
386,26.6
387,-0.270363398487411
388,0.0
425,0.0
450,0.0
451,0.0
452,-1.6298056356449093
453,0.0
490,0.0
515,0.0
516,0.0
542,0.0
592,4781920.349114436
632,3603346.620122227
686,1.0
687,1.0
688,2.0
2,21, 1,21, 0, 4,30.00,40.00,Saturday
250,22.867603775445446
251,6435562.626556588
336,0.0
385,22.66666666666665
386,26.59999999999998
387,-0.30960801063898
388,0.0
425,0.0
450,0.0
451,0.0
452,-1.6388682220849404
453,0.0
490,0.0
515,0.0
516,0.0
542,0.0
592,2671035.6539228912
632,3678416.8029157384
686,0.5816763826493724
687,0.49999999999999967
688,1.1666666666666659
2,21, 1,21, 0, 4,40.00,50.00,Saturday
250,23.303546597980606
251,6416021.089211001
336,0.0
385,23.333333333333353
386,26.600000000000023
387,-0.3530800969881801
388,0.0
425,0.0
450,0.0
451,0.0
452,-1.6535032199869044
453,0.0
490,0.0
515,0.0
516,0.0
542,0.0
592,3553821.8565834053
632,2773757.3300774633
686,0.7750328177587263
687,0.6666666666666672
688,1.6666666666666679
2,21, 1,21, 0, 4,50.00,60.00,Saturday
250,23.543120540227555
251,7677900.76208569
336,0.0
385,24.0
386,26.6
387,-0.40631562316506104
388,0.0
425,0.0
450,0.0
451,0.0
452,-1.6745155017942754
453,0.0
490,0.0
515,0.0
516,0.0
542,0.0
592,4770321.985848186
632,3439619.743038049
686,1.0
687,1.0
688,2.0
2,21, 1,21, 0, 5, 0.00,10.00,Saturday
250,23.95692329570106
251,8741168.414824605
336,0.0
385,24.0
386,26.6
387,-0.43144098455382085
388,0.0
425,0.0
450,0.0
451,0.0
452,-1.684992907852147
453,0.0
490,0.0
515,0.0
516,0.0
542,0.0
592,4759821.308645793
632,3842195.948186483
686,1.0
687,1.0
688,2.0
2,21, 1,21, 0, 5,10.00,20.00,Saturday
250,22.86215253188485
251,6539838.872920034
336,0.0
385,22.666666666666664
386,26.6
387,-0.43403584423829383
388,0.0
425,0.0
450,0.0
451,0.0
452,-1.6834376890070468
453,0.0
490,0.0
515,0.0
516,0.0
542,0.0
592,2677797.160254381
632,3777675.968723223
686,0.5873674264924484
687,0.5
688,1.1666666666666665
2,21, 1,21, 0, 5,20.00,30.00,Saturday
250,23.303187470275596
251,6409850.269317375
336,0.0
385,23.33333333333332
386,26.59999999999999
387,-0.43020256109622734
388,0.0
425,0.0
450,0.0
451,0.0
452,-1.672566072093482
453,0.0
490,0.0
515,0.0
516,0.0
542,0.0
592,3534536.8777061114
632,2788373.723714001
686,0.77449897248733
687,0.6666666666666664
688,1.666666666666666
2,21, 1,21, 0, 5,30.00,40.00,Saturday
250,23.542844870521584
251,7553884.666125891
336,0.0
385,24.00000000000001
386,26.600000000000012
387,-0.4205355750130096
388,0.0
425,0.0
450,0.0
451,0.0
452,-1.6495498935303536
453,0.0
490,0.0
515,0.0
516,0.0
542,0.0
592,4743895.1275353115
632,3342081.384281459
686,1.0000000000000004
687,1.0000000000000004
688,2.000000000000001
2,21, 1,21, 0, 5,40.00,50.00,Saturday
250,23.956869041414013
251,8616787.71950287
336,0.0
385,24.0
386,26.6
387,-0.4086164723902618
388,0.0
425,0.0
450,0.0
451,0.0
452,-1.6205244445506117
453,0.0
490,0.0
515,0.0
516,0.0
542,0.0
592,4733209.018464266
632,3744498.2983209407
686,1.0
687,1.0
688,2.0
2,21, 1,21, 0, 5,50.00,60.00,Saturday
250,22.868932699159917
251,6411926.645709866
336,0.0
385,22.666666666666636
386,26.599999999999962
387,-0.39512235974289467
388,0.0
425,0.0
450,0.0
451,0.0
452,-1.5878404064629956
453,0.0
490,0.0
515,0.0
516,0.0
542,0.0
592,2641137.182125819
632,3684098.273741296
686,0.5813031661031018
687,0.49999999999999933
688,1.166666666666665
2,21, 1,21, 0, 6, 0.00,10.00,Saturday
250,23.302741034913304
251,6362906.825190654
336,0.0
385,23.333333333333336
386,26.6
387,-0.4024467919406496
388,0.0
425,0.0
450,0.0
451,0.0
452,-1.5619935423647677
453,0.0
490,0.0
515,0.0
516,0.0
542,0.0
592,3503392.688894785
632,2775009.148600784
686,0.7709638489477448
687,0.6666666666666666
688,1.6666666666666665
2,21, 1,21, 0, 6,10.00,20.00,Saturday
250,23.54270673414685
251,7603833.617668806
336,0.0
385,24.0
386,26.6
387,-0.4277002217302127
388,0.0
425,0.0
450,0.0
451,0.0
452,-1.5451661267807648
453,0.0
490,0.0
515,0.0
516,0.0
542,0.0
592,4720568.041494711
632,3416630.050367501
686,1.0
687,1.0
688,2.0
2,21, 1,21, 0, 6,20.00,30.00,Saturday
250,23.956910150558002
251,8749062.634547388
336,0.0
385,24.0
386,26.6
387,-0.4596949725094799
388,0.0
425,0.0
450,0.0
451,0.0
452,-1.546452878265778
453,0.0
490,0.0
515,0.0
516,0.0
542,0.0
592,4712787.238344819
632,3897251.716483694
686,1.0
687,1.0
688,2.0
2,21, 1,21, 0, 6,30.00,40.00,Saturday
250,22.857375732873862
251,6630603.668739555
336,0.0
385,22.66666666666665
386,26.59999999999998
387,-0.4944145615134345
388,0.0
425,0.0
450,0.0
451,0.0
452,-1.563149438447406
453,0.0
490,0.0
515,0.0
516,0.0
542,0.0
592,2670743.061943733
632,3876972.718161177
686,0.5928528733809354
687,0.49999999999999967
688,1.1666666666666659
2,21, 1,21, 0, 6,40.00,50.00,Saturday
250,23.306590244423397
251,6599846.767782066
336,0.0
385,23.333333333333353
386,26.600000000000023
387,-0.5343372141594764
388,0.0
425,0.0
450,0.0
451,0.0
452,-1.5898485395268165
453,0.0
490,0.0
515,0.0
516,0.0
542,0.0
592,3557453.763989336
632,2939551.280146525
686,0.7909641597643846
687,0.6666666666666672
688,1.6666666666666679
2,21, 1,21, 0, 6,50.00,60.00,Saturday
250,23.547179260152205
251,7815130.075395285
336,0.0
385,24.0
386,26.6
387,-0.5846535167716244
388,0.0
425,0.0
450,0.0
451,0.0
452,-1.629724830685083
453,0.0
490,0.0
515,0.0
516,0.0
542,0.0
592,4703437.99593533
632,3640502.2390157767
686,1.0
687,1.0
688,2.0
2,21, 1,21, 0, 7, 0.00,10.00,Saturday
250,23.95739889249657
251,8928271.285068851
336,0.0
385,24.0
386,26.6
387,-0.6333332639599749
388,0.0
425,0.0
450,0.0
451,0.0
452,-1.6826696839525543
453,0.0
490,0.0
515,0.0
516,0.0
542,0.0
592,4720142.751070037
632,4067938.584547734
686,1.0
687,1.0
688,2.0
2,21, 1,21, 0, 7,10.00,20.00,Saturday
250,22.849908406188142
251,6771784.395455663
336,0.0
385,22.666666666666664
386,26.6
387,-0.6817705287533962
388,0.0
425,0.0
450,0.0
451,0.0
452,-1.7644947201065475
453,0.0
490,0.0
515,0.0
516,0.0
542,0.0
592,2712185.0292995265
632,3979302.37172746
686,0.5995302102137695
687,0.5
688,1.1666666666666665
2,21, 1,21, 0, 7,20.00,30.00,Saturday
250,23.307967250276413
251,6710424.354147557
336,0.0
385,23.33333333333332
386,26.59999999999999
387,-0.7386764213852106
388,0.0
425,0.0
450,0.0
451,0.0
452,-1.8861806170616002
453,0.0
490,0.0
515,0.0
516,0.0
542,0.0
592,3628157.808495882
632,2972681.35935102
686,0.7989549506407136
687,0.6666666666666664
688,1.666666666666666
2,21, 1,21, 0, 7,30.00,40.00,Saturday
250,23.548564478233786
251,7871927.4344233135
336,0.0
385,24.00000000000001
386,26.600000000000012
387,-0.81238568255089
388,0.0
425,0.0
450,0.0
451,0.0
452,-2.0656761417296368
453,0.0
490,0.0
515,0.0
516,0.0
542,0.0
592,4787224.815825097
632,3611386.6109961015
686,1.0000000000000004
687,1.0000000000000004
688,2.000000000000001
2,21, 1,21, 0, 7,40.00,50.00,Saturday
250,23.95753394613441
251,8990278.051215664
336,0.0
385,24.0
386,26.6
387,-0.8838872856010647
388,0.0
425,0.0
450,0.0
451,0.0
452,-2.2580161863798116
453,0.0
490,0.0
515,0.0
516,0.0
542,0.0
592,4800253.5188754555
632,4049450.2064397307
686,1.0
687,1.0
688,2.0
2,21, 1,21, 0, 7,50.00,60.00,Saturday
250,22.846498670147547
251,6835080.591247771
336,0.0
385,22.666666666666636
386,26.599999999999962
387,-0.9520727953989042
388,0.0
425,0.0
450,0.0
451,0.0
452,-2.4585320828614363
453,0.0
490,0.0
515,0.0
516,0.0
542,0.0
592,2762808.5828788653
632,3993338.208977527
686,0.6012889964654835
687,0.49999999999999933
688,1.166666666666665
2,21, 1,21, 0, 8, 0.00,10.00,Saturday
250,23.308573968126236
251,6771498.937977956
336,0.0
385,23.333333333333336
386,26.6
387,-1.0142359893687027
388,0.0
425,0.0
450,0.0
451,0.0
452,-2.6700258598824114
453,0.0
490,0.0
515,0.0
516,0.0
542,0.0
592,3691915.149450203
632,2967026.352614516
686,0.8024942701607929
687,0.6666666666666666
688,1.6666666666666665
2,21, 1,21, 0, 8,10.00,20.00,Saturday
250,23.549430883680568
251,7865727.439399181
336,0.0
385,24.0
386,26.6
387,-1.0726846131288004
388,0.0
425,0.0
450,0.0
451,0.0
452,-2.834179338156009
453,0.0
490,0.0
515,0.0
516,0.0
542,0.0
592,4846677.593947266
632,3544784.8652494983
686,1.0
687,1.0
688,2.0
2,21, 1,21, 0, 8,20.00,30.00,Saturday
250,23.957599805862024
251,8944671.221301977
336,0.0
385,24.0
386,26.6
387,-1.111116165714093
388,0.0
425,0.0
450,0.0
451,0.0
452,-2.849961829765397
453,0.0
490,0.0
515,0.0
516,0.0
542,0.0
592,4850353.090971846
632,3953482.947232968
686,1.0
687,1.0
688,2.0
2,21, 1,21, 0, 8,30.00,40.00,Saturday
250,22.852804708761276
251,6715583.182286688
336,0.0
385,22.66666666666665
386,26.59999999999998
387,-1.1303749943728099
388,0.0
425,0.0
450,0.0
451,0.0
452,-2.737952589592017
453,0.0
490,0.0
515,0.0
516,0.0
542,0.0
592,2763376.328768418
632,3871225.598378312
686,0.5945581196077975
687,0.49999999999999967
688,1.1666666666666659
2,21, 1,21, 0, 8,40.00,50.00,Saturday
250,23.30498269433379
251,6559455.714287575
336,0.0
385,23.333333333333353
386,26.600000000000023
387,-1.139637279759671
388,0.0
425,0.0
450,0.0
451,0.0
452,-2.5254985078181593
453,0.0
490,0.0
515,0.0
516,0.0
542,0.0
592,3661654.7144202506
632,2802102.577794239
686,0.78466708010517
687,0.6666666666666672
688,1.6666666666666679
2,21, 1,21, 0, 8,50.00,60.00,Saturday
250,23.932797914548864
251,8481224.73755891
336,0.0
385,24.0
386,26.6
387,-1.136232343316945
388,0.0
425,0.0
450,0.0
451,0.0
452,-2.213583498191089
453,0.0
490,0.0
515,0.0
516,0.0
542,0.0
592,4882247.51408746
632,3521929.3608116843
686,1.0
687,1.0
688,2.0
2,21, 1,21, 0, 9, 0.00,10.00,Saturday
250,22.85939984757989
251,6569574.764057265
336,0.0
385,22.66666666666666
386,26.599999999999994
387,-1.1087964140749476
388,0.0
425,0.0
450,0.0
451,0.0
452,-1.8383876894351217
453,0.0
490,0.0
515,0.0
516,0.0
542,0.0
592,2758202.241609973
632,3728394.019335154
686,0.5869004674412456
687,0.5
688,1.1666666666666665
2,21, 1,21, 0, 9,10.00,20.00,Saturday
250,23.301553165614212
251,6353303.020230963
336,0.0
385,23.33333333333333
386,26.599999999999998
387,-1.0642089819594587
388,0.0
425,0.0
450,0.0
451,0.0
452,-1.376055913722445
453,0.0
490,0.0
515,0.0
516,0.0
542,0.0
592,3636629.673297656
632,2636950.909982484
686,0.7678859146728672
687,0.6666666666666665
688,1.6666666666666663
2,21, 1,21, 0, 9,20.00,30.00,Saturday
250,23.333831134282125
251,7662322.481380033
336,0.0
385,23.33333333333332
386,26.59999999999999
387,-0.9946444560160332
388,0.0
425,0.0
450,0.0
451,0.0
452,-0.7141976277912276
453,0.0
490,0.0
515,0.0
516,0.0
542,0.0
592,3425644.8596436065
632,4041787.300074054
686,0.8159501929962746
687,0.3827305074658307
688,1.666666666666666
2,21, 1,21, 0, 9,30.00,40.00,Saturday
250,23.33487972818883
251,7619162.953406074
336,0.0
385,23.333333333333353
386,26.600000000000023
387,-0.9298657300351547
388,0.0
425,0.0
450,0.0
451,0.0
452,-0.11172503421097021
453,0.0
490,0.0
515,0.0
516,0.0
542,0.0
592,3439564.049987074
632,3981012.726803741
686,0.8137242568490747
687,0.38927519939925714
688,1.6666666666666679
2,21, 1,21, 0, 9,40.00,50.00,Saturday
250,23.93542186220727
251,8292827.333354381
336,0.0
385,24.0
386,26.6
387,-0.8657477914652181
388,0.0
425,0.0
450,0.0
451,0.0
452,0.39365729295656016
453,0.0
490,0.0
515,0.0
516,0.0
542,0.0
592,4970146.236639471
632,3237743.5592179126
686,1.0
687,1.0
688,2.0
2,21, 1,21, 0, 9,50.00,60.00,Saturday
250,22.871684875059454
251,6339245.157350128
336,0.0
385,22.666666666666636
386,26.599999999999962
387,-0.7956786578911267
388,0.0
425,0.0
450,0.0
451,0.0
452,0.8453900903615071
453,0.0
490,0.0
515,0.0
516,0.0
542,0.0
592,2761656.3044836586
632,3490690.849783751
686,0.5739960455514679
687,0.49999999999999933
688,1.166666666666665
2,21, 1,21, 0,10, 0.00,10.00,Saturday
250,23.29732266484057
251,6094395.496916183
336,0.0
385,23.333333333333336
386,26.6
387,-0.72130081138132
388,0.0
425,0.0
450,0.0
451,0.0
452,1.313841211047232
453,0.0
490,0.0
515,0.0
516,0.0
542,0.0
592,3638369.1568131605
632,2395867.9300947324
686,0.7469000925590357
687,0.6666666666666666
688,1.6666666666666665
2,21, 1,21, 0,10,10.00,20.00,Saturday
250,23.931328297509904
251,8021669.541069155
336,0.0
385,24.0
386,26.6
387,-0.6389468791995221
388,0.0
425,0.0
450,0.0
451,0.0
452,1.815148393612608
453,0.0
490,0.0
515,0.0
516,0.0
542,0.0
592,5054898.555805178
632,2891586.029663322
686,1.0
687,1.0
688,2.0
2,21, 1,21, 0,10,20.00,30.00,Saturday
250,22.883524454053227
251,6109847.9198825015
336,0.0
385,22.666666666666686
386,26.600000000000023
387,-0.5579341035704206
388,0.0
425,0.0
450,0.0
451,0.0
452,2.29573603392878
453,0.0
490,0.0
515,0.0
516,0.0
542,0.0
592,2771733.8738172664
632,3247495.6267208694
686,0.5616369832140355
687,0.5000000000000004
688,1.1666666666666674
2,21, 1,21, 0,10,30.00,40.00,Saturday
250,23.292997464191835
251,5823848.039758802
336,0.0
385,23.333333333333353
386,26.600000000000023
387,-0.4687121061886028
388,0.0
425,0.0
450,0.0
451,0.0
452,2.827470883190986
453,0.0
490,0.0
515,0.0
516,0.0
542,0.0
592,3634092.170887251
632,2149409.0890596365
686,0.7260846004515163
687,0.6666666666666672
688,1.6666666666666679
2,21, 1,21, 0,10,40.00,50.00,Saturday
250,23.32338320110247
251,7097950.360190349
336,0.0
385,23.333333333333353
386,26.600000000000023
387,-0.34075227634833116
388,0.0
425,0.0
450,0.0
451,0.0
452,3.5671085159998808
453,0.0
490,0.0
515,0.0
516,0.0
542,0.0
592,3144438.546072863
632,3818720.1351780095
686,0.7177398208148319
687,0.3333333333333336
688,1.3333333333333344
2,21, 1,21, 0,10,50.00,60.00,Saturday
250,23.323210453985283
251,6987145.835630213
336,0.0
385,23.333333333333353
386,26.600000000000023
387,-0.22005388255390967
388,0.0
425,0.0
450,0.0
451,0.0
452,4.29002078068952
453,0.0
490,0.0
515,0.0
516,0.0
542,0.0
592,3120328.503324132
632,3735100.23262742
686,0.7058541401858103
687,0.3333333333333336
688,1.3333333333333344
2,21, 1,21, 0,11, 0.00,10.00,Saturday
250,23.32167622540956
251,6893144.33483353
336,0.0
385,23.333333333333336
386,26.6
387,-0.09352016009063485
388,0.0
425,0.0
450,0.0
451,0.0
452,5.053907080707228
453,0.0
490,0.0
515,0.0
516,0.0
542,0.0
592,3066731.3960868428
632,3703696.1121816863
686,0.688574804494254
687,0.3333333333333333
688,1.3333333333333335
2,21, 1,21, 0,11,10.00,20.00,Saturday
250,23.319974832008853
251,6792893.118233011
336,0.0
385,23.33333333333332
386,26.59999999999999
387,0.04671585569564449
388,0.0
425,0.0
450,0.0
451,0.0
452,5.857543759471408
453,0.0
490,0.0
515,0.0
516,0.0
542,0.0
592,3009623.7020880566
632,3670317.147988285
686,0.6704841636999992
687,0.3333333333333332
688,1.3333333333333328
2,21, 1,21, 0,11,20.00,30.00,Saturday
250,23.317875282495635
251,6669117.787624647
336,0.0
385,23.33333333333332
386,26.59999999999999
387,0.20517966416781092
388,0.0
425,0.0
450,0.0
451,0.0
452,6.703835229568579
453,0.0
490,0.0
515,0.0
516,0.0
542,0.0
592,2938426.934696586
632,3629679.8175143283
686,0.6487881892599972
687,0.3333333333333332
688,1.3333333333333328
2,21, 1,21, 0,11,30.00,40.00,Saturday
250,23.316311517168216
251,6574460.26781008
336,0.0
385,23.333333333333353
386,26.600000000000023
387,0.37687060933646954
388,0.0
425,0.0
450,0.0
451,0.0
452,7.556195776685873
453,0.0
490,0.0
515,0.0
516,0.0
542,0.0
592,2883689.8711638926
632,3598743.626907146
686,0.631591582590704
687,0.3333333333333336
688,1.3333333333333344
2,21, 1,21, 0,11,40.00,50.00,Saturday
250,23.31501469375445
251,6499186.294368446
336,0.0
385,23.333333333333353
386,26.600000000000023
387,0.5540588441339854
388,0.0
425,0.0
450,0.0
451,0.0
452,8.339511973299071
453,0.0
490,0.0
515,0.0
516,0.0
542,0.0
592,2841660.3304879363
632,3572892.5067621013
686,0.617860134592852
687,0.3333333333333336
688,1.3333333333333344
2,21, 1,21, 0,11,50.00,60.00,Saturday
250,23.31409318522976
251,6445158.143474634
336,0.0
385,23.333333333333353
386,26.600000000000023
387,0.7314136994248565
388,0.0
425,0.0
450,0.0
451,0.0
452,9.019963835948825
453,0.0
490,0.0
515,0.0
516,0.0
542,0.0
592,2812888.6716425302
632,3552930.849461304
686,0.6077016534068487
687,0.3333333333333336
688,1.3333333333333344
2,21, 1,21, 0,12, 0.00,10.00,Saturday
250,23.930912563686793
251,7081859.954109756
336,0.0
385,24.0
386,26.6
387,0.8811190904729607
388,0.0
425,0.0
450,0.0
451,0.0
452,9.533288943035146
453,0.0
490,0.0
515,0.0
516,0.0
542,0.0
592,5306716.0206129905
632,1695172.3658553977
686,1.0
687,1.0
688,2.0
2,21, 1,21, 0,12,10.00,20.00,Saturday
250,23.059306094054136
251,4672991.05220295
336,0.0
385,23.0
386,26.6
387,1.0610194001465705
388,0.0
425,0.0
450,0.0
451,0.0
452,10.015625682132521
453,0.0
490,0.0
515,0.0
516,0.0
542,0.0
592,3488425.601768502
632,844344.1280415806
686,0.717435376583397
687,0.5
688,1.5
2,21, 1,21, 0,12,20.00,30.00,Saturday
250,23.905781226531357
251,8127049.759086175
336,0.0
385,24.0
386,26.6
387,1.2162939765113991
388,0.0
425,0.0
450,0.0
451,0.0
452,10.329730917245175
453,0.0
490,0.0
515,0.0
516,0.0
542,0.0
592,4664470.721120376
632,3465362.336307197
686,1.0
687,0.5590401348519692
688,2.0
2,21, 1,21, 0,12,30.00,40.00,Saturday
250,23.99416722296919
251,6409369.621428207
336,0.0
385,24.0
386,26.6
387,1.3507537988970924
388,0.0
425,0.0
450,0.0
451,0.0
452,10.521350493110194
453,0.0
490,0.0
515,0.0
516,0.0
542,0.0
592,5328545.279521174
632,831964.6348649018
686,1.0
687,1.0
688,2.0
2,21, 1,21, 0,12,40.00,50.00,Saturday
250,22.944195622299706
251,4952414.993033697
336,0.0
385,22.666666666666636
386,26.599999999999962
387,1.44166787909675
388,0.0
425,0.0
450,0.0
451,0.0
452,10.56441561200664
453,0.0
490,0.0
515,0.0
516,0.0
542,0.0
592,2361202.1732860357
632,2513626.6557470844
686,0.4840664263377371
687,0.33333333333333287
688,0.9999999999999987
2,21, 1,21, 0,12,50.00,60.00,Saturday
250,23.889597641167363
251,6905813.403276496
336,0.0
385,24.0
386,26.6
387,1.5296731948260511
388,0.0
425,0.0
450,0.0
451,0.0
452,10.517860769328397
453,0.0
490,0.0
515,0.0
516,0.0
542,0.0
592,5315411.331755802
632,1606984.0797997736
686,1.0
687,0.9804868723584794
688,2.0
2,21, 1,21, 0,13, 0.00,10.00,Saturday
250,23.992050896356265
251,6158285.379774573
336,0.0
385,24.0
386,26.6
387,1.6212312991841735
388,0.0
425,0.0
450,0.0
451,0.0
452,10.401735502248076
453,0.0
490,0.0
515,0.0
516,0.0
542,0.0
592,5339548.6903466275
632,573387.156817926
686,1.0
687,1.0
688,2.0
2,21, 1,21, 0,13,10.00,20.00,Saturday
250,22.964456412318455
251,4751688.859177849
336,0.0
385,22.666666666666664
386,26.6
387,1.6829325801995256
388,0.0
425,0.0
450,0.0
451,0.0
452,10.310164500333942
453,0.0
490,0.0
515,0.0
516,0.0
542,0.0
592,2207611.5703263865
632,2476200.0801496347
686,0.46467918222555876
687,0.2801820718539657
688,0.8333333333333334
2,21, 1,21, 0,13,20.00,30.00,Saturday
250,23.891558873513027
251,6692952.707811676
336,0.0
385,24.0
386,26.6
387,1.7422639799765198
388,0.0
425,0.0
450,0.0
451,0.0
452,10.241560512402966
453,0.0
490,0.0
515,0.0
516,0.0
542,0.0
592,5220827.551154401
632,1485361.3894774057
686,1.0
687,0.9247364493780564
688,2.0
2,21, 1,21, 0,13,30.00,40.00,Saturday
250,23.992226742089525
251,5933365.180770351
336,0.0
385,24.0
386,26.6
387,1.8071720384842
388,0.0
425,0.0
450,0.0
451,0.0
452,10.19193928880832
453,0.0
490,0.0
515,0.0
516,0.0
542,0.0
592,5328279.13391814
632,359306.3476864714
686,1.0
687,1.0
688,2.0
2,21, 1,21, 0,13,40.00,50.00,Saturday
250,22.99083802633413
251,4514443.568922002
336,0.0
385,22.666666666666636
386,26.599999999999962
387,1.8565061989056177
388,0.0
425,0.0
450,0.0
451,0.0
452,10.168859610463217
453,0.0
490,0.0
515,0.0
516,0.0
542,0.0
592,1988164.1887154765
632,2473837.256028828
686,0.4446591336234662
687,0.1872384735907064
688,0.8333333333333321
2,21, 1,21, 0,13,50.00,60.00,Saturday
250,23.89399572766576
251,6484492.063881127
336,0.0
385,24.0
386,26.6
387,1.9076420861659462
388,0.0
425,0.0
450,0.0
451,0.0
452,10.147499140619518
453,0.0
490,0.0
515,0.0
516,0.0
542,0.0
592,5132323.115498656
632,1360346.733677624
686,1.0
687,0.8728442125518943
688,2.0
2,21, 1,21, 0,14, 0.00,10.00,Saturday
250,23.99243348488516
251,5777460.128511467
336,0.0
385,24.0
386,26.6
387,1.97581144263564
388,0.0
425,0.0
450,0.0
451,0.0
452,10.095779854785976
453,0.0
490,0.0
515,0.0
516,0.0
542,0.0
592,5332745.903547486
632,198486.2215950783
686,1.0
687,1.0
688,2.0
2,21, 1,21, 0,14,10.00,20.00,Saturday
250,23.00606783470421
251,4370829.806659026
336,0.0
385,22.666666666666664
386,26.6
387,2.0353563962457666
388,0.0
425,0.0
450,0.0
451,0.0
452,9.985349982736949
453,0.0
490,0.0
515,0.0
516,0.0
542,0.0
592,1863610.3493287198
632,2468538.1663984787
686,0.41830083216584113
687,0.1666666666666666
688,0.6666666666666665
2,21, 1,21, 0,14,20.00,30.00,Saturday
250,23.89472505634972
251,6348308.745138413
336,0.0
385,24.0
386,26.6
387,2.0962415772766825
388,0.0
425,0.0
450,0.0
451,0.0
452,9.813791700042533
453,0.0
490,0.0
515,0.0
516,0.0
542,0.0
592,5095504.055857943
632,1258608.6431957476
686,1.0
687,0.8249906845239651
688,2.0
2,21, 1,21, 0,14,30.00,40.00,Saturday
250,23.99251002537897
251,5706949.153143543
336,0.0
385,24.0
386,26.6
387,2.15815113785368
388,0.0
425,0.0
450,0.0
451,0.0
452,9.534310128809208
453,0.0
490,0.0
515,0.0
516,0.0
542,0.0
592,5368161.093439854
632,92395.1743615733
686,1.0
687,1.0
688,2.0