Program Version,EnergyPlus, Version 24.1.0-9d7789a3ac, YMD=2026.01.15 11:10
1,5,Environment Title[],Latitude[deg],Longitude[deg],Time Zone[],Elevation[m]
2,8,Day of Simulation[],Month[],Day of Month[],DST Indicator[1=yes 0=no],Hour[],StartMinute[],EndMinute[],DayType
3,5,Cumulative Day of Simulation[],Month[],Day of Month[],DST Indicator[1=yes 0=no],DayType  ! When Daily Meters Requested
4,2,Cumulative Days of Simulation[],Month[]  ! When Monthly Meters Requested
5,1,Cumulative Days of Simulation[] ! When Run Period Meters Requested
6,1,Calendar Year of Simulation[] ! When Annual Meters Requested
11,9,Electricity:Facility [J] !Monthly [Value,Min,Day,Hour,Minute,Max,Day,Hour,Minute]
23,9,Electricity:Building [J] !Monthly [Value,Min,Day,Hour,Minute,Max,Day,Hour,Minute]
59,9,InteriorLights:Electricity [J] !Monthly [Value,Min,Day,Hour,Minute,Max,Day,Hour,Minute]
521,9,Electricity:HVAC [J] !Monthly [Value,Min,Day,Hour,Minute,Max,Day,Hour,Minute]
637,9,NaturalGas:Facility [J] !Monthly [Value,Min,Day,Hour,Minute,Max,Day,Hour,Minute]
649,9,NaturalGas:HVAC [J] !Monthly [Value,Min,Day,Hour,Minute,Max,Day,Hour,Minute]
13,11,Electricity:Facility [J] !RunPeriod [Value,Min,Month,Day,Hour,Minute,Max,Month,Day,Hour,Minute]
25,11,Electricity:Building [J] !RunPeriod [Value,Min,Month,Day,Hour,Minute,Max,Month,Day,Hour,Minute]
61,11,InteriorLights:Electricity [J] !RunPeriod [Value,Min,Month,Day,Hour,Minute,Max,Month,Day,Hour,Minute]
523,11,Electricity:HVAC [J] !RunPeriod [Value,Min,Month,Day,Hour,Minute,Max,Month,Day,Hour,Minute]
639,11,NaturalGas:Facility [J] !RunPeriod [Value,Min,Month,Day,Hour,Minute,Max,Month,Day,Hour,Minute]
651,11,NaturalGas:HVAC [J] !RunPeriod [Value,Min,Month,Day,Hour,Minute,Max,Month,Day,Hour,Minute]
End of Data Dictionary
1,RUN PERIOD 1,  41.98, -87.92,  -6.00, 201.00
4,31, 1
11,8985584383.236088,265068.8518021704,11,19,50,3551592.266674586,27,12,20
23,1852722036.1632986,109037.15064217304,11,20,60,1054271.6926734264,31,13,60
59,933840000.0,30000.0, 1, 1,10,600000.0, 2, 8,10
521,7132862347.072816,0.0,11,13,60,2569350.2467606375,27,20,30
637,16377139548.66504,0.0, 1,12,20,20187162.423723318,31, 7,40
649,16377139548.66504,0.0, 1,12,20,20187162.423723318,31, 7,40
4,59, 2
11,7575380181.625924,99999999999999.0,11,19,50,-99999999999999.0,27,12,20
23,1682156625.7960205,105213.2202405332,26,16,60,1066207.079321139, 3, 9,10
59,848160000.0,99999999999999.0, 1, 1,10,-99999999999999.0, 2, 8,10
521,5893223555.829922,99999999999999.0,11,13,60,2605458.4109746683, 5, 3,20
637,12979782471.795729,99999999999999.0, 1,12,20,20751724.810477395, 3, 7,50
649,12979782471.795729,99999999999999.0, 1,12,20,20751724.810477395, 3, 7,50
4,90, 3
11,7540356370.767157,106840.6016215446,31,19,50,-99999999999999.0,27,12,20
23,1882831508.39434,101896.74190045753,31,19,60,-99999999999999.0, 3, 9,10
59,970200000.0,99999999999999.0, 1, 1,10,-99999999999999.0, 2, 8,10
521,5657524862.37282,99999999999999.0,11,13,60,-99999999999999.0, 5, 3,20
637,9648649016.707571,99999999999999.0, 1,12,20,-99999999999999.0, 3, 7,50
649,9648649016.707571,99999999999999.0, 1,12,20,-99999999999999.0, 3, 7,50
4,120, 4
11,4390764943.926435,30000.0,12,19,10,-99999999999999.0,27,12,20
23,1601552788.3528335,30000.0, 5, 4,30,-99999999999999.0, 3, 9,10
59,856800000.0,99999999999999.0, 1, 1,10,-99999999999999.0, 2, 8,10
521,2789212155.5735884,99999999999999.0,11,13,60,-99999999999999.0, 5, 3,20
637,4055328673.895388,99999999999999.0, 1,12,20,-99999999999999.0, 3, 7,50
649,4055328673.895388,99999999999999.0, 1,12,20,-99999999999999.0, 3, 7,50
4,151, 5
11,3183250867.9050913,99999999999999.0,12,19,10,-99999999999999.0,27,12,20
23,1694907399.1046185,99999999999999.0, 5, 4,30,-99999999999999.0, 3, 9,10
59,970200000.0,99999999999999.0, 1, 1,10,-99999999999999.0, 2, 8,10
521,1488343468.8004692,99999999999999.0,11,13,60,-99999999999999.0, 5, 3,20
637,924737601.0266392,99999999999999.0, 1,12,20,-99999999999999.0, 3, 7,50
649,924737601.0266392,99999999999999.0, 1,12,20,-99999999999999.0, 3, 7,50
4,181, 6
11,3103030858.080299,99999999999999.0,12,19,10,-99999999999999.0,27,12,20
23,1544105141.2326403,99999999999999.0, 5, 4,30,-99999999999999.0, 3, 9,10
59,929520000.0,99999999999999.0, 1, 1,10,-99999999999999.0, 2, 8,10
521,1558925716.8476493,99999999999999.0,11,13,60,-99999999999999.0, 5, 3,20
637,47547539.833850466,99999999999999.0, 1,12,20,-99999999999999.0, 3, 7,50
649,47547539.833850466,99999999999999.0, 1,12,20,-99999999999999.0, 3, 7,50
4,212, 7
11,3613292187.2813067,99999999999999.0,12,19,10,-99999999999999.0,27,12,20
23,1435935473.2922077,99999999999999.0, 5, 4,30,-99999999999999.0, 3, 9,10
59,897480000.0,99999999999999.0, 1, 1,10,-99999999999999.0, 2, 8,10
521,2177356713.989102,99999999999999.0,11,13,60,-99999999999999.0, 5, 3,20
637,1363950.2686634474,99999999999999.0, 1,12,20,-99999999999999.0, 3, 7,50
649,1363950.2686634474,99999999999999.0, 1,12,20,-99999999999999.0, 3, 7,50
4,243, 8
11,3407765708.0829043,99999999999999.0,12,19,10,-99999999999999.0,27,12,20
23,1577174349.9265418,99999999999999.0, 5, 4,30,-99999999999999.0, 3, 9,10
59,970200000.0,99999999999999.0, 1, 1,10,-99999999999999.0, 2, 8,10
521,1830591358.1563716,99999999999999.0,11,13,60,-99999999999999.0, 5, 3,20
637,15872076.75498043,99999999999999.0, 1,12,20,-99999999999999.0, 3, 7,50
649,15872076.75498043,99999999999999.0, 1,12,20,-99999999999999.0, 3, 7,50
4,273, 9
11,2703046618.106402,99999999999999.0,12,19,10,-99999999999999.0,27,12,20
23,1514524894.7810192,99999999999999.0, 5, 4,30,-99999999999999.0, 3, 9,10
59,893160000.0,99999999999999.0, 1, 1,10,-99999999999999.0, 2, 8,10
521,1188521723.3253891,99999999999999.0,11,13,60,-99999999999999.0, 5, 3,20
637,68465255.25062914,99999999999999.0, 1,12,20,-99999999999999.0, 3, 7,50
649,68465255.25062914,99999999999999.0, 1,12,20,-99999999999999.0, 3, 7,50
4,304,10
11,3519613294.2676234,99999999999999.0,12,19,10,-99999999999999.0,27,12,20
23,1686507259.08008,99999999999999.0, 5, 4,30,-99999999999999.0, 3, 9,10
59,933840000.0,99999999999999.0, 1, 1,10,-99999999999999.0, 2, 8,10
521,1833106035.1875377,99999999999999.0,11,13,60,-99999999999999.0, 5, 3,20
637,2227593807.190884,99999999999999.0, 1,12,20,-99999999999999.0, 3, 7,50
649,2227593807.190884,99999999999999.0, 1,12,20,-99999999999999.0, 3, 7,50
4,334,11
11,6238171539.309542,99999999999999.0,12,19,10,-99999999999999.0,27,12,20
23,1765082632.4130423,99999999999999.0, 5, 4,30,-99999999999999.0, 3, 9,10
59,929520000.0,99999999999999.0, 1, 1,10,-99999999999999.0, 2, 8,10
521,4473088906.896521,99999999999999.0,11,13,60,-99999999999999.0, 5, 3,20
637,8180220728.012212,99999999999999.0, 1,12,20,-99999999999999.0, 3, 7,50
649,8180220728.012212,99999999999999.0, 1,12,20,-99999999999999.0, 3, 7,50
4,365,12
11,7764732649.3777895,99999999999999.0,12,19,10,-99999999999999.0,27,12,20
23,1749369232.7399054,99999999999999.0, 5, 4,30,-99999999999999.0, 3, 9,10
59,897480000.0,99999999999999.0, 1, 1,10,-99999999999999.0, 2, 8,10
521,6015363416.637885,99999999999999.0,11,13,60,-99999999999999.0, 5, 3,20
637,10167338689.04429,99999999999999.0, 1,12,20,-99999999999999.0, 3, 7,50
649,10167338689.04429,99999999999999.0, 1,12,20,-99999999999999.0, 3, 7,50
5,365
13,62024989601.96655,30000.0, 4,12,19,10,3551592.266674586, 1,27,12,20
25,19986869341.276505,30000.0, 4, 5, 4,30,1066207.079321139, 2, 3, 9,10
61,11030400000.0,30000.0, 1, 1, 1,10,600000.0, 1, 2, 8,10
523,42038120260.68967,0.0, 1,11,13,60,2605458.4109746683, 2, 5, 3,20
639,64694039358.445335,0.0, 1, 1,12,20,20751724.810477395, 2, 3, 7,50
651,64694039358.445335,0.0, 1, 1,12,20,20751724.810477395, 2, 3, 7,50
End of Data
 Number of Records Written=          78
