Program Version,EnergyPlus, Version 24.2.0-94a887817b, YMD=2025.01.22 00:05
1,5,Environment Title[],Latitude[deg],Longitude[deg],Time Zone[],Elevation[m]
2,8,Day of Simulation[],Month[],Day of Month[],DST Indicator[1=yes 0=no],Hour[],StartMinute[],EndMinute[],DayType
3,5,Cumulative Day of Simulation[],Month[],Day of Month[],DST Indicator[1=yes 0=no],DayType  ! When Daily Meters Requested
4,2,Cumulative Days of Simulation[],Month[]  ! When Monthly Meters Requested
5,1,Cumulative Days of Simulation[] ! When Run Period Meters Requested
6,1,Calendar Year of Simulation[] ! When Annual Meters Requested
11,9,Electricity:Facility [J] !Monthly [Value,Min,Day,Hour,Minute,Max,Day,Hour,Minute]
23,9,Electricity:Building [J] !Monthly [Value,Min,Day,Hour,Minute,Max,Day,Hour,Minute]
59,9,InteriorLights:Electricity [J] !Monthly [Value,Min,Day,Hour,Minute,Max,Day,Hour,Minute]
521,9,Electricity:HVAC [J] !Monthly [Value,Min,Day,Hour,Minute,Max,Day,Hour,Minute]
637,9,NaturalGas:Facility [J] !Monthly [Value,Min,Day,Hour,Minute,Max,Day,Hour,Minute]
649,9,NaturalGas:HVAC [J] !Monthly [Value,Min,Day,Hour,Minute,Max,Day,Hour,Minute]
13,11,Electricity:Facility [J] !RunPeriod [Value,Min,Month,Day,Hour,Minute,Max,Month,Day,Hour,Minute]
25,11,Electricity:Building [J] !RunPeriod [Value,Min,Month,Day,Hour,Minute,Max,Month,Day,Hour,Minute]
61,11,InteriorLights:Electricity [J] !RunPeriod [Value,Min,Month,Day,Hour,Minute,Max,Month,Day,Hour,Minute]
523,11,Electricity:HVAC [J] !RunPeriod [Value,Min,Month,Day,Hour,Minute,Max,Month,Day,Hour,Minute]
639,11,NaturalGas:Facility [J] !RunPeriod [Value,Min,Month,Day,Hour,Minute,Max,Month,Day,Hour,Minute]
651,11,NaturalGas:HVAC [J] !RunPeriod [Value,Min,Month,Day,Hour,Minute,Max,Month,Day,Hour,Minute]
End of Data Dictionary
1,RUN PERIOD 1,  41.98, -87.92,  -6.00, 201.00
4,31, 1
11,9836744762.529741,408891.4285714286, 5, 6,60,2989396.9073892143,16,13,60
23,997694661.2987429,30000.0, 1, 1,10,619923.6676077896, 1, 9,10
59,970200000.0,30000.0, 1, 1,10,600000.0, 1, 8,10
521,8839050101.230986,378891.4285714286, 5, 6,60,2369473.239781425,16,13,60
637,173931714484.93646,26220949.898759957,21,16,10,41250000.0, 1, 1,30
649,173931714484.93646,26220949.898759957,21,16,10,41250000.0, 1, 1,30
4,59, 2
11,9368444522.193205,99999999999999.0, 5, 6,60,3030858.3476523366,22,15,30
23,872068401.1293416,99999999999999.0, 1, 1,10,-99999999999999.0, 1, 9,10
59,848160000.0,99999999999999.0, 1, 1,10,-99999999999999.0, 1, 8,10
521,8496376121.063895,99999999999999.0, 5, 6,60,2410934.680044547,22,15,30
637,152385336269.05008,24597223.49490487,23,12,60,-99999999999999.0, 1, 1,30
649,152385336269.05008,24597223.49490487,23,12,60,-99999999999999.0, 1, 1,30
4,90, 3
11,10704599423.782509,30000.0,10,13,20,3032410.782323438,12,17,60
23,922583821.1858087,99999999999999.0, 1, 1,10,-99999999999999.0, 1, 9,10
59,897480000.0,99999999999999.0, 1, 1,10,-99999999999999.0, 1, 8,10
521,9782015602.596613,0.0,10,13,20,2412487.1147156483, 9,11,60
637,149879170427.41248,0.0,10,13,20,-99999999999999.0, 1, 1,30
649,149879170427.41248,0.0,10,13,20,-99999999999999.0, 1, 1,30
4,120, 4
11,8709430377.34924,99999999999999.0,10,13,20,-99999999999999.0,12,17,60
23,955946402.4582194,99999999999999.0, 1, 1,10,-99999999999999.0, 1, 9,10
59,929520000.0,99999999999999.0, 1, 1,10,-99999999999999.0, 1, 8,10
521,7753483974.890934,99999999999999.0,10,13,20,-99999999999999.0, 9,11,60
637,105125002242.76883,99999999999999.0,10,13,20,-99999999999999.0, 1, 1,30
649,105125002242.76883,99999999999999.0,10,13,20,-99999999999999.0, 1, 1,30
4,151, 5
11,6678880455.859805,99999999999999.0,10,13,20,-99999999999999.0,12,17,60
23,998364550.2217221,99999999999999.0, 1, 1,10,643565.4408183323,29,14,60
59,970200000.0,99999999999999.0, 1, 1,10,-99999999999999.0, 1, 8,10
521,5680515905.637835,99999999999999.0,10,13,20,-99999999999999.0, 9,11,60
637,64722656394.64241,99999999999999.0,10,13,20,-99999999999999.0, 1, 1,30
649,64722656394.64241,99999999999999.0,10,13,20,-99999999999999.0, 1, 1,30
4,181, 6
11,3964289462.5318174,99999999999999.0,10,13,20,-99999999999999.0,12,17,60
23,881212026.8516032,99999999999999.0, 1, 1,10,655076.6971764179,17,10,60
59,856800000.0,99999999999999.0, 1, 1,10,-99999999999999.0, 1, 8,10
521,3083077435.6802135,99999999999999.0,10,13,20,-99999999999999.0, 9,11,60
637,17066562253.274176,99999999999999.0,10,13,20,-99999999999999.0, 1, 1,30
649,17066562253.274176,99999999999999.0,10,13,20,-99999999999999.0, 1, 1,30
4,212, 7
11,4176830935.19131,99999999999999.0,10,13,20,-99999999999999.0,12,17,60
23,998095855.4381024,99999999999999.0, 1, 1,10,-99999999999999.0,17,10,60
59,970200000.0,99999999999999.0, 1, 1,10,-99999999999999.0, 1, 8,10
521,3178735079.753198,99999999999999.0,10,13,20,-99999999999999.0, 9,11,60
637,1749461495.0331638,99999999999999.0,10,13,20,-99999999999999.0, 1, 1,30
649,1749461495.0331638,99999999999999.0,10,13,20,-99999999999999.0, 1, 1,30
4,243, 8
11,2840588556.7754917,99999999999999.0,10,13,20,-99999999999999.0,12,17,60
23,960501107.5553252,99999999999999.0, 1, 1,10,-99999999999999.0,17,10,60
59,933840000.0,99999999999999.0, 1, 1,10,-99999999999999.0, 1, 8,10
521,1880087449.2201672,99999999999999.0,10,13,20,-99999999999999.0, 9,11,60
637,6564585211.991212,99999999999999.0,10,13,20,-99999999999999.0, 1, 1,30
649,6564585211.991212,99999999999999.0,10,13,20,-99999999999999.0, 1, 1,30
4,273, 9
11,4070070109.099353,99999999999999.0,10,13,20,-99999999999999.0,12,17,60
23,918481183.7380593,99999999999999.0, 1, 1,10,-99999999999999.0,17,10,60
59,893160000.0,99999999999999.0, 1, 1,10,-99999999999999.0, 1, 8,10
521,3151588925.3612843,99999999999999.0,10,13,20,-99999999999999.0, 9,11,60
637,31810042129.029755,99999999999999.0,10,13,20,-99999999999999.0, 1, 1,30
649,31810042129.029755,99999999999999.0,10,13,20,-99999999999999.0, 1, 1,30
4,304,10
11,9116665366.03949,99999999999999.0,10,13,20,-99999999999999.0,12,17,60
23,997832853.7234274,99999999999999.0, 1, 1,10,-99999999999999.0,17,10,60
59,970200000.0,99999999999999.0, 1, 1,10,-99999999999999.0, 1, 8,10
521,8118832512.315987,99999999999999.0,10,13,20,-99999999999999.0, 9,11,60
637,103784071293.63135,99999999999999.0,10,13,20,-99999999999999.0, 1, 1,30
649,103784071293.63135,99999999999999.0,10,13,20,-99999999999999.0, 1, 1,30
4,334,11
11,9569908965.887592,99999999999999.0,10,13,20,-99999999999999.0,12,17,60
23,918263821.1858087,99999999999999.0, 1, 1,10,-99999999999999.0,17,10,60
59,893160000.0,99999999999999.0, 1, 1,10,-99999999999999.0, 1, 8,10
521,8651645144.701786,99999999999999.0,10,13,20,-99999999999999.0, 9,11,60
637,130094224572.2166,99999999999999.0,10,13,20,-99999999999999.0, 1, 1,30
649,130094224572.2166,99999999999999.0,10,13,20,-99999999999999.0, 1, 1,30
4,365,12
11,10449089861.626104,99999999999999.0,10,13,20,-99999999999999.0,12,17,60
23,960139241.2422758,99999999999999.0, 1, 1,10,-99999999999999.0,17,10,60
59,933840000.0,99999999999999.0, 1, 1,10,-99999999999999.0, 1, 8,10
521,9488950620.383821,99999999999999.0,10,13,20,-99999999999999.0, 9,11,60
637,174480447414.1961,99999999999999.0,10,13,20,-99999999999999.0, 1, 1,30
649,174480447414.1961,99999999999999.0,10,13,20,-99999999999999.0, 1, 1,30
5,365
13,89485542798.8788,30000.0, 3,10,13,20,3032410.782323438, 3,12,17,60
25,11381183926.033062,30000.0, 1, 1, 1,10,655076.6971764179, 6,17,10,60
61,11066760000.0,30000.0, 1, 1, 1,10,600000.0, 1, 1, 8,10
523,78104358872.84036,0.0, 3,10,13,20,2412487.1147156483, 3, 9,11,60
639,1111593274188.185,0.0, 3,10,13,20,41250000.0, 1, 1, 1,30
651,1111593274188.185,0.0, 3,10,13,20,41250000.0, 1, 1, 1,30
1,RUN PERIOD 2,  41.98, -87.92,  -6.00, 201.00
4,1, 7
11,95280712.18933982,99999999999999.0,10,13,20,-99999999999999.0,12,17,60
23,41875420.05646737,99999999999999.0, 1, 1,10,-99999999999999.0,17,10,60
59,40680000.0,99999999999999.0, 1, 1,10,-99999999999999.0, 1, 8,10
521,53405292.13287253,99999999999999.0,10,13,20,-99999999999999.0, 9,11,60
637,0.0,99999999999999.0,10,13,20,-99999999999999.0, 1, 1,30
649,0.0,99999999999999.0,10,13,20,-99999999999999.0, 1, 1,30
5,1
13,95280712.18933982,99999999999999.0, 3,10,13,20,-99999999999999.0, 3,12,17,60
25,41875420.05646737,99999999999999.0, 1, 1, 1,10,-99999999999999.0, 6,17,10,60
61,40680000.0,99999999999999.0, 1, 1, 1,10,-99999999999999.0, 1, 1, 8,10
523,53405292.13287253,99999999999999.0, 3,10,13,20,-99999999999999.0, 3, 9,11,60
639,0.0,99999999999999.0, 3,10,13,20,-99999999999999.0, 1, 1, 1,30
651,0.0,99999999999999.0, 3,10,13,20,-99999999999999.0, 1, 1, 1,30
End of Data
 Number of Records Written=          90
