Program Version,EnergyPlus, Version 24.2.0-94a887817b, YMD=2025.01.21 11:39
1,5,Environment Title[],Latitude[deg],Longitude[deg],Time Zone[],Elevation[m]
2,8,Day of Simulation[],Month[],Day of Month[],DST Indicator[1=yes 0=no],Hour[],StartMinute[],EndMinute[],DayType
3,5,Cumulative Day of Simulation[],Month[],Day of Month[],DST Indicator[1=yes 0=no],DayType  ! When Daily Report Variables Requested
4,2,Cumulative Days of Simulation[],Month[]  ! When Monthly Report Variables Requested
5,1,Cumulative Days of Simulation[] ! When Run Period Report Variables Requested
6,1,Calendar Year of Simulation[] ! When Annual Report Variables Requested
250,1,LIVING ZONE,Zone Air Temperature [C] !TimeStep,REPORTSCH
251,1,LIVING ZONE,Zone Air System Sensible Heating Energy [J] !TimeStep,REPORTSCH
336,1,LIVING ZONE,Zone Air System Sensible Cooling Energy [J] !TimeStep,REPORTSCH
385,1,LIVING ZONE,Zone Thermostat Heating Setpoint Temperature [C] !TimeStep,REPORTSCH
386,1,LIVING ZONE,Zone Thermostat Cooling Setpoint Temperature [C] !TimeStep,REPORTSCH
387,1,GARAGE ZONE,Zone Air Temperature [C] !TimeStep,REPORTSCH
388,1,GARAGE ZONE,Zone Air System Sensible Heating Energy [J] !TimeStep,REPORTSCH
425,1,GARAGE ZONE,Zone Air System Sensible Cooling Energy [J] !TimeStep,REPORTSCH
450,1,GARAGE ZONE,Zone Thermostat Heating Setpoint Temperature [C] !TimeStep,REPORTSCH
451,1,GARAGE ZONE,Zone Thermostat Cooling Setpoint Temperature [C] !TimeStep,REPORTSCH
452,1,ATTIC ZONE,Zone Air Temperature [C] !TimeStep,REPORTSCH
453,1,ATTIC ZONE,Zone Air System Sensible Heating Energy [J] !TimeStep,REPORTSCH
490,1,ATTIC ZONE,Zone Air System Sensible Cooling Energy [J] !TimeStep,REPORTSCH
515,1,ATTIC ZONE,Zone Thermostat Heating Setpoint Temperature [C] !TimeStep,REPORTSCH
516,1,ATTIC ZONE,Zone Thermostat Cooling Setpoint Temperature [C] !TimeStep,REPORTSCH
542,1,ACDXCOIL 1,Cooling Coil Total Cooling Energy [J] !TimeStep,REPORTSCH
592,1,HEAT PUMP DX HEATING COIL 1,Heating Coil Heating Energy [J] !TimeStep,REPORTSCH
632,1,SUPP HEATING COIL 1,Heating Coil Heating Energy [J] !TimeStep,REPORTSCH
686,1,TWOSPEED HEAT PUMP 1,Unitary System DX Coil Cycling Ratio [] !TimeStep,REPORTSCH
687,1,TWOSPEED HEAT PUMP 1,Unitary System DX Coil Speed Ratio [] !TimeStep,REPORTSCH
688,1,TWOSPEED HEAT PUMP 1,Unitary System DX Coil Speed Level [] !TimeStep,REPORTSCH
End of Data Dictionary
1,CHICAGO_IL_USA ANNUAL HEATING 99% DESIGN CONDITIONS DB,  41.98, -87.92,  -6.00, 201.00
2,1, 1,21, 0, 1, 0.00,10.00,WinterDesignDay
250,-17.077267038827916
251,33258891.42862667
336,0.0
385,20.517562459320043
386,25.212372668167472
387,-18.49912700034326
388,0.0
425,0.0
450,0.0
451,0.0
452,-19.361969596815545
453,0.0
490,0.0
515,0.0
516,0.0
542,0.0
592,0.0
632,33000000.0
686,1.0
687,1.0
688,2.0
2,1, 1,21, 0, 1,10.00,20.00,WinterDesignDay
250,-17.077267038929577
251,33258891.428625934
336,0.0
385,20.517562459320043
386,25.212372668167472
387,-18.499128488359535
388,0.0
425,0.0
450,0.0
451,0.0
452,-19.361969804264586
453,0.0
490,0.0
515,0.0
516,0.0
542,0.0
592,0.0
632,33000000.0
686,1.0
687,1.0
688,2.0
2,1, 1,21, 0, 1,20.00,30.00,WinterDesignDay
250,-17.077267039029888
251,33258891.42862521
336,0.0
385,20.517562459320043
386,25.212372668167472
387,-18.499129956975647
388,0.0
425,0.0
450,0.0
451,0.0
452,-19.361970009008367
453,0.0
490,0.0
515,0.0
516,0.0
542,0.0
592,0.0
632,33000000.0
686,1.0
687,1.0
688,2.0
2,1, 1,21, 0, 1,30.00,40.00,WinterDesignDay
250,-17.077267039128866
251,33258891.428624496
336,0.0
385,20.517562459320043
386,25.212372668167472
387,-18.499131406444548
388,0.0
425,0.0
450,0.0
451,0.0
452,-19.361970211082177
453,0.0
490,0.0
515,0.0
516,0.0
542,0.0
592,0.0
632,33000000.0
686,1.0
687,1.0
688,2.0
2,1, 1,21, 0, 1,40.00,50.00,WinterDesignDay
250,-17.077267039226538
251,33258891.428623796
336,0.0
385,20.517562459320043
386,25.212372668167472
387,-18.499132837015736
388,0.0
425,0.0
450,0.0
451,0.0
452,-19.36197041052083
453,0.0
490,0.0
515,0.0
516,0.0
542,0.0
592,0.0
632,33000000.0
686,1.0
687,1.0
688,2.0
2,1, 1,21, 0, 1,50.00,60.00,WinterDesignDay
250,-17.077267039322905
251,33258891.428623095
336,0.0
385,20.517562459320043
386,25.212372668167472
387,-18.49913424893563
388,0.0
425,0.0
450,0.0
451,0.0
452,-19.361970607358696
453,0.0
490,0.0
515,0.0
516,0.0
542,0.0
592,0.0
632,33000000.0
686,1.0
687,1.0
688,2.0
2,1, 1,21, 0, 2, 0.00,10.00,WinterDesignDay
250,-17.077267039418
251,33258891.42862241
336,0.0
385,20.517562459320043
386,25.212372668167472
387,-18.499135642447463
388,0.0
425,0.0
450,0.0
451,0.0
452,-19.3619708016297
453,0.0
490,0.0
515,0.0
516,0.0
542,0.0
592,0.0
632,33000000.0
686,1.0
687,1.0
688,2.0
2,1, 1,21, 0, 2,10.00,20.00,WinterDesignDay
250,-17.077267039511824
251,33258891.42862173
336,0.0
385,20.517562459320043
386,25.212372668167472
387,-18.49913701779111
388,0.0
425,0.0
450,0.0
451,0.0
452,-19.36197099336732
453,0.0
490,0.0
515,0.0
516,0.0
542,0.0
592,0.0
632,33000000.0
686,1.0
687,1.0
688,2.0
2,1, 1,21, 0, 2,20.00,30.00,WinterDesignDay
250,-17.077267039604415
251,33258891.428621072
336,0.0
385,20.517562459320043
386,25.212372668167472
387,-18.499138375203486
388,0.0
425,0.0
450,0.0
451,0.0
452,-19.361971182604595
453,0.0
490,0.0
515,0.0
516,0.0
542,0.0
592,0.0
632,33000000.0
686,1.0
687,1.0
688,2.0
2,1, 1,21, 0, 2,30.00,40.00,WinterDesignDay
250,-17.077267039695766
251,33258891.428620405
336,0.0
385,20.517562459320043
386,25.212372668167472
387,-18.499139714918513
388,0.0
425,0.0
450,0.0
451,0.0
452,-19.361971369374142
453,0.0
490,0.0
515,0.0
516,0.0
542,0.0
592,0.0
632,33000000.0
686,1.0
687,1.0
688,2.0
2,1, 1,21, 0, 2,40.00,50.00,WinterDesignDay
250,-17.07726703978591
251,33258891.42861976
336,0.0
385,20.517562459320043
386,25.212372668167472
387,-18.49914103716693
388,0.0
425,0.0
450,0.0
451,0.0
452,-19.361971553708138
453,0.0
490,0.0
515,0.0
516,0.0
542,0.0
592,0.0
632,33000000.0
686,1.0
687,1.0
688,2.0
2,1, 1,21, 0, 2,50.00,60.00,WinterDesignDay
250,-17.077267039874858
251,33258891.428619124
336,0.0
385,20.517562459320043
386,25.212372668167472
387,-18.499142342176253
388,0.0
425,0.0
450,0.0
451,0.0
452,-19.36197173563835
453,0.0
490,0.0
515,0.0
516,0.0
542,0.0
592,0.0
632,33000000.0
686,1.0
687,1.0
688,2.0
2,1, 1,21, 0, 3, 0.00,10.00,WinterDesignDay
250,-17.077267039962628
251,33258891.428618487
336,0.0
385,20.517562459320043
386,25.212372668167472
387,-18.499143630171048
388,0.0
425,0.0
450,0.0
451,0.0
452,-19.361971915196126
453,0.0
490,0.0
515,0.0
516,0.0
542,0.0
592,0.0
632,33000000.0
686,1.0
687,1.0
688,2.0
2,1, 1,21, 0, 3,10.00,20.00,WinterDesignDay
250,-17.077267040049232
251,33258891.42861786
336,0.0
385,20.517562459320043
386,25.212372668167472
387,-18.49914490137335
388,0.0
425,0.0
450,0.0
451,0.0
452,-19.36197209241241
453,0.0
490,0.0
515,0.0
516,0.0
542,0.0
592,0.0
632,33000000.0
686,1.0
687,1.0
688,2.0
2,1, 1,21, 0, 3,20.00,30.00,WinterDesignDay
250,-17.077267040134693
251,33258891.42861725
336,0.0
385,20.517562459320043
386,25.212372668167472
387,-18.49914615600193
388,0.0
425,0.0
450,0.0
451,0.0
452,-19.361972267317743
453,0.0
490,0.0
515,0.0
516,0.0
542,0.0
592,0.0
632,33000000.0
686,1.0
687,1.0
688,2.0
2,1, 1,21, 0, 3,30.00,40.00,WinterDesignDay
250,-17.077267040219017
251,33258891.42861664
336,0.0
385,20.517562459320043
386,25.212372668167472
387,-18.499147394273056
388,0.0
425,0.0
450,0.0
451,0.0
452,-19.361972439942264
453,0.0
490,0.0
515,0.0
516,0.0
542,0.0
592,0.0
632,33000000.0
686,1.0
687,1.0
688,2.0
2,1, 1,21, 0, 3,40.00,50.00,WinterDesignDay
250,-17.077267040302218
251,33258891.428616036
336,0.0
385,20.517562459320043
386,25.212372668167472
387,-18.49914861640009
388,0.0
425,0.0
450,0.0
451,0.0
452,-19.36197261031571
453,0.0
490,0.0
515,0.0
516,0.0
542,0.0
592,0.0
632,33000000.0
686,1.0
687,1.0
688,2.0
2,1, 1,21, 0, 3,50.00,60.00,WinterDesignDay
250,-17.07726704038432
251,33258891.428615447
336,0.0
385,20.517562459320043
386,25.212372668167472
387,-18.499149822593402
388,0.0
425,0.0
450,0.0
451,0.0
452,-19.361972778467447
453,0.0
490,0.0
515,0.0
516,0.0
542,0.0
592,0.0
632,33000000.0
686,1.0
687,1.0
688,2.0
2,1, 1,21, 0, 4, 0.00,10.00,WinterDesignDay
250,-17.07726704046534
251,33258891.428614866
336,0.0
385,20.517562459320043
386,25.212372668167472
387,-18.499151013060533
388,0.0
425,0.0
450,0.0
451,0.0
452,-19.361972944426444
453,0.0
490,0.0
515,0.0
516,0.0
542,0.0
592,0.0
632,33000000.0
686,1.0
687,1.0
688,2.0
2,1, 1,21, 0, 4,10.00,20.00,WinterDesignDay
250,-17.07726704054528
251,33258891.42861429
336,0.0
385,20.517562459320043
386,25.212372668167472
387,-18.499152188006715
388,0.0
425,0.0
450,0.0
451,0.0
452,-19.361973108221306
453,0.0
490,0.0
515,0.0
516,0.0
542,0.0
592,0.0
632,33000000.0
686,1.0
687,1.0
688,2.0
2,1, 1,21, 0, 4,20.00,30.00,WinterDesignDay
250,-17.077267040624164
251,33258891.428613722
336,0.0
385,20.517562459320043
386,25.212372668167472
387,-18.49915334763431
388,0.0
425,0.0
450,0.0
451,0.0
452,-19.361973269880256
453,0.0
490,0.0
515,0.0
516,0.0
542,0.0
592,0.0
632,33000000.0
686,1.0
687,1.0
688,2.0
2,1, 1,21, 0, 4,30.00,40.00,WinterDesignDay
250,-17.077267040702008
251,33258891.428613167
336,0.0
385,20.517562459320043
386,25.212372668167472
387,-18.499154492142992
388,0.0
425,0.0
450,0.0
451,0.0
452,-19.361973429431146
453,0.0
490,0.0
515,0.0
516,0.0
542,0.0
592,0.0
632,33000000.0
686,1.0
687,1.0
688,2.0
2,1, 1,21, 0, 4,40.00,50.00,WinterDesignDay
250,-17.077267040778814
251,33258891.42861261
336,0.0
385,20.517562459320043
386,25.212372668167472
387,-18.49915562172979
388,0.0
425,0.0
450,0.0
451,0.0
452,-19.36197358690147
453,0.0
490,0.0
515,0.0
516,0.0
542,0.0
592,0.0
632,33000000.0
686,1.0
687,1.0
688,2.0
2,1, 1,21, 0, 4,50.00,60.00,WinterDesignDay
250,-17.077267040854608
251,33258891.42861207
336,0.0
385,20.517562459320043
386,25.212372668167472
387,-18.49915673658928
388,0.0
425,0.0
450,0.0
451,0.0
452,-19.361973742318366
453,0.0
490,0.0
515,0.0
516,0.0
542,0.0
592,0.0
632,33000000.0
686,1.0
687,1.0
688,2.0
2,1, 1,21, 0, 5, 0.00,10.00,WinterDesignDay
250,-17.077267040929392
251,33258891.428611528
336,0.0
385,20.517562459320043
386,25.212372668167472
387,-18.499157836913568
388,0.0
425,0.0
450,0.0
451,0.0
452,-19.361973895708612
453,0.0
490,0.0
515,0.0
516,0.0
542,0.0
592,0.0
632,33000000.0
686,1.0
687,1.0
688,2.0
2,1, 1,21, 0, 5,10.00,20.00,WinterDesignDay
250,-17.077267041003193
251,33258891.428610995
336,0.0
385,20.517562459320043
386,25.212372668167472
387,-18.49915892289228
388,0.0
425,0.0
450,0.0
451,0.0
452,-19.361974047098638
453,0.0
490,0.0
515,0.0
516,0.0
542,0.0
592,0.0
632,33000000.0
686,1.0
687,1.0
688,2.0
2,1, 1,21, 0, 5,20.00,30.00,WinterDesignDay
250,-17.07726704107601
251,33258891.42861047
336,0.0
385,20.517562459320043
386,25.212372668167472
387,-18.499159994712162
388,0.0
425,0.0
450,0.0
451,0.0
452,-19.36197419651453
453,0.0
490,0.0
515,0.0
516,0.0
542,0.0
592,0.0
632,33000000.0
686,1.0
687,1.0
688,2.0
2,1, 1,21, 0, 5,30.00,40.00,WinterDesignDay
250,-17.07726704114787
251,33258891.428609956
336,0.0
385,20.517562459320043
386,25.212372668167472
387,-18.499161052557877
388,0.0
425,0.0
450,0.0
451,0.0
452,-19.361974343982034
453,0.0
490,0.0
515,0.0
516,0.0
542,0.0
592,0.0
632,33000000.0
686,1.0
687,1.0
688,2.0
2,1, 1,21, 0, 5,40.00,50.00,WinterDesignDay
250,-17.07726704121878
251,33258891.428609446
336,0.0
385,20.517562459320043
386,25.212372668167472
387,-18.499162096611542
388,0.0
425,0.0
450,0.0
451,0.0
452,-19.36197448952656
453,0.0
490,0.0
515,0.0
516,0.0
542,0.0
592,0.0
632,33000000.0
686,1.0
687,1.0
688,2.0
2,1, 1,21, 0, 5,50.00,60.00,WinterDesignDay
250,-17.077267041288746
251,33258891.428608943
336,0.0
385,20.517562459320043
386,25.212372668167472
387,-18.49916312705297
388,0.0
425,0.0
450,0.0
451,0.0
452,-19.36197463317319
453,0.0
490,0.0
515,0.0
516,0.0
542,0.0
592,0.0
632,33000000.0
686,1.0
687,1.0
688,2.0
2,1, 1,21, 0, 6, 0.00,10.00,WinterDesignDay
250,-17.07726704135779
251,33258891.428608444
336,0.0
385,20.517562459320043
386,25.212372668167472
387,-18.499164144059712
388,0.0
425,0.0
450,0.0
451,0.0
452,-19.361974774946678
453,0.0
490,0.0
515,0.0
516,0.0
542,0.0
592,0.0
632,33000000.0
686,1.0
687,1.0
688,2.0
2,1, 1,21, 0, 6,10.00,20.00,WinterDesignDay
250,-17.07726704142592
251,33258891.42860796
336,0.0
385,20.517562459320043
386,25.212372668167472
387,-18.49916514780687
388,0.0
425,0.0
450,0.0
451,0.0
452,-19.361974914871446
453,0.0
490,0.0
515,0.0
516,0.0
542,0.0
592,0.0
632,33000000.0
686,1.0
687,1.0
688,2.0
2,1, 1,21, 0, 6,20.00,30.00,WinterDesignDay
250,-17.077267041493148
251,33258891.42860747
336,0.0
385,20.517562459320043
386,25.212372668167472
387,-18.49916613846725
388,0.0
425,0.0
450,0.0
451,0.0
452,-19.3619750529716
453,0.0
490,0.0
515,0.0
516,0.0
542,0.0
592,0.0
632,33000000.0
686,1.0
687,1.0
688,2.0
2,1, 1,21, 0, 6,30.00,40.00,WinterDesignDay
250,-17.077267041559487
251,33258891.428607
336,0.0
385,20.517562459320043
386,25.212372668167472
387,-18.499167116211627
388,0.0
425,0.0
450,0.0
451,0.0
452,-19.361975189270936
453,0.0
490,0.0
515,0.0
516,0.0
542,0.0
592,0.0
632,33000000.0
686,1.0
687,1.0
688,2.0
2,1, 1,21, 0, 6,40.00,50.00,WinterDesignDay
250,-17.077267041624953
251,33258891.42860653
336,0.0
385,20.517562459320043
386,25.212372668167472
387,-18.499168081208406
388,0.0
425,0.0
450,0.0
451,0.0
452,-19.361975323792944
453,0.0
490,0.0
515,0.0
516,0.0
542,0.0
592,0.0
632,33000000.0
686,1.0
687,1.0
688,2.0
2,1, 1,21, 0, 6,50.00,60.00,WinterDesignDay
250,-17.07726704168955
251,33258891.42860606
336,0.0
385,20.517562459320043
386,25.212372668167472
387,-18.499169033623843
388,0.0
425,0.0
450,0.0
451,0.0
452,-19.361975456560796
453,0.0
490,0.0
515,0.0
516,0.0
542,0.0
592,0.0
632,33000000.0
686,1.0
687,1.0
688,2.0
2,1, 1,21, 0, 7, 0.00,10.00,WinterDesignDay
250,-17.077267041753295
251,33258891.42860561
336,0.0
385,20.517562459320043
386,25.212372668167472
387,-18.499169973621665
388,0.0
425,0.0
450,0.0
451,0.0
452,-19.361975587597374
453,0.0
490,0.0
515,0.0
516,0.0
542,0.0
592,0.0
632,33000000.0
686,1.0
687,1.0
688,2.0
2,1, 1,21, 0, 7,10.00,20.00,WinterDesignDay
250,-17.077267041816196
251,33258891.428605147
336,0.0
385,20.517562459320043
386,25.212372668167472
387,-18.49917090136387
388,0.0
425,0.0
450,0.0
451,0.0
452,-19.361975716925265
453,0.0
490,0.0
515,0.0
516,0.0
542,0.0
592,0.0
632,33000000.0
686,1.0
687,1.0
688,2.0
2,1, 1,21, 0, 7,20.00,30.00,WinterDesignDay
250,-17.077267041878265
251,33258891.428604707
336,0.0
385,20.517562459320043
386,25.212372668167472
387,-18.49917181701043
388,0.0
425,0.0
450,0.0
451,0.0
452,-19.36197584456674
453,0.0
490,0.0
515,0.0
516,0.0
542,0.0
592,0.0
632,33000000.0
686,1.0
687,1.0
688,2.0
2,1, 1,21, 0, 7,30.00,40.00,WinterDesignDay
250,-17.077267041939514
251,33258891.428604268
336,0.0
385,20.517562459320043
386,25.212372668167472
387,-18.499172720718953
388,0.0
425,0.0
450,0.0
451,0.0
452,-19.36197597054379
453,0.0
490,0.0
515,0.0
516,0.0
542,0.0
592,0.0
632,33000000.0
686,1.0
687,1.0
688,2.0
2,1, 1,21, 0, 7,40.00,50.00,WinterDesignDay
250,-17.077267041999956
251,33258891.428603835
336,0.0
385,20.517562459320043
386,25.212372668167472
387,-18.49917361264484
388,0.0
425,0.0
450,0.0
451,0.0
452,-19.361976094878123
453,0.0
490,0.0
515,0.0
516,0.0
542,0.0
592,0.0
632,33000000.0
686,1.0
687,1.0
688,2.0
2,1, 1,21, 0, 7,50.00,60.00,WinterDesignDay
250,-17.0772670420596
251,33258891.428603407
336,0.0
385,20.517562459320043
386,25.212372668167472
387,-18.499174492941854
388,0.0
425,0.0
450,0.0
451,0.0
452,-19.36197621759116
453,0.0
490,0.0
515,0.0
516,0.0
542,0.0
592,0.0
632,33000000.0
686,1.0
687,1.0
688,2.0
2,1, 1,21, 0, 8, 0.00,10.00,WinterDesignDay
250,-17.07726704211845
251,33258891.428602982
336,0.0
385,20.517562459320043
386,25.212372668167472
387,-18.499175361761907
388,0.0
425,0.0
450,0.0
451,0.0
452,-19.361976338704054
453,0.0
490,0.0
515,0.0
516,0.0
542,0.0
592,0.0
632,33000000.0
686,1.0
687,1.0
688,2.0
2,1, 1,21, 0, 8,10.00,20.00,WinterDesignDay
250,-17.077267042176526
251,33258891.428602565
336,0.0
385,20.517562459320043
386,25.212372668167472
387,-18.499176219254462
388,0.0
425,0.0
450,0.0
451,0.0
452,-19.361976458237667
453,0.0
490,0.0
515,0.0
516,0.0
542,0.0
592,0.0
632,33000000.0
686,1.0
687,1.0
688,2.0
2,1, 1,21, 0, 8,20.00,30.00,WinterDesignDay
250,-17.07726704223384
251,33258891.42860216
336,0.0
385,20.517562459320043
386,25.212372668167472
387,-18.499177065567018
388,0.0
425,0.0
450,0.0
451,0.0
452,-19.36197657621259
453,0.0
490,0.0
515,0.0
516,0.0
542,0.0
592,0.0
632,33000000.0
686,1.0
687,1.0
688,2.0
2,1, 1,21, 0, 8,30.00,40.00,WinterDesignDay
250,-17.07726704229039
251,33258891.42860175
336,0.0
385,20.517562459320043
386,25.212372668167472
387,-18.49917790084551
388,0.0
425,0.0
450,0.0
451,0.0
452,-19.361976692649158
453,0.0
490,0.0
515,0.0
516,0.0
542,0.0
592,0.0
632,33000000.0
686,1.0
687,1.0
688,2.0
2,1, 1,21, 0, 8,40.00,50.00,WinterDesignDay
250,-17.077267042346193
251,33258891.42860135
336,0.0
385,20.517562459320043
386,25.212372668167472
387,-18.499178725233715
388,0.0
425,0.0
450,0.0
451,0.0
452,-19.361976807567427
453,0.0
490,0.0
515,0.0
516,0.0
542,0.0
592,0.0
632,33000000.0
686,1.0
687,1.0
688,2.0
2,1, 1,21, 0, 8,50.00,60.00,WinterDesignDay
250,-17.077267042401264
251,33258891.428600956
336,0.0
385,20.517562459320043
386,25.212372668167472
387,-18.499179538873562
388,0.0
425,0.0
450,0.0
451,0.0
452,-19.361976920987196
453,0.0
490,0.0
515,0.0
516,0.0
542,0.0
592,0.0
632,33000000.0
686,1.0
687,1.0
688,2.0
2,1, 1,21, 0, 9, 0.00,10.00,WinterDesignDay
250,-17.07726704245561
251,33258891.42860057
336,0.0
385,20.517562459320043
386,25.212372668167472
387,-18.499180341905273
388,0.0
425,0.0
450,0.0
451,0.0
452,-19.361977032928014
453,0.0
490,0.0
515,0.0
516,0.0
542,0.0
592,0.0
632,33000000.0
686,1.0
687,1.0
688,2.0
2,1, 1,21, 0, 9,10.00,20.00,WinterDesignDay
250,-17.077267042509234
251,33258891.42860018
336,0.0
385,20.517562459320043
386,25.212372668167472
387,-18.499181134467126
388,0.0
425,0.0
450,0.0
451,0.0
452,-19.361977143409163
453,0.0
490,0.0
515,0.0
516,0.0
542,0.0
592,0.0
632,33000000.0
686,1.0
687,1.0
688,2.0
2,1, 1,21, 0, 9,20.00,30.00,WinterDesignDay
250,-17.077267042562156
251,33258891.428599805
336,0.0
385,20.517562459320043
386,25.212372668167472
387,-18.499181916695633
388,0.0
425,0.0
450,0.0
451,0.0
452,-19.361977252449673
453,0.0
490,0.0
515,0.0
516,0.0
542,0.0
592,0.0
632,33000000.0
686,1.0
687,1.0
688,2.0
2,1, 1,21, 0, 9,30.00,40.00,WinterDesignDay
250,-17.077267042614377
251,33258891.42859943
336,0.0
385,20.517562459320043
386,25.212372668167472
387,-18.499182688725423
388,0.0
425,0.0
450,0.0
451,0.0
452,-19.361977360068337
453,0.0
490,0.0
515,0.0
516,0.0
542,0.0
592,0.0
632,33000000.0
686,1.0
687,1.0
688,2.0
2,1, 1,21, 0, 9,40.00,50.00,WinterDesignDay
250,-17.077267042665905
251,33258891.428599056
336,0.0
385,20.517562459320043
386,25.212372668167472
387,-18.499183450689443
388,0.0
425,0.0
450,0.0
451,0.0
452,-19.3619774662837
453,0.0
490,0.0
515,0.0
516,0.0
542,0.0
592,0.0
632,33000000.0
686,1.0
687,1.0
688,2.0
2,1, 1,21, 0, 9,50.00,60.00,WinterDesignDay
250,-17.07726704271675
251,33258891.428598687
336,0.0
385,20.517562459320043
386,25.212372668167472
387,-18.49918420271918
388,0.0
425,0.0
450,0.0
451,0.0
452,-19.36197757111406
453,0.0
490,0.0
515,0.0
516,0.0
542,0.0
592,0.0
632,33000000.0
686,1.0
687,1.0
688,2.0
2,1, 1,21, 0,10, 0.00,10.00,WinterDesignDay
250,-17.077267042766934
251,33258891.428598333
336,0.0
385,20.517562459320043
386,25.212372668167472
387,-18.499184944943966
388,0.0
425,0.0
450,0.0
451,0.0
452,-19.361977674577478
453,0.0
490,0.0
515,0.0
516,0.0
542,0.0
592,0.0
632,33000000.0
686,1.0
687,1.0
688,2.0
2,1, 1,21, 0,10,10.00,20.00,WinterDesignDay
250,-17.07726704281645
251,33258891.42859798
336,0.0
385,20.517562459320043
386,25.212372668167472
387,-18.499185677491695
388,0.0
425,0.0
450,0.0
451,0.0
452,-19.36197777669177
453,0.0
490,0.0
515,0.0
516,0.0
542,0.0
592,0.0
632,33000000.0
686,1.0
687,1.0
688,2.0
2,1, 1,21, 0,10,20.00,30.00,WinterDesignDay
250,-17.07726704286532
251,33258891.428597625
336,0.0
385,20.517562459320043
386,25.212372668167472
387,-18.499186400488686
388,0.0
425,0.0
450,0.0
451,0.0
452,-19.361977877474537
453,0.0
490,0.0
515,0.0
516,0.0
542,0.0
592,0.0
632,33000000.0
686,1.0
687,1.0
688,2.0
2,1, 1,21, 0,10,30.00,40.00,WinterDesignDay
250,-17.07726704291354
251,33258891.428597283
336,0.0
385,20.517562459320043
386,25.212372668167472
387,-18.49918711405919
388,0.0
425,0.0
450,0.0
451,0.0
452,-19.361977976943145
453,0.0
490,0.0
515,0.0
516,0.0
542,0.0
592,0.0
632,33000000.0
686,1.0
687,1.0
688,2.0
2,1, 1,21, 0,10,40.00,50.00,WinterDesignDay
250,-17.07726704296112
251,33258891.428596936
336,0.0
385,20.517562459320043
386,25.212372668167472
387,-18.499187818326117
388,0.0
425,0.0
450,0.0
451,0.0
452,-19.361978075114727
453,0.0
490,0.0
515,0.0
516,0.0
542,0.0
592,0.0
632,33000000.0
686,1.0
687,1.0
688,2.0
2,1, 1,21, 0,10,50.00,60.00,WinterDesignDay
250,-17.077267043008078
251,33258891.428596605
336,0.0
385,20.517562459320043
386,25.212372668167472
387,-18.499188513410985
388,0.0
425,0.0
450,0.0
451,0.0
452,-19.3619781720062
453,0.0
490,0.0
515,0.0
516,0.0
542,0.0
592,0.0
632,33000000.0
686,1.0
687,1.0
688,2.0
2,1, 1,21, 0,11, 0.00,10.00,WinterDesignDay
250,-17.077267043054416
251,33258891.428596273
336,0.0
385,20.517562459320043
386,25.212372668167472
387,-18.499189199433225
388,0.0
425,0.0
450,0.0
451,0.0
452,-19.36197826763426
453,0.0
490,0.0
515,0.0
516,0.0
542,0.0
592,0.0
632,33000000.0
686,1.0
687,1.0
688,2.0
2,1, 1,21, 0,11,10.00,20.00,WinterDesignDay
250,-17.077267043100147
251,33258891.428595945
336,0.0
385,20.517562459320043
386,25.212372668167472
387,-18.499189876510936
388,0.0
425,0.0
450,0.0
451,0.0
452,-19.361978362015385
453,0.0
490,0.0
515,0.0
516,0.0
542,0.0
592,0.0
632,33000000.0
686,1.0
687,1.0
688,2.0
2,1, 1,21, 0,11,20.00,30.00,WinterDesignDay
250,-17.07726704314527
251,33258891.42859562
336,0.0
385,20.517562459320043
386,25.212372668167472
387,-18.49919054476095
388,0.0
425,0.0
450,0.0
451,0.0
452,-19.361978455165826
453,0.0
490,0.0
515,0.0
516,0.0
542,0.0
592,0.0
632,33000000.0
686,1.0
687,1.0
688,2.0
2,1, 1,21, 0,11,30.00,40.00,WinterDesignDay
250,-17.077267043189796
251,33258891.428595304
336,0.0
385,20.517562459320043
386,25.212372668167472
387,-18.499191204298473
388,0.0
425,0.0
450,0.0
451,0.0
452,-19.361978547101636
453,0.0
490,0.0
515,0.0
516,0.0
542,0.0
592,0.0
632,33000000.0
686,1.0
687,1.0
688,2.0
2,1, 1,21, 0,11,40.00,50.00,WinterDesignDay
250,-17.077267043233743
251,33258891.42859499
336,0.0
385,20.517562459320043
386,25.212372668167472
387,-18.499191855237058
388,0.0
425,0.0
450,0.0
451,0.0
452,-19.36197863783866
453,0.0
490,0.0
515,0.0
516,0.0
542,0.0
592,0.0
632,33000000.0
686,1.0
687,1.0
688,2.0
2,1, 1,21, 0,11,50.00,60.00,WinterDesignDay
250,-17.077267043277107
251,33258891.428594675
336,0.0
385,20.517562459320043
386,25.212372668167472
387,-18.499192497688767
388,0.0
425,0.0
450,0.0
451,0.0
452,-19.361978727392522
453,0.0
490,0.0
515,0.0
516,0.0
542,0.0
592,0.0
632,33000000.0
686,1.0
687,1.0
688,2.0
2,1, 1,21, 0,12, 0.00,10.00,WinterDesignDay
250,-17.077267043319903
251,33258891.428594373
336,0.0
385,20.517562459320043
386,25.212372668167472
387,-18.499193131764297
388,0.0
425,0.0
450,0.0
451,0.0
452,-19.36197881577865
453,0.0
490,0.0
515,0.0
516,0.0
542,0.0
592,0.0
632,33000000.0
686,1.0
687,1.0
688,2.0
2,1, 1,21, 0,12,10.00,20.00,WinterDesignDay
250,-17.07726704336213
251,33258891.42859407
336,0.0
385,20.517562459320043
386,25.212372668167472
387,-18.499193757572638
388,0.0
425,0.0
450,0.0
451,0.0
452,-19.361978903012275
453,0.0
490,0.0
515,0.0
516,0.0
542,0.0
592,0.0
632,33000000.0
686,1.0
687,1.0
688,2.0
2,1, 1,21, 0,12,20.00,30.00,WinterDesignDay
250,-17.077267043403804
251,33258891.428593773
336,0.0
385,20.517562459320043
386,25.212372668167472
387,-18.499194375221553
388,0.0
425,0.0
450,0.0
451,0.0
452,-19.361978989108426
453,0.0
490,0.0
515,0.0
516,0.0
542,0.0
592,0.0
632,33000000.0
686,1.0
687,1.0
688,2.0
2,1, 1,21, 0,12,30.00,40.00,WinterDesignDay
250,-17.077267043444927
251,33258891.428593475
336,0.0
385,20.517562459320043
386,25.212372668167472
387,-18.49919498481759
388,0.0
425,0.0
450,0.0
451,0.0
452,-19.361979074081937
453,0.0
490,0.0
515,0.0
516,0.0
542,0.0
592,0.0
632,33000000.0
686,1.0
687,1.0
688,2.0
2,1, 1,21, 0,12,40.00,50.00,WinterDesignDay
250,-17.07726704348551
251,33258891.42859318
336,0.0
385,20.517562459320043
386,25.212372668167472
387,-18.499195586465852
388,0.0
425,0.0
450,0.0
451,0.0
452,-19.36197915794745
453,0.0
490,0.0
515,0.0
516,0.0
542,0.0
592,0.0
632,33000000.0
686,1.0
687,1.0
688,2.0
2,1, 1,21, 0,12,50.00,60.00,WinterDesignDay
250,-17.07726704352556
251,33258891.4285929
336,0.0
385,20.517562459320043
386,25.212372668167472
387,-18.499196180269763
388,0.0
425,0.0
450,0.0
451,0.0
452,-19.361979240719407
453,0.0
490,0.0
515,0.0
516,0.0
542,0.0
592,0.0
632,33000000.0
686,1.0
687,1.0
688,2.0
2,1, 1,21, 0,13, 0.00,10.00,WinterDesignDay
250,-17.07726704356508
251,33258891.42859262
336,0.0
385,20.517562459320043
386,25.212372668167472
387,-18.49919676633159
388,0.0
425,0.0
450,0.0
451,0.0
452,-19.36197932241208
453,0.0
490,0.0
515,0.0
516,0.0
542,0.0
592,0.0
632,33000000.0
686,1.0
687,1.0
688,2.0
2,1, 1,21, 0,13,10.00,20.00,WinterDesignDay
250,-17.077267043604078
251,33258891.428592335
336,0.0
385,20.517562459320043
386,25.212372668167472
387,-18.499197344752414
388,0.0
425,0.0
450,0.0
451,0.0
452,-19.361979403039534
453,0.0
490,0.0
515,0.0
516,0.0
542,0.0
592,0.0
632,33000000.0
686,1.0
687,1.0
688,2.0
2,1, 1,21, 0,13,20.00,30.00,WinterDesignDay
250,-17.07726704364256
251,33258891.42859206
336,0.0
385,20.517562459320043
386,25.212372668167472
387,-18.499197915631907
388,0.0
425,0.0
450,0.0
451,0.0
452,-19.36197948261566
453,0.0
490,0.0
515,0.0
516,0.0
542,0.0
592,0.0
632,33000000.0
686,1.0
687,1.0
688,2.0
2,1, 1,21, 0,13,30.00,40.00,WinterDesignDay
250,-17.077267043680543
251,33258891.428591795
336,0.0
385,20.517562459320043
386,25.212372668167472
387,-18.49919847906824
388,0.0
425,0.0
450,0.0
451,0.0
452,-19.361979561154165
453,0.0
490,0.0
515,0.0
516,0.0
542,0.0
592,0.0
632,33000000.0
686,1.0
687,1.0
688,2.0
2,1, 1,21, 0,13,40.00,50.00,WinterDesignDay
250,-17.077267043718027
251,33258891.428591523
336,0.0
385,20.517562459320043
386,25.212372668167472
387,-18.49919903515842
388,0.0
425,0.0
450,0.0
451,0.0
452,-19.361979638668583
453,0.0
490,0.0
515,0.0
516,0.0
542,0.0
592,0.0
632,33000000.0
686,1.0
687,1.0
688,2.0
2,1, 1,21, 0,13,50.00,60.00,WinterDesignDay
250,-17.07726704375501
251,33258891.42859126
336,0.0
385,20.517562459320043
386,25.212372668167472
387,-18.499199583998166
388,0.0
425,0.0
450,0.0
451,0.0
452,-19.361979715172275
453,0.0
490,0.0
515,0.0
516,0.0
542,0.0
592,0.0
632,33000000.0
686,1.0
687,1.0
688,2.0
2,1, 1,21, 0,14, 0.00,10.00,WinterDesignDay
250,-17.07726704379151
251,33258891.428590998
336,0.0
385,20.517562459320043
386,25.212372668167472
387,-18.499200125682126
388,0.0
425,0.0
450,0.0
451,0.0
452,-19.36197979067841
453,0.0
490,0.0
515,0.0
516,0.0
542,0.0
592,0.0
632,33000000.0
686,1.0
687,1.0
688,2.0
2,1, 1,21, 0,14,10.00,20.00,WinterDesignDay
250,-17.07726704382753
251,33258891.428590737
336,0.0
385,20.517562459320043
386,25.212372668167472
387,-18.4992006603037
388,0.0
425,0.0
450,0.0
451,0.0
452,-19.3619798652
453,0.0
490,0.0
515,0.0
516,0.0
542,0.0
592,0.0
632,33000000.0
686,1.0
687,1.0
688,2.0
2,1, 1,21, 0,14,20.00,30.00,WinterDesignDay
250,-17.077267043863074
251,33258891.428590488
336,0.0
385,20.517562459320043
386,25.212372668167472
387,-18.499201187954903
388,0.0
425,0.0
450,0.0
451,0.0
452,-19.36197993874988
453,0.0
490,0.0
515,0.0
516,0.0
542,0.0
592,0.0
632,33000000.0
686,1.0
687,1.0
688,2.0
2,1, 1,21, 0,14,30.00,40.00,WinterDesignDay
250,-17.077267043898154
251,33258891.428590238
336,0.0
385,20.517562459320043
386,25.212372668167472
387,-18.499201708726606
388,0.0
425,0.0
450,0.0
451,0.0
452,-19.36198001134073
453,0.0
490,0.0
515,0.0
516,0.0
542,0.0
592,0.0
632,33000000.0
686,1.0
687,1.0
688,2.0
2,1, 1,21, 0,14,40.00,50.00,WinterDesignDay
250,-17.07726704393277
251,33258891.42858999
336,0.0
385,20.517562459320043
386,25.212372668167472
387,-18.49920222270845
388,0.0
425,0.0
450,0.0
451,0.0
452,-19.361980082985056
453,0.0
490,0.0
515,0.0
516,0.0
542,0.0
592,0.0
632,33000000.0
686,1.0
687,1.0
688,2.0
2,1, 1,21, 0,14,50.00,60.00,WinterDesignDay
250,-17.077267043966927
251,33258891.42858974
336,0.0
385,20.517562459320043
386,25.212372668167472
387,-18.499202729988856
388,0.0
425,0.0
450,0.0
451,0.0
452,-19.361980153695196
453,0.0
490,0.0
515,0.0
516,0.0
542,0.0
592,0.0
632,33000000.0
686,1.0
687,1.0
688,2.0
2,1, 1,21, 0,15, 0.00,10.00,WinterDesignDay
250,-17.07726704400064
251,33258891.428589508
336,0.0
385,20.517562459320043
386,25.212372668167472
387,-18.499203230655297
388,0.0
425,0.0
450,0.0
451,0.0
452,-19.36198022348333
453,0.0
490,0.0
515,0.0
516,0.0
542,0.0
592,0.0
632,33000000.0
686,1.0
687,1.0
688,2.0
2,1, 1,21, 0,15,10.00,20.00,WinterDesignDay
250,-17.077267044033906
251,33258891.428589262
336,0.0
385,20.517562459320043
386,25.212372668167472
387,-18.49920372479414
388,0.0
425,0.0
450,0.0
451,0.0
452,-19.36198029236148
453,0.0
490,0.0
515,0.0
516,0.0
542,0.0
592,0.0
632,33000000.0
686,1.0
687,1.0
688,2.0
2,1, 1,21, 0,15,20.00,30.00,WinterDesignDay
250,-17.077267044066737
251,33258891.42858903
336,0.0
385,20.517562459320043
386,25.212372668167472
387,-18.499204212490397
388,0.0
425,0.0
450,0.0
451,0.0
452,-19.361980360341512
453,0.0
490,0.0
515,0.0
516,0.0
542,0.0
592,0.0
632,33000000.0
686,1.0
687,1.0
688,2.0
2,1, 1,21, 0,15,30.00,40.00,WinterDesignDay
250,-17.077267044099134
251,33258891.428588796
336,0.0
385,20.517562459320043
386,25.212372668167472
387,-18.499204693827984
388,0.0
425,0.0
450,0.0
451,0.0
452,-19.361980427435142
453,0.0
490,0.0
515,0.0
516,0.0
542,0.0
592,0.0
632,33000000.0
686,1.0
687,1.0
688,2.0
2,1, 1,21, 0,15,40.00,50.00,WinterDesignDay
250,-17.077267044131105
251,33258891.428588573
336,0.0
385,20.517562459320043
386,25.212372668167472
387,-18.499205168889684
388,0.0
425,0.0
450,0.0
451,0.0
452,-19.361980493653927
453,0.0