Program Version,EnergyPlus, Version 24.2.0-94a887817b, YMD=2025.02.04 15:37
1,5,Environment Title[],Latitude[deg],Longitude[deg],Time Zone[],Elevation[m]
2,8,Day of Simulation[],Month[],Day of Month[],DST Indicator[1=yes 0=no],Hour[],StartMinute[],EndMinute[],DayType
3,5,Cumulative Day of Simulation[],Month[],Day of Month[],DST Indicator[1=yes 0=no],DayType  ! When Daily Meters Requested
4,2,Cumulative Days of Simulation[],Month[]  ! When Monthly Meters Requested
5,1,Cumulative Days of Simulation[] ! When Run Period Meters Requested
6,1,Calendar Year of Simulation[] ! When Annual Meters Requested
11,9,Electricity:Facility [J] !Monthly [Value,Min,Day,Hour,Minute,Max,Day,Hour,Minute]
23,9,Electricity:Building [J] !Monthly [Value,Min,Day,Hour,Minute,Max,Day,Hour,Minute]
59,9,InteriorLights:Electricity [J] !Monthly [Value,Min,Day,Hour,Minute,Max,Day,Hour,Minute]
521,9,Electricity:HVAC [J] !Monthly [Value,Min,Day,Hour,Minute,Max,Day,Hour,Minute]
637,9,NaturalGas:Facility [J] !Monthly [Value,Min,Day,Hour,Minute,Max,Day,Hour,Minute]
649,9,NaturalGas:HVAC [J] !Monthly [Value,Min,Day,Hour,Minute,Max,Day,Hour,Minute]
13,11,Electricity:Facility [J] !RunPeriod [Value,Min,Month,Day,Hour,Minute,Max,Month,Day,Hour,Minute]
25,11,Electricity:Building [J] !RunPeriod [Value,Min,Month,Day,Hour,Minute,Max,Month,Day,Hour,Minute]
61,11,InteriorLights:Electricity [J] !RunPeriod [Value,Min,Month,Day,Hour,Minute,Max,Month,Day,Hour,Minute]
523,11,Electricity:HVAC [J] !RunPeriod [Value,Min,Month,Day,Hour,Minute,Max,Month,Day,Hour,Minute]
639,11,NaturalGas:Facility [J] !RunPeriod [Value,Min,Month,Day,Hour,Minute,Max,Month,Day,Hour,Minute]
651,11,NaturalGas:HVAC [J] !RunPeriod [Value,Min,Month,Day,Hour,Minute,Max,Month,Day,Hour,Minute]
End of Data Dictionary
1,RUN PERIOD 1,  41.98, -87.92,  -6.00, 201.00
4,31, 1
11,9817460946.170666,408891.4285714286, 5, 6,50,2975423.127418864,16,13,60
23,978410844.9396996,30000.0, 1, 1,10,605949.887637439, 1, 9,10
59,970200000.0,30000.0, 1, 1,10,600000.0, 1, 8,10
521,8839050101.230986,378891.4285714286, 5, 6,50,2369473.239781425,16,13,60
637,179155748421.58392,28324760.76449265,21,16,10,41250000.0, 1, 1,10
649,179155748421.58392,28324760.76449265,21,16,10,41250000.0, 1, 1,10
4,59, 2
11,9351675986.228792,99999999999999.0, 5, 6,50,3016884.567681986,22,15,30
23,855299865.1649511,99999999999999.0, 1, 1,10,-99999999999999.0, 1, 9,10
59,848160000.0,99999999999999.0, 1, 1,10,-99999999999999.0, 1, 8,10
521,8496376121.063895,99999999999999.0, 5, 6,50,2410934.680044547,22,15,30
637,158576041846.401,26633703.92300677,23,12,10,-99999999999999.0, 1, 1,10
649,158576041846.401,26633703.92300677,23,12,10,-99999999999999.0, 1, 1,10
4,90, 3
11,11007098945.841057,99999999999999.0, 5, 6,50,3261940.2831301456,27,16,10
23,904976858.4232008,99999999999999.0, 1, 1,10,-99999999999999.0, 1, 9,10
59,897480000.0,99999999999999.0, 1, 1,10,-99999999999999.0, 1, 8,10
521,10102122087.417877,99999999999999.0, 5, 6,50,2655990.395492707,27,16,10
637,163176012506.90842,21111249.198615294,27,16,10,-99999999999999.0, 1, 1,10
649,163176012506.90842,21111249.198615294,27,16,10,-99999999999999.0, 1, 1,10
4,120, 4
11,10099240714.56151,30000.0,11,19,10,3296745.845276256,24,12,20
23,937373851.6814499,99999999999999.0, 1, 1,10,-99999999999999.0, 1, 9,10
59,929520000.0,99999999999999.0, 1, 1,10,-99999999999999.0, 1, 8,10
521,9161866862.88012,0.0,11,14,50,2690795.957638817,24,12,20
637,124699892236.73535,0.0,11,14,40,-99999999999999.0, 1, 1,10
649,124699892236.73535,0.0,11,14,40,-99999999999999.0, 1, 1,10
4,151, 5
11,10055194896.49256,99999999999999.0,11,19,10,3297183.036720858,22, 9,10
23,978725117.8454226,99999999999999.0, 1, 1,10,621877.2990176285,28,13,10
59,970200000.0,99999999999999.0, 1, 1,10,-99999999999999.0, 1, 8,10
521,9076469778.647104,99999999999999.0,11,14,50,2692969.5119666876,28, 8,20
637,100725831906.35521,99999999999999.0,11,14,40,-99999999999999.0, 1, 1,10
649,100725831906.35521,99999999999999.0,11,14,40,-99999999999999.0, 1, 1,10
4,181, 6
11,8522660724.728943,99999999999999.0,11,19,10,-99999999999999.0,22, 9,10
23,863965891.2628472,99999999999999.0, 1, 1,10,-99999999999999.0,28,13,10
59,856800000.0,99999999999999.0, 1, 1,10,-99999999999999.0, 1, 8,10
521,7658694833.466108,99999999999999.0,11,14,50,-99999999999999.0,28, 8,20
637,53399697689.78343,99999999999999.0,11,14,40,-99999999999999.0, 1, 1,10
649,53399697689.78343,99999999999999.0,11,14,40,-99999999999999.0, 1, 1,10
4,212, 7
11,8074097402.272405,99999999999999.0,11,19,10,-99999999999999.0,22, 9,10
23,978674318.4162667,99999999999999.0, 1, 1,10,-99999999999999.0,28,13,10
59,970200000.0,99999999999999.0, 1, 1,10,-99999999999999.0, 1, 8,10
521,7095423083.856147,99999999999999.0,11,14,50,-99999999999999.0,28, 8,20
637,27188867332.36249,99999999999999.0,11,14,40,-99999999999999.0, 1, 1,10
649,27188867332.36249,99999999999999.0,11,14,40,-99999999999999.0, 1, 1,10
4,243, 8
11,7951567670.386948,99999999999999.0,11,19,10,3298094.881003759,16,11,40
23,941976324.6870676,99999999999999.0, 1, 1,10,621976.3225788343,12,14,10
59,933840000.0,99999999999999.0, 1, 1,10,-99999999999999.0, 1, 8,10
521,7009591345.699959,99999999999999.0,11,14,50,2693258.8405664554,24,12,50
637,46518332658.95591,99999999999999.0,11,14,40,-99999999999999.0, 1, 1,10
649,46518332658.95591,99999999999999.0,11,14,40,-99999999999999.0, 1, 1,10
4,273, 9
11,9309790020.39288,99999999999999.0,11,19,10,3299549.8175831754, 3,13,50
23,900656858.4232005,99999999999999.0, 1, 1,10,-99999999999999.0,12,14,10
59,893160000.0,99999999999999.0, 1, 1,10,-99999999999999.0, 1, 8,10
521,8409133161.969696,99999999999999.0,11,14,50,2693599.9299457367, 3,13,50
637,80272183471.67792,99999999999999.0,11,14,40,-99999999999999.0, 1, 1,10
649,80272183471.67792,99999999999999.0,11,14,40,-99999999999999.0, 1, 1,10
4,304,10
11,10852781376.144348,99999999999999.0,11,19,10,-99999999999999.0, 3,13,50
23,978471327.5784404,99999999999999.0, 1, 1,10,630512.9610233482,22,16,20
59,970200000.0,99999999999999.0, 1, 1,10,-99999999999999.0, 1, 8,10
521,9874310048.565983,99999999999999.0,11,14,50,-99999999999999.0, 3,13,50
637,131088920358.63982,99999999999999.0,11,14,40,-99999999999999.0, 1, 1,10
649,131088920358.63982,99999999999999.0,11,14,40,-99999999999999.0, 1, 1,10
4,334,11
11,10650804843.866596,99999999999999.0,11,19,10,-99999999999999.0, 3,13,50
23,900656858.4232008,99999999999999.0, 1, 1,10,-99999999999999.0,22,16,20
59,893160000.0,99999999999999.0, 1, 1,10,-99999999999999.0, 1, 8,10
521,9750147985.443396,99999999999999.0,11,14,50,-99999999999999.0, 3,13,50
637,149612032013.80798,99999999999999.0,11,14,40,-99999999999999.0, 1, 1,10
649,149612032013.80798,99999999999999.0,11,14,40,-99999999999999.0, 1, 1,10
4,365,12
11,10430644472.065237,99999999999999.0,11,19,10,-99999999999999.0, 3,13,50
23,941693851.6814502,99999999999999.0, 1, 1,10,-99999999999999.0,22,16,20
59,933840000.0,99999999999999.0, 1, 1,10,-99999999999999.0, 1, 8,10
521,9488950620.383821,99999999999999.0,11,14,50,-99999999999999.0, 3,13,50
637,180006683179.25742,99999999999999.0,11,14,40,-99999999999999.0, 1, 1,10
649,180006683179.25742,99999999999999.0,11,14,40,-99999999999999.0, 1, 1,10
5,365
13,116123017999.15129,30000.0, 4,11,19,10,3299549.8175831754, 9, 3,13,50
25,11160881968.527866,30000.0, 1, 1, 1,10,630512.9610233482,10,22,16,20
61,11066760000.0,30000.0, 1, 1, 1,10,600000.0, 1, 1, 8,10
523,104962136030.63156,0.0, 4,11,14,50,2693599.9299457367, 9, 3,13,50
639,1394420243622.4604,0.0, 4,11,14,40,41250000.0, 1, 1, 1,10
651,1394420243622.4604,0.0, 4,11,14,40,41250000.0, 1, 1, 1,10
1,RUN PERIOD 2,  41.98, -87.92,  -6.00, 201.00
4,1, 7
11,119430676.59834231,99999999999999.0,11,19,10,-99999999999999.0, 3,13,50
23,41036993.258246325,99999999999999.0, 1, 1,10,-99999999999999.0,22,16,20
59,40680000.0,99999999999999.0, 1, 1,10,-99999999999999.0, 1, 8,10
521,78393683.340096,99999999999999.0,11,14,50,-99999999999999.0, 3,13,50
637,0.0,99999999999999.0,11,14,40,-99999999999999.0, 1, 1,10
649,0.0,99999999999999.0,11,14,40,-99999999999999.0, 1, 1,10
5,1
13,119430676.59834231,99999999999999.0, 4,11,19,10,-99999999999999.0, 9, 3,13,50
25,41036993.258246325,99999999999999.0, 1, 1, 1,10,-99999999999999.0,10,22,16,20
61,40680000.0,99999999999999.0, 1, 1, 1,10,-99999999999999.0, 1, 1, 8,10
523,78393683.340096,99999999999999.0, 4,11,14,50,-99999999999999.0, 9, 3,13,50
639,0.0,99999999999999.0, 4,11,14,40,-99999999999999.0, 1, 1, 1,10
651,0.0,99999999999999.0, 4,11,14,40,-99999999999999.0, 1, 1, 1,10
End of Data
 Number of Records Written=          90
