Program Version,EnergyPlus, Version 24.2.0-94a887817b, YMD=2025.02.04 15:37
1,5,Environment Title[],Latitude[deg],Longitude[deg],Time Zone[],Elevation[m]
2,8,Day of Simulation[],Month[],Day of Month[],DST Indicator[1=yes 0=no],Hour[],StartMinute[],EndMinute[],DayType
3,5,Cumulative Day of Simulation[],Month[],Day of Month[],DST Indicator[1=yes 0=no],DayType  ! When Daily Report Variables Requested
4,2,Cumulative Days of Simulation[],Month[]  ! When Monthly Report Variables Requested
5,1,Cumulative Days of Simulation[] ! When Run Period Report Variables Requested
6,1,Calendar Year of Simulation[] ! When Annual Report Variables Requested
250,1,LIVING ZONE,Zone Air Temperature [C] !TimeStep,REPORTSCH
251,1,LIVING ZONE,Zone Air System Sensible Heating Energy [J] !TimeStep,REPORTSCH
336,1,LIVING ZONE,Zone Air System Sensible Cooling Energy [J] !TimeStep,REPORTSCH
385,1,LIVING ZONE,Zone Thermostat Heating Setpoint Temperature [C] !TimeStep,REPORTSCH
386,1,LIVING ZONE,Zone Thermostat Cooling Setpoint Temperature [C] !TimeStep,REPORTSCH
387,1,GARAGE ZONE,Zone Air Temperature [C] !TimeStep,REPORTSCH
388,1,GARAGE ZONE,Zone Air System Sensible Heating Energy [J] !TimeStep,REPORTSCH
425,1,GARAGE ZONE,Zone Air System Sensible Cooling Energy [J] !TimeStep,REPORTSCH
450,1,GARAGE ZONE,Zone Thermostat Heating Setpoint Temperature [C] !TimeStep,REPORTSCH
451,1,GARAGE ZONE,Zone Thermostat Cooling Setpoint Temperature [C] !TimeStep,REPORTSCH
452,1,ATTIC ZONE,Zone Air Temperature [C] !TimeStep,REPORTSCH
453,1,ATTIC ZONE,Zone Air System Sensible Heating Energy [J] !TimeStep,REPORTSCH
490,1,ATTIC ZONE,Zone Air System Sensible Cooling Energy [J] !TimeStep,REPORTSCH
515,1,ATTIC ZONE,Zone Thermostat Heating Setpoint Temperature [C] !TimeStep,REPORTSCH
516,1,ATTIC ZONE,Zone Thermostat Cooling Setpoint Temperature [C] !TimeStep,REPORTSCH
542,1,ACDXCOIL 1,Cooling Coil Total Cooling Energy [J] !TimeStep,REPORTSCH
592,1,HEAT PUMP DX HEATING COIL 1,Heating Coil Heating Energy [J] !TimeStep,REPORTSCH
632,1,SUPP HEATING COIL 1,Heating Coil Heating Energy [J] !TimeStep,REPORTSCH
686,1,TWOSPEED HEAT PUMP 1,Unitary System DX Coil Cycling Ratio [] !TimeStep,REPORTSCH
687,1,TWOSPEED HEAT PUMP 1,Unitary System DX Coil Speed Ratio [] !TimeStep,REPORTSCH
688,1,TWOSPEED HEAT PUMP 1,Unitary System DX Coil Speed Level [] !TimeStep,REPORTSCH
End of Data Dictionary
1,RUN PERIOD 1,  41.98, -87.92,  -6.00, 201.00
2,21, 1,21, 0, 1, 0.00,10.00,Monday
250,-0.835063997220675
251,38098115.82849506
336,0.0
385,22.29156876599422
386,25.946633322645138
387,-0.9476747092988037
388,0.0
425,0.0
450,0.0
451,0.0
452,-1.9750586196212048
453,0.0
490,0.0
515,0.0
516,0.0
542,0.0
592,4839743.985079642
632,33000000.0
686,1.0
687,1.0
688,2.0
2,21, 1,21, 0, 1,10.00,20.00,Monday
250,-0.8352158410504383
251,38082774.844141655
336,0.0
385,22.29156876599422
386,25.946633322645138
387,-0.9560350493759817
388,0.0
425,0.0
450,0.0
451,0.0
452,-1.9569128593918907
453,0.0
490,0.0
515,0.0
516,0.0
542,0.0
592,4823801.676011795
632,33000000.0
686,1.0
687,1.0
688,2.0
2,21, 1,21, 0, 1,20.00,30.00,Monday
250,-0.835407177730579
251,38066852.595054634
336,0.0
385,22.29156876599422
386,25.946633322645138
387,-0.9656310227083298
388,0.0
425,0.0
450,0.0
451,0.0
452,-1.9538345242892745
453,0.0
490,0.0
515,0.0
516,0.0
542,0.0
592,4807858.162905221
632,33000000.0
686,1.0
687,1.0
688,2.0
2,21, 1,21, 0, 1,30.00,40.00,Monday
250,-0.8355939722597847
251,38050905.43692703
336,0.0
385,22.29156876599422
386,25.946633322645138
387,-0.9766673452550545
388,0.0
425,0.0
450,0.0
451,0.0
452,-1.9667092931392582
453,0.0
490,0.0
515,0.0
516,0.0
542,0.0
592,4791913.445623511
632,33000000.0
686,1.0
687,1.0
688,2.0
2,21, 1,21, 0, 1,40.00,50.00,Monday
250,-0.8357821951076142
251,38034960.28868329
336,0.0
385,22.29156876599422
386,25.946633322645138
387,-0.989301292471439
388,0.0
425,0.0
450,0.0
451,0.0
452,-1.9939159576194898
453,0.0
490,0.0
515,0.0
516,0.0
542,0.0
592,4775967.524030239
632,33000000.0
686,1.0
687,1.0
688,2.0
2,21, 1,21, 0, 1,50.00,60.00,Monday
250,-0.8359709986177953
251,38019013.47967496
336,0.0
385,22.29156876599422
386,25.946633322645138
387,-1.0037216411261585
388,0.0
425,0.0
450,0.0
451,0.0
452,-2.0339256759373003
453,0.0
490,0.0
515,0.0
516,0.0
542,0.0
592,4760020.397988958
632,33000000.0
686,1.0
687,1.0
688,2.0
2,21, 1,21, 0, 2, 0.00,10.00,Monday
250,-0.836048855716617
251,38018953.747180685
336,0.0
385,22.29156876599422
386,25.946633322645138
387,-1.0192457447971364
388,0.0
425,0.0
450,0.0
451,0.0
452,-2.0806927833364077
453,0.0
490,0.0
515,0.0
516,0.0
542,0.0
592,4760020.397988958
632,33000000.0
686,1.0
687,1.0
688,2.0
2,21, 1,21, 0, 2,10.00,20.00,Monday
250,-0.8361240982777439
251,38018952.33945326
336,0.0
385,22.29156876599422
386,25.946633322645138
387,-1.0349304486528594
388,0.0
425,0.0
450,0.0
451,0.0
452,-2.1234264028742595
453,0.0
490,0.0
515,0.0
516,0.0
542,0.0
592,4760020.397988956
632,33000000.0
686,1.0
687,1.0
688,2.0
2,21, 1,21, 0, 2,20.00,30.00,Monday
250,-0.8361991409612387
251,38018952.23182539
336,0.0
385,22.29156876599422
386,25.946633322645138
387,-1.0502219483471786
388,0.0
425,0.0
450,0.0
451,0.0
452,-2.1548965193436964
453,0.0
490,0.0
515,0.0
516,0.0
542,0.0
592,4760020.397988958
632,33000000.0
686,1.0
687,1.0
688,2.0
2,21, 1,21, 0, 2,30.00,40.00,Monday
250,-0.8362727350377529
251,38018951.451853305
336,0.0
385,22.29156876599422
386,25.946633322645138
387,-1.0647988588380186
388,0.0
425,0.0
450,0.0
451,0.0
452,-2.1742796147869337
453,0.0
490,0.0
515,0.0
516,0.0
542,0.0
592,4760020.397988958
632,33000000.0
686,1.0
687,1.0
688,2.0
2,21, 1,21, 0, 2,40.00,50.00,Monday
250,-0.8363452289779745
251,38018950.85950651
336,0.0
385,22.29156876599422
386,25.946633322645138
387,-1.0785207489828497
388,0.0
425,0.0
450,0.0
451,0.0
452,-2.184420214415135
453,0.0
490,0.0
515,0.0
516,0.0
542,0.0
592,4760020.397988958
632,33000000.0
686,1.0
687,1.0
688,2.0
2,21, 1,21, 0, 2,50.00,60.00,Monday
250,-0.836416436905028
251,38018950.16707781
336,0.0
385,22.29156876599422
386,25.946633322645138
387,-1.0913502485853375
388,0.0
425,0.0
450,0.0
451,0.0
452,-2.1884670528934524
453,0.0
490,0.0
515,0.0
516,0.0
542,0.0
592,4760020.397988958
632,33000000.0
686,1.0
687,1.0
688,2.0
2,21, 1,21, 0, 3, 0.00,10.00,Monday
250,-0.7540937765336057
251,37977125.29420357
336,0.0
385,22.29156876599422
386,25.946633322645138
387,-1.092897964707883
388,0.0
425,0.0
450,0.0
451,0.0
452,-2.180987623477074
453,0.0
490,0.0
515,0.0
516,0.0
542,0.0
592,4762558.894114006
632,33000000.0
686,1.0
687,1.0
688,2.0
2,21, 1,21, 0, 3,10.00,20.00,Monday
250,-0.6705347003783089
251,37978887.27738965
336,0.0
385,22.29156876599422
386,25.946633322645138
387,-1.0818505733952888
388,0.0
425,0.0
450,0.0
451,0.0
452,-2.1560059783927534
453,0.0
490,0.0
515,0.0
516,0.0
542,0.0
592,4764988.43573097
632,33000000.0
686,1.0
687,1.0
688,2.0
2,21, 1,21, 0, 3,20.00,30.00,Monday
250,-0.5874093338633856
251,37981438.75959438
336,0.0
385,22.29156876599422
386,25.946633322645138
387,-1.062615696880647
388,0.0
425,0.0
450,0.0
451,0.0
452,-2.1120741637851594
453,0.0
490,0.0
515,0.0
516,0.0
542,0.0
592,4767308.250738334
632,33000000.0
686,1.0
687,1.0
688,2.0
2,21, 1,21, 0, 3,30.00,40.00,Monday
250,-0.5042906928405977
251,37966371.16206384
336,0.0
385,22.29156876599422
386,25.946633322645138
387,-1.038988531904225
388,0.0
425,0.0
450,0.0
451,0.0
452,-2.052325214580037
453,0.0
490,0.0
515,0.0
516,0.0
542,0.0
592,4769517.689516207
632,32982721.208908524
686,1.0
687,1.0
688,2.0
2,21, 1,21, 0, 3,40.00,50.00,Monday
250,-0.42134108724474356
251,37923296.70438148
336,0.0
385,22.29156876599422
386,25.946633322645138
387,-1.0122742834857283
388,0.0
425,0.0
450,0.0
451,0.0
452,-1.981243903631047
453,0.0
490,0.0
515,0.0
516,0.0
542,0.0
592,4771616.115684973
632,32937459.17713918
686,1.0
687,1.0
688,2.0
2,21, 1,21, 0, 3,50.00,60.00,Monday
250,-0.33837889376856306
251,37880222.271661066
336,0.0
385,22.29156876599422
386,25.946633322645138
387,-0.9822244123487541
388,0.0
425,0.0
450,0.0
451,0.0
452,-1.9024484424155883
453,0.0
490,0.0
515,0.0
516,0.0
542,0.0
592,4773602.736238394
632,32892406.79263342
686,1.0
687,1.0
688,2.0
2,21, 1,21, 0, 4, 0.00,10.00,Monday
250,-0.3377743612634166
251,37881509.54932648
336,0.0
385,22.29156876599422
386,25.946633322645138
387,-0.9594934061823691
388,0.0
425,0.0
450,0.0
451,0.0
452,-1.8262276352230442
453,0.0
490,0.0
515,0.0
516,0.0
542,0.0
592,4773428.98237163
632,32849514.718828272
686,1.0
687,1.0
688,2.0
2,21, 1,21, 0, 4,10.00,20.00,Monday
250,-0.33810758677915
251,37881744.57421399
336,0.0
385,22.29156876599422
386,25.946633322645138
387,-0.9468992631670112
388,0.0
425,0.0
450,0.0
451,0.0
452,-1.76162175462028
453,0.0
490,0.0
515,0.0
516,0.0
542,0.0
592,4773255.169447958
632,32849418.512113106
686,1.0
687,1.0
688,2.0
2,21, 1,21, 0, 4,20.00,30.00,Monday
250,-0.3379815656451116
251,37881708.46649507
336,0.0
385,22.29156876599422
386,25.946633322645138
387,-0.9409211143703206
388,0.0
425,0.0
450,0.0
451,0.0
452,-1.7122349026153225
453,0.0
490,0.0
515,0.0
516,0.0
542,0.0
592,4773081.297437258
632,32849803.61129748
686,1.0
687,1.0
688,2.0
2,21, 1,21, 0, 4,30.00,40.00,Monday
250,-0.3379529068082936
251,37881733.51468885
336,0.0
385,22.29156876599422
386,25.946633322645138
387,-0.9376815593304891
388,0.0
425,0.0
450,0.0
451,0.0
452,-1.6764069386060616
453,0.0
490,0.0
515,0.0
516,0.0
542,0.0
592,4772907.366309401
632,32849950.15452533
686,1.0
687,1.0
688,2.0
2,21, 1,21, 0, 4,40.00,50.00,Monday
250,-0.3379301917365783
251,37881760.03584957
336,0.0
385,22.29156876599422
386,25.946633322645138
387,-0.9353939026157673
388,0.0
425,0.0
450,0.0
451,0.0
452,-1.650467055838466
453,0.0
490,0.0
515,0.0
516,0.0
542,0.0
592,4772733.376034233
632,32850147.464855187
686,1.0
687,1.0
688,2.0
2,21, 1,21, 0, 4,50.00,60.00,Monday
250,-0.3379070072240857
251,37881786.20929016
336,0.0
385,22.29156876599422
386,25.946633322645138
387,-0.9338815564542583
388,0.0
425,0.0
450,0.0
451,0.0
452,-1.6313574061369442
453,0.0
490,0.0
515,0.0
516,0.0
542,0.0
592,4772559.326581575
632,32850347.940586973
686,1.0
687,1.0
688,2.0
2,21, 1,21, 0, 5, 0.00,10.00,Monday
250,-0.33788524112262286
251,37881813.17946596
336,0.0
385,22.29156876599422
386,25.946633322645138
387,-0.9332018459850607
388,0.0
425,0.0
450,0.0
451,0.0
452,-1.6164626779307585
453,0.0
490,0.0
515,0.0
516,0.0
542,0.0
592,4759720.858689582
632,32863212.614755128
686,1.0
687,1.0
688,2.0
2,21, 1,21, 0, 5,10.00,20.00,Monday
250,-0.33785515259138077
251,37883110.860382274
336,0.0
385,22.29156876599422
386,25.946633322645138
387,-0.9332194751028018
388,0.0
425,0.0
450,0.0
451,0.0
452,-1.6034719814819753
453,0.0
490,0.0
515,0.0
516,0.0
542,0.0
592,4746877.262331866
632,32877358.374794908
686,1.0
687,1.0
688,2.0
2,21, 1,21, 0, 5,20.00,30.00,Monday
250,-0.33782500683595934
251,37884428.49533509
336,0.0
385,22.29156876599422
386,25.946633322645138
387,-0.9337046949593327
388,0.0
425,0.0
450,0.0
451,0.0
452,-1.5909838018489229
453,0.0
490,0.0
515,0.0
516,0.0
542,0.0
592,4734028.534436013
632,32891524.7690355
686,1.0
687,1.0
688,2.0
2,21, 1,21, 0, 5,30.00,40.00,Monday
250,-0.3377950212596044
251,37885739.62809639
336,0.0
385,22.29156876599422
386,25.946633322645138
387,-0.9344534873706652
388,0.0
425,0.0
450,0.0
451,0.0
452,-1.5785652138655457
453,0.0
490,0.0
515,0.0
516,0.0
542,0.0
592,4721174.671927154
632,32905689.67859796
686,1.0
687,1.0
688,2.0
2,21, 1,21, 0, 5,40.00,50.00,Monday
250,-0.3377649776863699
251,37887052.68377216
336,0.0
385,22.29156876599422
386,25.946633322645138
387,-0.9353296965326626
388,0.0
425,0.0
450,0.0
451,0.0
452,-1.5662854541526703
453,0.0
490,0.0
515,0.0
516,0.0
542,0.0
592,4708315.671727969
632,32919861.766279288
686,1.0
687,1.0
688,2.0
2,21, 1,21, 0, 5,50.00,60.00,Monday
250,-0.33773480377964304
251,37888366.2864435
336,0.0
385,22.29156876599422
386,25.946633322645138
387,-0.9362541679034468
388,0.0
425,0.0
450,0.0
451,0.0
452,-1.5542957108568667
453,0.0
490,0.0
515,0.0
516,0.0
542,0.0
592,4695451.530758676
632,32934039.580693834
686,1.0
687,1.0
688,2.0
2,21, 1,21, 0, 6, 0.00,10.00,Monday
250,-0.33770325805693835
251,37889679.66321888
336,0.0
385,22.29156876599422
386,25.946633322645138
387,-0.9373137235781673
388,0.0
425,0.0
450,0.0
451,0.0
452,-1.5432931336962499
453,0.0
490,0.0
515,0.0
516,0.0
542,0.0
592,4695264.082255858
632,32935541.145515803
686,1.0
687,1.0
688,2.0
2,21, 1,21, 0, 6,10.00,20.00,Monday
250,-0.33768027105452436
251,37889721.24880839
336,0.0
385,22.29156876599422
386,25.946633322645138
387,-0.9385917556267701
388,0.0
425,0.0
450,0.0
451,0.0
452,-1.5340918781724104
453,0.0
490,0.0
515,0.0
516,0.0
542,0.0
592,4695076.569900009
632,32935765.633047197
686,1.0
687,1.0
688,2.0
2,21, 1,21, 0, 6,20.00,30.00,Monday
250,-0.33765732994980024
251,37889743.38388301
336,0.0
385,22.29156876599422
386,25.946633322645138
387,-0.9400823497941825
388,0.0
425,0.0
450,0.0
451,0.0
452,-1.5270165191285168
453,0.0
490,0.0
515,0.0
516,0.0
542,0.0
592,4694888.993658494
632,32935975.319650266
686,1.0
687,1.0
688,2.0
2,21, 1,21, 0, 6,30.00,40.00,Monday
250,-0.33763393319648877
251,37889772.41321986
336,0.0
385,22.29156876599422
386,25.946633322645138
387,-0.9417432550830405
388,0.0
425,0.0
450,0.0
451,0.0
452,-1.5218587242974757
453,0.0
490,0.0
515,0.0
516,0.0
542,0.0
592,4694701.353498662
632,32936192.234611224
686,1.0
687,1.0
688,2.0
2,21, 1,21, 0, 6,40.00,50.00,Monday
250,-0.33761040826904926
251,37889799.95970428
336,0.0
385,22.29156876599422
386,25.946633322645138
387,-0.9435424331491683
388,0.0
425,0.0
450,0.0
451,0.0
452,-1.5181697039027808
453,0.0
490,0.0
515,0.0
516,0.0
542,0.0
592,4694513.649387832
632,32936407.55426531
686,1.0
687,1.0
688,2.0
2,21, 1,21, 0, 6,50.00,60.00,Monday
250,-0.3375866212508851
251,37889827.29019852
336,0.0
385,22.29156876599422
386,25.946633322645138
387,-0.9454626929139756
388,0.0
425,0.0
450,0.0
451,0.0
452,-1.5155300976879766
453,0.0
490,0.0
515,0.0
516,0.0
542,0.0
592,4694325.88129331
632,32936622.794051923
686,1.0
687,1.0
688,2.0
2,21, 1,21, 0, 7, 0.00,10.00,Monday
250,-0.3381876828876764
251,37890191.24764809
336,0.0
385,22.29156876599422
386,25.946633322645138
387,-0.9499253114712467
388,0.0
425,0.0
450,0.0
451,0.0
452,-1.5188079015653788
453,0.0
490,0.0
515,0.0
516,0.0
542,0.0
592,4723573.583255435
632,32907402.452381246
686,1.0
687,1.0
688,2.0
2,21, 1,21, 0, 7,10.00,20.00,Monday
250,-0.3381660582905855
251,37887276.74363353
336,0.0
385,22.29156876599422
386,25.946633322645138
387,-0.959103206418445
388,0.0
425,0.0
450,0.0
451,0.0
452,-1.537477887592701
453,0.0
490,0.0
515,0.0
516,0.0
542,0.0
592,4752837.186047653
632,32875559.77698796
686,1.0
687,1.0
688,2.0
2,21, 1,21, 0, 7,20.00,30.00,Monday
250,-0.3381293877746153
251,37884307.64684053
336,0.0
385,22.29156876599422
386,25.946633322645138
387,-0.9732374304497009
388,0.0
425,0.0
450,0.0
451,0.0
452,-1.576908835093345
453,0.0
490,0.0
515,0.0
516,0.0
542,0.0
592,4782116.702651945
632,32843319.266456716
686,1.0
687,1.0
688,2.0
2,21, 1,21, 0, 7,30.00,40.00,Monday
250,-0.33809586833560484
251,37881355.0802344
336,0.0
385,22.29156876599422
386,25.946633322645138
387,-0.9913735205517817
388,0.0
425,0.0
450,0.0
451,0.0
452,-1.6347142145741798
453,0.0
490,0.0
515,0.0
516,0.0
542,0.0
592,4811412.146064445
632,32811069.557861034
686,1.0
687,1.0
688,2.0
2,21, 1,21, 0, 7,40.00,50.00,Monday
250,-0.33806109190081496
251,37878396.95790814
336,0.0
385,22.29156876599422
386,25.946633322645138
387,-1.012433074681486
388,0.0
425,0.0
450,0.0
451,0.0
452,-1.7046391866179134
453,0.0
490,0.0
515,0.0
516,0.0
542,0.0
592,4840723.5292954575
632,32778800.727819372
686,1.0
687,1.0
688,2.0
2,21, 1,21, 0, 7,50.00,60.00,Monday
250,-0.3380258394006543
251,37875436.7846723
336,0.0
385,22.29156876599422
386,25.946633322645138
387,-1.0356693063977924
388,0.0
425,0.0
450,0.0
451,0.0
452,-1.7809921308451646
453,0.0
490,0.0
515,0.0
516,0.0
542,0.0
592,4870050.865369482
632,32746513.47340577
686,1.0
687,1.0
688,2.0
2,21, 1,21, 0, 8, 0.00,10.00,Monday
250,-0.13777205734446632
251,37764670.28135837
336,0.0
385,22.29156876599422
386,25.946633322645138
387,-1.0317891751918653
388,0.0
425,0.0
450,0.0
451,0.0
452,-1.8399401365207377
453,0.0
490,0.0
515,0.0
516,0.0
542,0.0
592,4889730.300311495
632,32723872.308921024
686,1.0
687,1.0
688,2.0
2,21, 1,21, 0, 8,10.00,20.00,Monday
250,0.06256821514787149
251,37659117.14906755
336,0.0
385,22.29156876599422
386,25.946633322645138
387,-0.9902764669612614
388,0.0
425,0.0
450,0.0
451,0.0
452,-1.8310833147496623
453,0.0
490,0.0
515,0.0
516,0.0
542,0.0
592,4909380.719869504
632,32598721.964348625
686,1.0
687,1.0
688,2.0
2,21, 1,21, 0, 8,20.00,30.00,Monday
250,0.2616426835605481
251,37554324.83629574
336,0.0
385,22.29156876599422
386,25.946633322645138
387,-0.9192831738476102
388,0.0
425,0.0
450,0.0
451,0.0
452,-1.7236504003425523
453,0.0
490,0.0
515,0.0
516,0.0
542,0.0
592,4929009.615695273
632,32473626.01962754
686,1.0
687,1.0
688,2.0
2,21, 1,21, 0, 8,30.00,40.00,Monday
250,0.4610638212425846
251,37449315.526299454
336,0.0
385,22.29156876599422
386,25.946633322645138
387,-0.8290295766522393
388,0.0
425,0.0
450,0.0
451,0.0
452,-1.5280129982871868
453,0.0
490,0.0
515,0.0
516,0.0
542,0.0
592,4952863.6467726575
632,32344956.185173538
686,1.0
687,1.0
688,2.0
2,21, 1,21, 0, 8,40.00,50.00,Monday
250,0.6605483539165268
251,37343864.117386214
336,0.0
385,22.29156876599422
386,25.946633322645138
387,-0.7274686093433358
388,0.0
425,0.0
450,0.0
451,0.0
452,-1.252542796760735
453,0.0
490,0.0
515,0.0
516,0.0
542,0.0
592,4977062.298687916
632,32215345.956818677
686,1.0
687,1.0
688,2.0
2,21, 1,21, 0, 8,50.00,60.00,Monday
250,0.8605201586239732
251,37239085.24376799
336,0.0
385,22.29156876599422
386,25.946633322645138
387,-0.631611567847612
388,0.0
425,0.0
450,0.0
451,0.0
452,-0.9396329535680736
453,0.0
490,0.0
515,0.0
516,0.0
542,0.0
592,5001395.306277512
632,32033147.245540388
686,1.0
687,1.0
688,2.0
2,21, 1,21, 0, 9, 0.00,10.00,Monday
250,1.1264009786753348
251,37099853.01343669
336,0.0
385,22.29156876599422
386,25.946633322645138
387,-0.49325323633909124
388,0.0
425,0.0
450,0.0
451,0.0
452,-0.46025818302201094
453,0.0
490,0.0
515,0.0
516,0.0
542,0.0
592,5029363.153609448
632,31882575.127842486
686,1.0
687,1.0
688,2.0
2,21, 1,21, 0, 9,10.00,20.00,Monday
250,1.3922185763237183
251,36959697.500918955
336,0.0
385,22.29156876599422
386,25.946633322645138
387,-0.34249770390681183
388,0.0
425,0.0
450,0.0
451,0.0
452,0.06396472608150316
453,0.0
490,0.0
515,0.0
516,0.0
542,0.0
592,5057356.862312016
632,31714415.622000247
686,1.0
687,1.0
688,2.0
2,21, 1,21, 0, 9,20.00,30.00,Monday
250,1.6581307922098385
251,36819486.86863084
336,0.0
385,22.29156876599422
386,25.946633322645138
387,-0.182593565457084
388,0.0
425,0.0
450,0.0
451,0.0
452,0.6286657784094759
453,0.0
490,0.0
515,0.0
516,0.0
542,0.0
592,5085392.284952975
632,31546195.660141155
686,1.0
687,1.0
688,2.0
2,21, 1,21, 0, 9,30.00,40.00,Monday
250,1.9239949702344665
251,36679299.98595509
336,0.0
385,22.29156876599422
386,25.946633322645138
387,-0.012831194107578886
388,0.0
425,0.0
450,0.0
451,0.0
452,1.2232976734795653
453,0.0
490,0.0
515,0.0
516,0.0
542,0.0
592,5113485.892141593
632,31377903.461268164
686,1.0
687,1.0
688,2.0
2,21, 1,21, 0, 9,40.00,50.00,Monday
250,2.19004700302768
251,36538015.0329344
336,0.0
385,22.29156876599424
386,25.946633322645155
387,0.13235827387634846
388,0.0
425,0.0
450,0.0
451,0.0
452,1.724978721910953
453,0.0
490,0.0
515,0.0
516,0.0
542,0.0
592,5141654.529350725
632,31185255.4942479
686,1.0000000000000009
687,1.0000000000000009
688,2.0000000000000018
2,21, 1,21, 0, 9,50.00,60.00,Monday
250,2.4562156988419215
251,36397130.46061511
336,0.0
385,22.29156876599422
386,25.946633322645138
387,0.2845208720067657
388,0.0
425,0.0
450,0.0
451,0.0
452,2.2654599451381996
453,0.0
490,0.0
515,0.0
516,0.0
542,0.0
592,5169915.672059793
632,31040696.97433181
686,1.0
687,1.0
688,2.0
2,21, 1,21, 0,10, 0.00,10.00,Monday
250,2.9200454989112457
251,36151022.27888334
336,0.0
385,22.29156876599422
386,25.946633322645134
387,0.47500750437301253
388,0.0
425,0.0
450,0.0
451,0.0
452,2.824735986850941
453,0.0
490,0.0
515,0.0
516,0.0
542,0.0
592,5241404.10703412
632,30734076.32303626
686,1.0
687,1.0
688,2.0
2,21, 1,21, 0,10,10.00,20.00,Monday
250,3.3846301897384685
251,35905132.4697312
336,0.0
385,22.29156876599422
386,25.946633322645134
387,0.7660510169124379
388,0.0
425,0.0
450,0.0
451,0.0
452,3.5796182186365613
453,0.0
490,0.0
515,0.0
516,0.0
542,0.0
592,5315291.857316207
632,30413369.10379844
686,1.0
687,1.0
688,2.0
2,21, 1,21, 0,10,20.00,30.00,Monday
250,3.8494162877509126
251,35657863.896092065
336,0.0
385,22.291568765994214
386,25.946633322645127
387,1.0464216030001539
388,0.0
425,0.0
450,0.0
451,0.0
452,4.268503645858899
453,0.0
490,0.0
515,0.0
516,0.0
542,0.0
592,5391793.298050373
632,30089677.642197937
686,0.9999999999999996
687,0.9999999999999996
688,1.9999999999999991
2,21, 1,21, 0,10,30.00,40.00,Monday
250,4.314325686596865
251,35410394.99315106
336,0.0
385,22.291568765994228
386,25.946633322645148
387,1.3281725310719088
388,0.0
425,0.0
450,0.0
451,0.0
452,4.970430718571357
453,0.0
490,0.0
515,0.0
516,0.0
542,0.0
592,5471132.199313744
632,29762936.590775922
686,1.0000000000000004
687,1.0000000000000004
688,2.000000000000001
2,21, 1,21, 0,10,40.00,50.00,Monday
250,4.779409916213638
251,35162691.06490333
336,0.0
385,22.29156876599424
386,25.946633322645155
387,1.6182968245290144
388,0.0
425,0.0
450,0.0
451,0.0
452,5.734529958578381
453,0.0
490,0.0
515,0.0
516,0.0
542,0.0
592,5553542.3757593315
632,29432900.74750304
686,1.0000000000000009
687,1.0000000000000009
688,2.0000000000000018
2,21, 1,21, 0,10,50.00,60.00,Monday
250,5.24450358886143
251,34914834.481710985
336,0.0
385,22.29156876599424
386,25.946633322645155
387,1.9185078471964694
388,0.0
425,0.0
450,0.0
451,0.0
452,6.563566319575726
453,0.0
490,0.0
515,0.0
516,0.0
542,0.0
592,5639267.778995938
632,29099369.544503026
686,1.0000000000000009
687,1.0000000000000009
688,2.0000000000000018
2,21, 1,21, 0,11, 0.00,10.00,Monday
250,5.527968815012835
251,34763994.30833171
336,0.0
385,22.29156876599422
386,25.946633322645134
387,2.2050051266349695
388,0.0
425,0.0
450,0.0
451,0.0
452,7.418775862718514
453,0.0
490,0.0
515,0.0
516,0.0
542,0.0
592,5689519.861596227
632,28865912.36913031
686,1.0
687,1.0
688,2.0
2,21, 1,21, 0,11,10.00,20.00,Monday
250,5.8108661271694775
251,34613402.977981396
336,0.0
385,22.29156876599422
386,25.946633322645134
387,2.4747674680859055
388,0.0
425,0.0
450,0.0
451,0.0
452,8.269285527412253
453,0.0
490,0.0
515,0.0
516,0.0
542,0.0
592,5740969.350869596
632,28663785.332987264
686,1.0
687,1.0
688,2.0
2,21, 1,21, 0,11,20.00,30.00,Monday
250,6.093810914455917
251,34462736.48137624
336,0.0
385,22.291568765994214
386,25.946633322645127
387,2.7469236867679783
388,0.0
425,0.0
450,0.0
451,0.0
452,9.115878563150456
453,0.0
490,0.0
515,0.0
516,0.0
542,0.0
592,5793671.095282218
632,28460442.273535497
686,0.9999999999999996
687,0.9999999999999996
688,1.9999999999999991
2,21, 1,21, 0,11,30.00,40.00,Monday
250,6.376553276195217
251,34312126.26927054
336,0.0
385,22.291568765994228
386,25.946633322645148
387,3.024255748421753
388,0.0
425,0.0
450,0.0
451,0.0
452,9.937688583151527
453,0.0
490,0.0
515,0.0
516,0.0
542,0.0
592,5847681.4279665835
632,28255802.796196602
686,1.0000000000000004
687,1.0000000000000004
688,2.000000000000001
2,21, 1,21, 0,11,40.00,50.00,Monday
250,6.659208488015058
251,34161509.06927131
336,0.0
385,22.29156876599424
386,25.946633322645155
387,3.303362148581619
388,0.0
425,0.0
450,0.0
451,0.0
452,10.683240187670823
453,0.0
490,0.0
515,0.0
516,0.0
542,0.0
592,5903058.082199926
632,28049811.22568608
686,1.0000000000000009
687,1.0000000000000009
688,2.0000000000000018
2,21, 1,21, 0,11,50.00,60.00,Monday
250,6.941745780556768
251,34010899.995509505
336,0.0
385,22.29156876599424
386,25.946633322645155
387,3.580390497898194
388,0.0
425,0.0
450,0.0
451,0.0
452,11.319067306960628
453,0.0
490,0.0
515,0.0
516,0.0
542,0.0
592,5959860.237244541
632,27842397.23862901
686,1.0000000000000009
687,1.0000000000000009
688,2.0000000000000018
2,21, 1,21, 0,12, 0.00,10.00,Monday
250,7.208420176829087
251,33868781.51654011
336,0.0
385,22.29156876599422
386,25.946633322645138
387,3.8203966800656
388,0.0
425,0.0
450,0.0
451,0.0
452,11.818174220734544
453,0.0
490,0.0
515,0.0
516,0.0
542,0.0
592,5991096.197635709
632,27691364.31765718
686,1.0
687,1.0
688,2.0
2,21, 1,21, 0,12,10.00,20.00,Monday
250,7.473881399620236
251,33730795.33776209
336,0.0
385,22.29156876599422
386,25.946633322645138
387,4.112789727526186
388,0.0
425,0.0
450,0.0
451,0.0
452,12.382161694569481
453,0.0
490,0.0
515,0.0
516,0.0
542,0.0
592,7572016.881221028
632,25970636.5071147
686,1.0
687,1.0
688,2.0
2,21, 1,21, 0,12,20.00,30.00,Monday
250,7.739945579780315
251,33590762.633337684
336,0.0
385,22.29156876599422
386,25.946633322645138
387,4.381913293862272
388,0.0
425,0.0
450,0.0
451,0.0
452,12.89708052634449
453,0.0
490,0.0
515,0.0
516,0.0
542,0.0
592,7609409.155487608
632,25793367.038346346
686,1.0
687,1.0
688,2.0
2,21, 1,21, 0,12,30.00,40.00,Monday
250,8.005937368740874
251,33450770.156322278
336,0.0
385,22.29156876599422
386,25.946633322645138
387,4.640734364694621
388,0.0
425,0.0
450,0.0
451,0.0
452,13.388942890437779
453,0.0
490,0.0
515,0.0
516,0.0
542,0.0
592,7646583.592010484
632,25616180.50304815
686,1.0
687,1.0
688,2.0
2,21, 1,21, 0,12,40.00,50.00,Monday
250,8.271902815293046
251,33310791.584921468
336,0.0
385,22.29156876599422
386,25.946633322645138
387,4.895165852092587
388,0.0
425,0.0
450,0.0
451,0.0
452,13.831043294034371
453,0.0
490,0.0
515,0.0
516,0.0
542,0.0
592,7683540.190789656
632,25439238.409715604
686,1.0
687,1.0
688,2.0
2,21, 1,21, 0,12,50.00,60.00,Monday
250,8.537860468872235
251,33170816.433802593
336,0.0
385,22.29156876599422
386,25.946633322645138
387,5.144116459784238
388,0.0
425,0.0
450,0.0
451,0.0
452,14.198811753069581
453,0.0
490,0.0
515,0.0
516,0.0
542,0.0
592,7720278.951825123
632,25262522.875366703
686,1.0
687,1.0
688,2.0
2,21, 1,21, 0,13, 0.00,10.00,Monday
250,8.720865156303258
251,33072128.00169131
336,0.0
385,22.29156876599422
386,25.946633322645138
387,5.3765089259666015
388,0.0
425,0.0
450,0.0
451,0.0
452,14.490037825050543
453,0.0
490,0.0
515,0.0
516,0.0
542,0.0
592,7745410.487127082
632,25164820.959035743
686,1.0
687,1.0
688,2.0
2,21, 1,21, 0,13,10.00,20.00,Monday
250,8.903521732747494
251,32977619.369393714
336,0.0
385,22.29156876599422
386,25.946633322645138
387,5.595303905044436
388,0.0
425,0.0
450,0.0
451,0.0
452,14.719295108468561
453,0.0
490,0.0
515,0.0
516,0.0
542,0.0
592,7770439.060057994
632,25046880.14533679
686,1.0
687,1.0
688,2.0
2,21, 1,21, 0,13,20.00,30.00,Monday
250,9.086638050500476
251,32882961.144380145
336,0.0
385,22.29156876599422
386,25.946633322645138
387,5.8002139836972475
388,0.0
425,0.0
450,0.0
451,0.0
452,14.90248031908266
453,0.0
490,0.0
515,0.0
516,0.0
542,0.0
592,7795364.67061786
632,24927557.030516595
686,1.0
687,1.0
688,2.0
2,21, 1,21, 0,13,30.00,40.00,Monday
250,9.26961488823268
251,32788408.222754266
336,0.0
385,22.29156876599422
386,25.946633322645138
387,5.9952589380613475
388,0.0
425,0.0
450,0.0
451,0.0
452,15.051348378906034
453,0.0
490,0.0
515,0.0
516,0.0
542,0.0
592,7820187.318806681
632,24808118.890918817
686,1.0
687,1.0
688,2.0
2,21, 1,21, 0,13,40.00,50.00,Monday
250,9.45259728329438
251,32693885.799845766
336,0.0
385,22.29156876599422
386,25.946633322645138
387,6.184189176020849
388,0.0
425,0.0
450,0.0
451,0.0
452,15.170678516042528
453,0.0
490,0.0
515,0.0
516,0.0
542,0.0
592,7844907.0046244515
632,24688892.687094774
686,1.0
687,1.0
688,2.0
2,21, 1,21, 0,13,50.00,60.00,Monday
250,9.635573718986297
251,32599399.761652723
336,0.0
385,22.29156876599422
386,25.946633322645138
387,6.368304646934799
388,0.0
425,0.0
450,0.0
451,0.0
452,15.26410211926901
453,0.0
490,0.0
515,0.0
516,0.0
542,0.0
592,7869523.728071173
632,24569799.790402833
686,1.0
687,1.0
688,2.0
2,21, 1,21, 0,14, 0.00,10.00,Monday
250,9.835501594108598
251,32495791.310623664
336,0.0
385,22.29156876599422
386,25.946633322645138
387,6.550444420822613
388,0.0
425,0.0
450,0.0
451,0.0
452,15.320216628444689
453,0.0
490,0.0
515,0.0
516,0.0
542,0.0
592,7896260.907308879
632,24448623.162749395
686,1.0
687,1.0
688,2.0
2,21, 1,21, 0,14,10.00,20.00,Monday
250,10.03509146694998
251,32391967.840174496
336,0.0
385,22.29156876599422
386,25.946633322645138
387,6.730740287594195
388,0.0
425,0.0
450,0.0
451,0.0
452,15.320701986902838
453,0.0
490,0.0
515,0.0
516,0.0
542,0.0
592,7922875.552815756
632,24318015.727524072
686,1.0
687,1.0
688,2.0
2,21, 1,21, 0,14,20.00,30.00,Monday
250,10.23457640838275
251,32288215.383710552
336,0.0
385,22.29156876599422
386,25.946633322645138
387,6.907034422036955
388,0.0
425,0.0
450,0.0
451,0.0
452,15.265090361618851
453,0.0
490,0.0
515,0.0
516,0.0
542,0.0
592,7949367.664591794
632,24187727.84753989
686,1.0
687,1.0
688,2.0
2,21, 1,21, 0,14,30.00,40.00,Monday
250,10.43399063382347
251,32184525.884174623
336,0.0
385,22.29156876599422
386,25.946633322645138
387,7.07337442810514
388,0.0
425,0.0
450,0.0
451,0.0
452,15.142856206394613
453,0.0
490,0.0
515,0.0
516,0.0
542,0.0
592,7975737.242637001
632,24057644.103662115
686,1.0
687,1.0
688,2.0
2,21, 1,21, 0,14,40.00,50.00,Monday
250,10.633342002944573
251,32080892.35942771
336,0.0
385,22.29156876599422
386,25.946633322645138
387,7.226066598707088
388,0.0
425,0.0
450,0.0
451,0.0
452,14.934278142298902
453,0.0
490,0.0
515,0.0
516,0.0
542,0.0
592,8001984.286951375
632,23927743.270773407
686,1.0
687,1.0
688,2.0
2,21, 1,21, 0,14,50.00,60.00,Monday
250,10.83264890208475
251,31977305.35449612
336,0.0
385,22.29156876599422
386,25.946633322645138
387,7.365401214989681
388,0.0
425,0.0
450,0.0
451,0.0
452,14.642393734981109
453,0.0
490,0.0
515,0.0
516,0.0
542,0.0
592,8028108.797534912
632,23798021.58780194
686,1.0
687,1.0
688,2.0
2,21, 1,21, 0,15, 0.00,10.00,Monday
250,11.098445472369303
251,31838532.203329265
336,0.0
385,22.29156876599422
386,25.946633322645138
387,7.486380573015791
388,0.0
425,0.0
450,0.0
451,0.0
452,14.347082699187212
453,0.0
490,0.0
515,0.0
516,0.0
542,0.0