Program Version,EnergyPlus, Version 24.2.0-94a887817b, YMD=2025.01.21 11:39
1,5,Environment Title[],Latitude[deg],Longitude[deg],Time Zone[],Elevation[m]
2,8,Day of Simulation[],Month[],Day of Month[],DST Indicator[1=yes 0=no],Hour[],StartMinute[],EndMinute[],DayType
3,5,Cumulative Day of Simulation[],Month[],Day of Month[],DST Indicator[1=yes 0=no],DayType  ! When Daily Report Variables Requested
4,2,Cumulative Days of Simulation[],Month[]  ! When Monthly Report Variables Requested
5,1,Cumulative Days of Simulation[] ! When Run Period Report Variables Requested
6,1,Calendar Year of Simulation[] ! When Annual Report Variables Requested
250,1,LIVING ZONE,Zone Air Temperature [C] !TimeStep,REPORTSCH
251,1,LIVING ZONE,Zone Air System Sensible Heating Energy [J] !TimeStep,REPORTSCH
336,1,LIVING ZONE,Zone Air System Sensible Cooling Energy [J] !TimeStep,REPORTSCH
385,1,LIVING ZONE,Zone Thermostat Heating Setpoint Temperature [C] !TimeStep,REPORTSCH
386,1,LIVING ZONE,Zone Thermostat Cooling Setpoint Temperature [C] !TimeStep,REPORTSCH
387,1,GARAGE ZONE,Zone Air Temperature [C] !TimeStep,REPORTSCH
388,1,GARAGE ZONE,Zone Air System Sensible Heating Energy [J] !TimeStep,REPORTSCH
425,1,GARAGE ZONE,Zone Air System Sensible Cooling Energy [J] !TimeStep,REPORTSCH
450,1,GARAGE ZONE,Zone Thermostat Heating Setpoint Temperature [C] !TimeStep,REPORTSCH
451,1,GARAGE ZONE,Zone Thermostat Cooling Setpoint Temperature [C] !TimeStep,REPORTSCH
452,1,ATTIC ZONE,Zone Air Temperature [C] !TimeStep,REPORTSCH
453,1,ATTIC ZONE,Zone Air System Sensible Heating Energy [J] !TimeStep,REPORTSCH
490,1,ATTIC ZONE,Zone Air System Sensible Cooling Energy [J] !TimeStep,REPORTSCH
515,1,ATTIC ZONE,Zone Thermostat Heating Setpoint Temperature [C] !TimeStep,REPORTSCH
516,1,ATTIC ZONE,Zone Thermostat Cooling Setpoint Temperature [C] !TimeStep,REPORTSCH
542,1,ACDXCOIL 1,Cooling Coil Total Cooling Energy [J] !TimeStep,REPORTSCH
592,1,HEAT PUMP DX HEATING COIL 1,Heating Coil Heating Energy [J] !TimeStep,REPORTSCH
632,1,SUPP HEATING COIL 1,Heating Coil Heating Energy [J] !TimeStep,REPORTSCH
686,1,TWOSPEED HEAT PUMP 1,Unitary System DX Coil Cycling Ratio [] !TimeStep,REPORTSCH
687,1,TWOSPEED HEAT PUMP 1,Unitary System DX Coil Speed Ratio [] !TimeStep,REPORTSCH
688,1,TWOSPEED HEAT PUMP 1,Unitary System DX Coil Speed Level [] !TimeStep,REPORTSCH
End of Data Dictionary
1,CHICAGO_IL_USA ANNUAL HEATING 99% DESIGN CONDITIONS DB,  41.98, -87.92,  -6.00, 201.00
2,1, 1,21, 0, 1, 0.00,10.00,WinterDesignDay
250,-16.101886495442443
251,33258891.428865008
336,0.0
385,20.905369239500875
386,27.12793744508282
387,-18.478423049932378
388,0.0
425,0.0
450,0.0
451,0.0
452,-19.33855319283309
453,0.0
490,0.0
515,0.0
516,0.0
542,0.0
592,0.0
632,33000000.0
686,1.0
687,1.0
688,2.0
2,1, 1,21, 0, 1,10.00,20.00,WinterDesignDay
250,-16.101886495982768
251,33258891.42886113
336,0.0
385,20.905369239500875
386,27.12793744508282
387,-18.478424533144214
388,0.0
425,0.0
450,0.0
451,0.0
452,-19.338553400667678
453,0.0
490,0.0
515,0.0
516,0.0
542,0.0
592,0.0
632,33000000.0
686,1.0
687,1.0
688,2.0
2,1, 1,21, 0, 1,20.00,30.00,WinterDesignDay
250,-16.101886496515963
251,33258891.428857304
336,0.0
385,20.905369239500875
386,27.12793744508282
387,-18.478425997024857
388,0.0
425,0.0
450,0.0
451,0.0
452,-19.338553605792967
453,0.0
490,0.0
515,0.0
516,0.0
542,0.0
592,0.0
632,33000000.0
686,1.0
687,1.0
688,2.0
2,1, 1,21, 0, 1,30.00,40.00,WinterDesignDay
250,-16.101886497042113
251,33258891.428853523
336,0.0
385,20.905369239500875
386,27.12793744508282
387,-18.478427441826277
388,0.0
425,0.0
450,0.0
451,0.0
452,-19.33855380824428
453,0.0
490,0.0
515,0.0
516,0.0
542,0.0
592,0.0
632,33000000.0
686,1.0
687,1.0
688,2.0
2,1, 1,21, 0, 1,40.00,50.00,WinterDesignDay
250,-16.101886497561313
251,33258891.4288498
336,0.0
385,20.905369239500875
386,27.12793744508282
387,-18.478428867797216
388,0.0
425,0.0
450,0.0
451,0.0
452,-19.338554008056477
453,0.0
490,0.0
515,0.0
516,0.0
542,0.0
592,0.0
632,33000000.0
686,1.0
687,1.0
688,2.0
2,1, 1,21, 0, 1,50.00,60.00,WinterDesignDay
250,-16.101886498073664
251,33258891.42884613
336,0.0
385,20.905369239500875
386,27.12793744508282
387,-18.47843027518312
388,0.0
425,0.0
450,0.0
451,0.0
452,-19.338554205263964
453,0.0
490,0.0
515,0.0
516,0.0
542,0.0
592,0.0
632,33000000.0
686,1.0
687,1.0
688,2.0
2,1, 1,21, 0, 2, 0.00,10.00,WinterDesignDay
250,-16.10188649857924
251,33258891.428842496
336,0.0
385,20.905369239500875
386,27.12793744508282
387,-18.478431664226044
388,0.0
425,0.0
450,0.0
451,0.0
452,-19.3385543999007
453,0.0
490,0.0
515,0.0
516,0.0
542,0.0
592,0.0
632,33000000.0
686,1.0
687,1.0
688,2.0
2,1, 1,21, 0, 2,10.00,20.00,WinterDesignDay
250,-16.101886499078145
251,33258891.42883892
336,0.0
385,20.905369239500875
386,27.12793744508282
387,-18.47843303516514
388,0.0
425,0.0
450,0.0
451,0.0
452,-19.338554592000207
453,0.0
490,0.0
515,0.0
516,0.0
542,0.0
592,0.0
632,33000000.0
686,1.0
687,1.0
688,2.0
2,1, 1,21, 0, 2,20.00,30.00,WinterDesignDay
250,-16.101886499570462
251,33258891.428835385
336,0.0
385,20.905369239500875
386,27.12793744508282
387,-18.47843438823639
388,0.0
425,0.0
450,0.0
451,0.0
452,-19.338554781595555
453,0.0
490,0.0
515,0.0
516,0.0
542,0.0
592,0.0
632,33000000.0
686,1.0
687,1.0
688,2.0
2,1, 1,21, 0, 2,30.00,40.00,WinterDesignDay
250,-16.101886500056278
251,33258891.428831898
336,0.0
385,20.905369239500875
386,27.12793744508282
387,-18.478435723672668
388,0.0
425,0.0
450,0.0
451,0.0
452,-19.338554968719396
453,0.0
490,0.0
515,0.0
516,0.0
542,0.0
592,0.0
632,33000000.0
686,1.0
687,1.0
688,2.0
2,1, 1,21, 0, 2,40.00,50.00,WinterDesignDay
250,-16.10188650053569
251,33258891.428828467
336,0.0
385,20.905369239500875
386,27.12793744508282
387,-18.478437041703778
388,0.0
425,0.0
450,0.0
451,0.0
452,-19.338555153403952
453,0.0
490,0.0
515,0.0
516,0.0
542,0.0
592,0.0
632,33000000.0
686,1.0
687,1.0
688,2.0
2,1, 1,21, 0, 2,50.00,60.00,WinterDesignDay
250,-16.10188650100877
251,33258891.42882507
336,0.0
385,20.905369239500875
386,27.12793744508282
387,-18.478438342556593
388,0.0
425,0.0
450,0.0
451,0.0
452,-19.338555335681022
453,0.0
490,0.0
515,0.0
516,0.0
542,0.0
592,0.0
632,33000000.0
686,1.0
687,1.0
688,2.0
2,1, 1,21, 0, 3, 0.00,10.00,WinterDesignDay
250,-16.101886501475608
251,33258891.428821724
336,0.0
385,20.905369239500875
386,27.12793744508282
387,-18.4784396264549
388,0.0
425,0.0
450,0.0
451,0.0
452,-19.338555515581994
453,0.0
490,0.0
515,0.0
516,0.0
542,0.0
592,0.0
632,33000000.0
686,1.0
687,1.0
688,2.0
2,1, 1,21, 0, 3,10.00,20.00,WinterDesignDay
250,-16.10188650193629
251,33258891.42881842
336,0.0
385,20.905369239500875
386,27.12793744508282
387,-18.47844089361963
388,0.0
425,0.0
450,0.0
451,0.0
452,-19.338555693137845
453,0.0
490,0.0
515,0.0
516,0.0
542,0.0
592,0.0
632,33000000.0
686,1.0
687,1.0
688,2.0
2,1, 1,21, 0, 3,20.00,30.00,WinterDesignDay
250,-16.10188650239089
251,33258891.428815167
336,0.0
385,20.905369239500875
386,27.12793744508282
387,-18.478442144268904
388,0.0
425,0.0
450,0.0
451,0.0
452,-19.338555868379153
453,0.0
490,0.0
515,0.0
516,0.0
542,0.0
592,0.0
632,33000000.0
686,1.0
687,1.0
688,2.0
2,1, 1,21, 0, 3,30.00,40.00,WinterDesignDay
250,-16.101886502839495
251,33258891.42881195
336,0.0
385,20.905369239500875
386,27.12793744508282
387,-18.478443378618085
388,0.0
425,0.0
450,0.0
451,0.0
452,-19.33855604133609
453,0.0
490,0.0
515,0.0
516,0.0
542,0.0
592,0.0
632,33000000.0
686,1.0
687,1.0
688,2.0
2,1, 1,21, 0, 3,40.00,50.00,WinterDesignDay
250,-16.10188650328218
251,33258891.428808775
336,0.0
385,20.905369239500875
386,27.12793744508282
387,-18.47844459687962
388,0.0
425,0.0
450,0.0
451,0.0
452,-19.338556212038437
453,0.0
490,0.0
515,0.0
516,0.0
542,0.0
592,0.0
632,33000000.0
686,1.0
687,1.0
688,2.0
2,1, 1,21, 0, 3,50.00,60.00,WinterDesignDay
250,-16.101886503719033
251,33258891.42880565
336,0.0
385,20.905369239500875
386,27.12793744508282
387,-18.478445799262964
388,0.0
425,0.0
450,0.0
451,0.0
452,-19.338556380515588
453,0.0
490,0.0
515,0.0
516,0.0
542,0.0
592,0.0
632,33000000.0
686,1.0
687,1.0
688,2.0
2,1, 1,21, 0, 4, 0.00,10.00,WinterDesignDay
250,-16.101886504150126
251,33258891.428802554
336,0.0
385,20.905369239500875
386,27.12793744508282
387,-18.478446985975037
388,0.0
425,0.0
450,0.0
451,0.0
452,-19.338556546796553
453,0.0
490,0.0
515,0.0
516,0.0
542,0.0
592,0.0
632,33000000.0
686,1.0
687,1.0
688,2.0
2,1, 1,21, 0, 4,10.00,20.00,WinterDesignDay
250,-16.101886504575535
251,33258891.428799517
336,0.0
385,20.905369239500875
386,27.12793744508282
387,-18.478448157220306
388,0.0
425,0.0
450,0.0
451,0.0
452,-19.338556710909963
453,0.0
490,0.0
515,0.0
516,0.0
542,0.0
592,0.0
632,33000000.0
686,1.0
687,1.0
688,2.0
2,1, 1,21, 0, 4,20.00,30.00,WinterDesignDay
250,-16.101886504995335
251,33258891.428796504
336,0.0
385,20.905369239500875
386,27.12793744508282
387,-18.478449313200212
388,0.0
425,0.0
450,0.0
451,0.0
452,-19.338556872884073
453,0.0
490,0.0
515,0.0
516,0.0
542,0.0
592,0.0
632,33000000.0
686,1.0
687,1.0
688,2.0
2,1, 1,21, 0, 4,30.00,40.00,WinterDesignDay
250,-16.1018865054096
251,33258891.428793535
336,0.0
385,20.905369239500875
386,27.12793744508282
387,-18.478450454113666
388,0.0
425,0.0
450,0.0
451,0.0
452,-19.338557032746774
453,0.0
490,0.0
515,0.0
516,0.0
542,0.0
592,0.0
632,33000000.0
686,1.0
687,1.0
688,2.0
2,1, 1,21, 0, 4,40.00,50.00,WinterDesignDay
250,-16.101886505818406
251,33258891.42879061
336,0.0
385,20.905369239500875
386,27.12793744508282
387,-18.47845158015729
388,0.0
425,0.0
450,0.0
451,0.0
452,-19.33855719052559
453,0.0
490,0.0
515,0.0
516,0.0
542,0.0
592,0.0
632,33000000.0
686,1.0
687,1.0
688,2.0
2,1, 1,21, 0, 4,50.00,60.00,WinterDesignDay
250,-16.101886506221824
251,33258891.42878772
336,0.0
385,20.905369239500875
386,27.12793744508282
387,-18.47845269152489
388,0.0
425,0.0
450,0.0
451,0.0
452,-19.3385573462477
453,0.0
490,0.0
515,0.0
516,0.0
542,0.0
592,0.0
632,33000000.0
686,1.0
687,1.0
688,2.0
2,1, 1,21, 0, 5, 0.00,10.00,WinterDesignDay
250,-16.101886506619923
251,33258891.42878487
336,0.0
385,20.905369239500875
386,27.12793744508282
387,-18.47845378840749
388,0.0
425,0.0
450,0.0
451,0.0
452,-19.338557499939906
453,0.0
490,0.0
515,0.0
516,0.0
542,0.0
592,0.0
632,33000000.0
686,1.0
687,1.0
688,2.0
2,1, 1,21, 0, 5,10.00,20.00,WinterDesignDay
250,-16.101886507012782
251,33258891.42878206
336,0.0
385,20.905369239500875
386,27.12793744508282
387,-18.478454870993854
388,0.0
425,0.0
450,0.0
451,0.0
452,-19.338557651628673
453,0.0
490,0.0
515,0.0
516,0.0
542,0.0
592,0.0
632,33000000.0
686,1.0
687,1.0
688,2.0
2,1, 1,21, 0, 5,20.00,30.00,WinterDesignDay
250,-16.101886507400458
251,33258891.42877928
336,0.0
385,20.905369239500875
386,27.12793744508282
387,-18.478455939470233
388,0.0
425,0.0
450,0.0
451,0.0
452,-19.338557801340116
453,0.0
490,0.0
515,0.0
516,0.0
542,0.0
592,0.0
632,33000000.0
686,1.0
687,1.0
688,2.0
2,1, 1,21, 0, 5,30.00,40.00,WinterDesignDay
250,-16.101886507783036
251,33258891.42877655
336,0.0
385,20.905369239500875
386,27.12793744508282
387,-18.4784569940206
388,0.0
425,0.0
450,0.0
451,0.0
452,-19.338557949100014
453,0.0
490,0.0
515,0.0
516,0.0
542,0.0
592,0.0
632,33000000.0
686,1.0
687,1.0
688,2.0
2,1, 1,21, 0, 5,40.00,50.00,WinterDesignDay
250,-16.10188650816057
251,33258891.428773846
336,0.0
385,20.905369239500875
386,27.12793744508282
387,-18.47845803482671
388,0.0
425,0.0
450,0.0
451,0.0
452,-19.338558094933816
453,0.0
490,0.0
515,0.0
516,0.0
542,0.0
592,0.0
632,33000000.0
686,1.0
687,1.0
688,2.0
2,1, 1,21, 0, 5,50.00,60.00,WinterDesignDay
250,-16.101886508533134
251,33258891.42877118
336,0.0
385,20.905369239500875
386,27.12793744508282
387,-18.47845906206774
388,0.0
425,0.0
450,0.0
451,0.0
452,-19.33855823886663
453,0.0
490,0.0
515,0.0
516,0.0
542,0.0
592,0.0
632,33000000.0
686,1.0
687,1.0
688,2.0
2,1, 1,21, 0, 6, 0.00,10.00,WinterDesignDay
250,-16.101886508900787
251,33258891.42876855
336,0.0
385,20.905369239500875
386,27.12793744508282
387,-18.478460075920186
388,0.0
425,0.0
450,0.0
451,0.0
452,-19.338558380923228
453,0.0
490,0.0
515,0.0
516,0.0
542,0.0
592,0.0
632,33000000.0
686,1.0
687,1.0
688,2.0
2,1, 1,21, 0, 6,10.00,20.00,WinterDesignDay
250,-16.1018865092636
251,33258891.428765953
336,0.0
385,20.905369239500875
386,27.12793744508282
387,-18.47846107655849
388,0.0
425,0.0
450,0.0
451,0.0
452,-19.33855852112808
453,0.0
490,0.0
515,0.0
516,0.0
542,0.0
592,0.0
632,33000000.0
686,1.0
687,1.0
688,2.0
2,1, 1,21, 0, 6,20.00,30.00,WinterDesignDay
250,-16.10188650962164
251,33258891.428763393
336,0.0
385,20.905369239500875
386,27.12793744508282
387,-18.47846206415482
388,0.0
425,0.0
450,0.0
451,0.0
452,-19.338558659505324
453,0.0
490,0.0
515,0.0
516,0.0
542,0.0
592,0.0
632,33000000.0
686,1.0
687,1.0
688,2.0
2,1, 1,21, 0, 6,30.00,40.00,WinterDesignDay
250,-16.101886509974964
251,33258891.428760864
336,0.0
385,20.905369239500875
386,27.12793744508282
387,-18.478463038879347
388,0.0
425,0.0
450,0.0
451,0.0
452,-19.338558796078786
453,0.0
490,0.0
515,0.0
516,0.0
542,0.0
592,0.0
632,33000000.0
686,1.0
687,1.0
688,2.0
2,1, 1,21, 0, 6,40.00,50.00,WinterDesignDay
250,-16.101886510323634
251,33258891.428758368
336,0.0
385,20.905369239500875
386,27.12793744508282
387,-18.478464000899876
388,0.0
425,0.0
450,0.0
451,0.0
452,-19.33855893087198
453,0.0
490,0.0
515,0.0
516,0.0
542,0.0
592,0.0
632,33000000.0
686,1.0
687,1.0
688,2.0
2,1, 1,21, 0, 6,50.00,60.00,WinterDesignDay
250,-16.101886510667715
251,33258891.42875591
336,0.0
385,20.905369239500875
386,27.12793744508282
387,-18.478464950382154
388,0.0
425,0.0
450,0.0
451,0.0
452,-19.338559063908107
453,0.0
490,0.0
515,0.0
516,0.0
542,0.0
592,0.0
632,33000000.0
686,1.0
687,1.0
688,2.0
2,1, 1,21, 0, 7, 0.00,10.00,WinterDesignDay
250,-16.10188651100727
251,33258891.42875348
336,0.0
385,20.905369239500875
386,27.12793744508282
387,-18.478465887489378
388,0.0
425,0.0
450,0.0
451,0.0
452,-19.338559195210085
453,0.0
490,0.0
515,0.0
516,0.0
542,0.0
592,0.0
632,33000000.0
686,1.0
687,1.0
688,2.0
2,1, 1,21, 0, 7,10.00,20.00,WinterDesignDay
250,-16.101886511342354
251,33258891.42875109
336,0.0
385,20.905369239500875
386,27.12793744508282
387,-18.478466812382692
388,0.0
425,0.0
450,0.0
451,0.0
452,-19.338559324800517
453,0.0
490,0.0
515,0.0
516,0.0
542,0.0
592,0.0
632,33000000.0
686,1.0
687,1.0
688,2.0
2,1, 1,21, 0, 7,20.00,30.00,WinterDesignDay
250,-16.10188651167303
251,33258891.42874872
336,0.0
385,20.905369239500875
386,27.12793744508282
387,-18.478467725221137
388,0.0
425,0.0
450,0.0
451,0.0
452,-19.338559452701713
453,0.0
490,0.0
515,0.0
516,0.0
542,0.0
592,0.0
632,33000000.0
686,1.0
687,1.0
688,2.0
2,1, 1,21, 0, 7,30.00,40.00,WinterDesignDay
250,-16.101886511999354
251,33258891.428746387
336,0.0
385,20.905369239500875
386,27.12793744508282
387,-18.47846862616208
388,0.0
425,0.0
450,0.0
451,0.0
452,-19.33855957893569
453,0.0
490,0.0
515,0.0
516,0.0
542,0.0
592,0.0
632,33000000.0
686,1.0
687,1.0
688,2.0
2,1, 1,21, 0, 7,40.00,50.00,WinterDesignDay
250,-16.101886512321386
251,33258891.42874409
336,0.0
385,20.905369239500875
386,27.12793744508282
387,-18.478469515360718
388,0.0
425,0.0
450,0.0
451,0.0
452,-19.338559703524194
453,0.0
490,0.0
515,0.0
516,0.0
542,0.0
592,0.0
632,33000000.0
686,1.0
687,1.0
688,2.0
2,1, 1,21, 0, 7,50.00,60.00,WinterDesignDay
250,-16.10188651263918
251,33258891.428741816
336,0.0
385,20.905369239500875
386,27.12793744508282
387,-18.478470392970042
388,0.0
425,0.0
450,0.0
451,0.0
452,-19.338559826488666
453,0.0
490,0.0
515,0.0
516,0.0
542,0.0
592,0.0
632,33000000.0
686,1.0
687,1.0
688,2.0
2,1, 1,21, 0, 8, 0.00,10.00,WinterDesignDay
250,-16.10188651295279
251,33258891.428739574
336,0.0
385,20.905369239500875
386,27.12793744508282
387,-18.47847125914099
388,0.0
425,0.0
450,0.0
451,0.0
452,-19.33855994785028
453,0.0
490,0.0
515,0.0
516,0.0
542,0.0
592,0.0
632,33000000.0
686,1.0
687,1.0
688,2.0
2,1, 1,21, 0, 8,10.00,20.00,WinterDesignDay
250,-16.101886513262283
251,33258891.428737365
336,0.0
385,20.905369239500875
386,27.12793744508282
387,-18.478472114022694
388,0.0
425,0.0
450,0.0
451,0.0
452,-19.338560067629928
453,0.0
490,0.0
515,0.0
516,0.0
542,0.0
592,0.0
632,33000000.0
686,1.0
687,1.0
688,2.0
2,1, 1,21, 0, 8,20.00,30.00,WinterDesignDay
250,-16.1018865135677
251,33258891.428735178
336,0.0
385,20.905369239500875
386,27.12793744508282
387,-18.478472957761987
388,0.0
425,0.0
450,0.0
451,0.0
452,-19.338560185848237
453,0.0
490,0.0
515,0.0
516,0.0
542,0.0
592,0.0
632,33000000.0
686,1.0
687,1.0
688,2.0
2,1, 1,21, 0, 8,30.00,40.00,WinterDesignDay
250,-16.101886513869097
251,33258891.42873302
336,0.0
385,20.905369239500875
386,27.12793744508282
387,-18.47847379050433
388,0.0
425,0.0
450,0.0
451,0.0
452,-19.338560302525565
453,0.0
490,0.0
515,0.0
516,0.0
542,0.0
592,0.0
632,33000000.0
686,1.0
687,1.0
688,2.0
2,1, 1,21, 0, 8,40.00,50.00,WinterDesignDay
250,-16.101886514166537
251,33258891.428730898
336,0.0
385,20.905369239500875
386,27.12793744508282
387,-18.478474612393217
388,0.0
425,0.0
450,0.0
451,0.0
452,-19.338560417681993
453,0.0
490,0.0
515,0.0
516,0.0
542,0.0
592,0.0
632,33000000.0
686,1.0
687,1.0
688,2.0
2,1, 1,21, 0, 8,50.00,60.00,WinterDesignDay
250,-16.101886514460066
251,33258891.428728804
336,0.0
385,20.905369239500875
386,27.12793744508282
387,-18.47847542357004
388,0.0
425,0.0
450,0.0
451,0.0
452,-19.338560531337347
453,0.0
490,0.0
515,0.0
516,0.0
542,0.0
592,0.0
632,33000000.0
686,1.0
687,1.0
688,2.0
2,1, 1,21, 0, 9, 0.00,10.00,WinterDesignDay
250,-16.101886514749737
251,33258891.42872674
336,0.0
385,20.905369239500875
386,27.12793744508282
387,-18.478476224174546
388,0.0
425,0.0
450,0.0
451,0.0
452,-19.338560643511197
453,0.0
490,0.0
515,0.0
516,0.0
542,0.0
592,0.0
632,33000000.0
686,1.0
687,1.0
688,2.0
2,1, 1,21, 0, 9,10.00,20.00,WinterDesignDay
250,-16.10188651503559
251,33258891.42872469
336,0.0
385,20.905369239500875
386,27.12793744508282
387,-18.47847701434436
388,0.0
425,0.0
450,0.0
451,0.0
452,-19.33856075422286
453,0.0
490,0.0
515,0.0
516,0.0
542,0.0
592,0.0
632,33000000.0
686,1.0
687,1.0
688,2.0
2,1, 1,21, 0, 9,20.00,30.00,WinterDesignDay
250,-16.101886515317695
251,33258891.428722672
336,0.0
385,20.905369239500875
386,27.12793744508282
387,-18.478477794215383
388,0.0
425,0.0
450,0.0
451,0.0
452,-19.3385608634914
453,0.0
490,0.0
515,0.0
516,0.0
542,0.0
592,0.0
632,33000000.0
686,1.0
687,1.0
688,2.0
2,1, 1,21, 0, 9,30.00,40.00,WinterDesignDay
250,-16.101886515596085
251,33258891.428720687
336,0.0
385,20.905369239500875
386,27.12793744508282
387,-18.478478563921776
388,0.0
425,0.0
450,0.0
451,0.0
452,-19.338560971335617
453,0.0
490,0.0
515,0.0
516,0.0
542,0.0
592,0.0
632,33000000.0
686,1.0
687,1.0
688,2.0
2,1, 1,21, 0, 9,40.00,50.00,WinterDesignDay
250,-16.101886515870824
251,33258891.428718727
336,0.0
385,20.905369239500875
386,27.12793744508282
387,-18.47847932359607
388,0.0
425,0.0
450,0.0
451,0.0
452,-19.338561077774088
453,0.0
490,0.0
515,0.0
516,0.0
542,0.0
592,0.0
632,33000000.0
686,1.0
687,1.0
688,2.0
2,1, 1,21, 0, 9,50.00,60.00,WinterDesignDay
250,-16.101886516141946
251,33258891.42871679
336,0.0
385,20.905369239500875
386,27.12793744508282
387,-18.478480073369052
388,0.0
425,0.0
450,0.0
451,0.0
452,-19.338561182825135
453,0.0
490,0.0
515,0.0
516,0.0
542,0.0
592,0.0
632,33000000.0
686,1.0
687,1.0
688,2.0
2,1, 1,21, 0,10, 0.00,10.00,WinterDesignDay
250,-16.101886516409504
251,33258891.428714883
336,0.0
385,20.905369239500875
386,27.12793744508282
387,-18.478480813369806
388,0.0
425,0.0
450,0.0
451,0.0
452,-19.338561286506845
453,0.0
490,0.0
515,0.0
516,0.0
542,0.0
592,0.0
632,33000000.0
686,1.0
687,1.0
688,2.0
2,1, 1,21, 0,10,10.00,20.00,WinterDesignDay
250,-16.10188651667355
251,33258891.428712994
336,0.0
385,20.905369239500875
386,27.12793744508282
387,-18.478481543725614
388,0.0
425,0.0
450,0.0
451,0.0
452,-19.338561388837068
453,0.0
490,0.0
515,0.0
516,0.0
542,0.0
592,0.0
632,33000000.0
686,1.0
687,1.0
688,2.0
2,1, 1,21, 0,10,20.00,30.00,WinterDesignDay
250,-16.101886516934123
251,33258891.42871114
336,0.0
385,20.905369239500875
386,27.12793744508282
387,-18.47848226456218
388,0.0
425,0.0
450,0.0
451,0.0
452,-19.338561489833427
453,0.0
490,0.0
515,0.0
516,0.0
542,0.0
592,0.0
632,33000000.0
686,1.0
687,1.0
688,2.0
2,1, 1,21, 0,10,30.00,40.00,WinterDesignDay
250,-16.10188651719127
251,33258891.4287093
336,0.0
385,20.905369239500875
386,27.12793744508282
387,-18.47848297600379
388,0.0
425,0.0
450,0.0
451,0.0
452,-19.3385615895133
453,0.0
490,0.0
515,0.0
516,0.0
542,0.0
592,0.0
632,33000000.0
686,1.0
687,1.0
688,2.0
2,1, 1,21, 0,10,40.00,50.00,WinterDesignDay
250,-16.101886517445045
251,33258891.42870749
336,0.0
385,20.905369239500875
386,27.12793744508282
387,-18.478483678172804
388,0.0
425,0.0
450,0.0
451,0.0
452,-19.338561687893854
453,0.0
490,0.0
515,0.0
516,0.0
542,0.0
592,0.0
632,33000000.0
686,1.0
687,1.0
688,2.0
2,1, 1,21, 0,10,50.00,60.00,WinterDesignDay
250,-16.101886517695487
251,33258891.4287057
336,0.0
385,20.905369239500875
386,27.12793744508282
387,-18.478484371189744
388,0.0
425,0.0
450,0.0
451,0.0
452,-19.338561784992027
453,0.0
490,0.0
515,0.0
516,0.0
542,0.0
592,0.0
632,33000000.0
686,1.0
687,1.0
688,2.0
2,1, 1,21, 0,11, 0.00,10.00,WinterDesignDay
250,-16.10188651794264
251,33258891.42870394
336,0.0
385,20.905369239500875
386,27.12793744508282
387,-18.478485055174247
388,0.0
425,0.0
450,0.0
451,0.0
452,-19.338561880824535
453,0.0
490,0.0
515,0.0
516,0.0
542,0.0
592,0.0
632,33000000.0
686,1.0
687,1.0
688,2.0
2,1, 1,21, 0,11,10.00,20.00,WinterDesignDay
250,-16.10188651818654
251,33258891.428702198
336,0.0
385,20.905369239500875
386,27.12793744508282
387,-18.478485730244063
388,0.0
425,0.0
450,0.0
451,0.0
452,-19.33856197540787
453,0.0
490,0.0
515,0.0
516,0.0
542,0.0
592,0.0
632,33000000.0
686,1.0
687,1.0
688,2.0
2,1, 1,21, 0,11,20.00,30.00,WinterDesignDay
250,-16.10188651842724
251,33258891.42870048
336,0.0
385,20.905369239500875
386,27.12793744508282
387,-18.478486396515333
388,0.0
425,0.0
450,0.0
451,0.0
452,-19.33856206875832
453,0.0
490,0.0
515,0.0
516,0.0
542,0.0
592,0.0
632,33000000.0
686,1.0
687,1.0
688,2.0
2,1, 1,21, 0,11,30.00,40.00,WinterDesignDay
250,-16.101886518664777
251,33258891.428698786
336,0.0
385,20.905369239500875
386,27.12793744508282
387,-18.478487054102736
388,0.0
425,0.0
450,0.0
451,0.0
452,-19.33856216089196
453,0.0
490,0.0
515,0.0
516,0.0
542,0.0
592,0.0
632,33000000.0
686,1.0
687,1.0
688,2.0
2,1, 1,21, 0,11,40.00,50.00,WinterDesignDay
250,-16.101886518899203
251,33258891.428697113
336,0.0
385,20.905369239500875
386,27.12793744508282
387,-18.478487703119374
388,0.0
425,0.0
450,0.0
451,0.0
452,-19.338562251824655
453,0.0
490,0.0
515,0.0
516,0.0
542,0.0
592,0.0
632,33000000.0
686,1.0
687,1.0
688,2.0
2,1, 1,21, 0,11,50.00,60.00,WinterDesignDay
250,-16.10188651913054
251,33258891.428695463
336,0.0
385,20.905369239500875
386,27.12793744508282
387,-18.478488343676787
388,0.0
425,0.0
450,0.0
451,0.0
452,-19.33856234157206
453,0.0
490,0.0
515,0.0
516,0.0
542,0.0
592,0.0
632,33000000.0
686,1.0
687,1.0
688,2.0
2,1, 1,21, 0,12, 0.00,10.00,WinterDesignDay
250,-16.101886519358843
251,33258891.42869383
336,0.0
385,20.905369239500875
386,27.12793744508282
387,-18.478488975885394
388,0.0
425,0.0
450,0.0
451,0.0
452,-19.338562430149626
453,0.0
490,0.0
515,0.0
516,0.0
542,0.0
592,0.0
632,33000000.0
686,1.0
687,1.0
688,2.0
2,1, 1,21, 0,12,10.00,20.00,WinterDesignDay
250,-16.10188651958415
251,33258891.428692225
336,0.0
385,20.905369239500875
386,27.12793744508282
387,-18.478489599854047
388,0.0
425,0.0
450,0.0
451,0.0
452,-19.33856251757259
453,0.0
490,0.0
515,0.0
516,0.0
542,0.0
592,0.0
632,33000000.0
686,1.0
687,1.0
688,2.0
2,1, 1,21, 0,12,20.00,30.00,WinterDesignDay
250,-16.1018865198065
251,33258891.42869064
336,0.0
385,20.905369239500875
386,27.12793744508282
387,-18.47849021569028
388,0.0
425,0.0
450,0.0
451,0.0
452,-19.338562603856012
453,0.0
490,0.0
515,0.0
516,0.0
542,0.0
592,0.0
632,33000000.0
686,1.0
687,1.0
688,2.0
2,1, 1,21, 0,12,30.00,40.00,WinterDesignDay
250,-16.10188652002593
251,33258891.428689077
336,0.0
385,20.905369239500875
386,27.12793744508282
387,-18.478490823499964
388,0.0
425,0.0
450,0.0
451,0.0
452,-19.338562689014747
453,0.0
490,0.0
515,0.0
516,0.0
542,0.0
592,0.0
632,33000000.0
686,1.0
687,1.0
688,2.0
2,1, 1,21, 0,12,40.00,50.00,WinterDesignDay
250,-16.101886520242477
251,33258891.428687528
336,0.0
385,20.905369239500875
386,27.12793744508282
387,-18.47849142338743
388,0.0
425,0.0
450,0.0
451,0.0
452,-19.338562773063455
453,0.0
490,0.0
515,0.0
516,0.0
542,0.0
592,0.0
632,33000000.0
686,1.0
687,1.0
688,2.0
2,1, 1,21, 0,12,50.00,60.00,WinterDesignDay
250,-16.101886520456187
251,33258891.428686008
336,0.0
385,20.905369239500875
386,27.12793744508282
387,-18.478492015456197
388,0.0
425,0.0
450,0.0
451,0.0
452,-19.33856285601661
453,0.0
490,0.0
515,0.0
516,0.0
542,0.0
592,0.0
632,33000000.0
686,1.0
687,1.0
688,2.0
2,1, 1,21, 0,13, 0.00,10.00,WinterDesignDay
250,-16.101886520667087
251,33258891.428684507
336,0.0
385,20.905369239500875
386,27.12793744508282
387,-18.47849259980822
388,0.0
425,0.0
450,0.0
451,0.0
452,-19.338562937888486
453,0.0
490,0.0
515,0.0
516,0.0
542,0.0
592,0.0
632,33000000.0
686,1.0
687,1.0
688,2.0
2,1, 1,21, 0,13,10.00,20.00,WinterDesignDay
250,-16.10188652087522
251,33258891.428683016
336,0.0
385,20.905369239500875
386,27.12793744508282
387,-18.478493176543864
388,0.0
425,0.0
450,0.0
451,0.0
452,-19.338563018693186
453,0.0
490,0.0
515,0.0
516,0.0
542,0.0
592,0.0
632,33000000.0
686,1.0
687,1.0
688,2.0
2,1, 1,21, 0,13,20.00,30.00,WinterDesignDay
250,-16.101886521080623
251,33258891.428681556
336,0.0
385,20.905369239500875
386,27.12793744508282
387,-18.47849374576252
388,0.0
425,0.0
450,0.0
451,0.0
452,-19.338563098444613
453,0.0
490,0.0
515,0.0
516,0.0
542,0.0
592,0.0
632,33000000.0
686,1.0
687,1.0
688,2.0
2,1, 1,21, 0,13,30.00,40.00,WinterDesignDay
250,-16.101886521283333
251,33258891.428680114
336,0.0
385,20.905369239500875
386,27.12793744508282
387,-18.47849430756224
388,0.0
425,0.0
450,0.0
451,0.0
452,-19.3385631771565
453,0.0
490,0.0
515,0.0
516,0.0
542,0.0
592,0.0
632,33000000.0
686,1.0
687,1.0
688,2.0
2,1, 1,21, 0,13,40.00,50.00,WinterDesignDay
250,-16.101886521483383
251,33258891.428678688
336,0.0
385,20.905369239500875
386,27.12793744508282
387,-18.47849486203962
388,0.0
425,0.0
450,0.0
451,0.0
452,-19.3385632548424
453,0.0
490,0.0
515,0.0
516,0.0
542,0.0
592,0.0
632,33000000.0
686,1.0
687,1.0
688,2.0
2,1, 1,21, 0,13,50.00,60.00,WinterDesignDay
250,-16.101886521680804
251,33258891.428677276
336,0.0
385,20.905369239500875
386,27.12793744508282
387,-18.4784954092902
388,0.0
425,0.0
450,0.0
451,0.0
452,-19.33856333151568
453,0.0
490,0.0
515,0.0
516,0.0
542,0.0
592,0.0
632,33000000.0
686,1.0
687,1.0
688,2.0
2,1, 1,21, 0,14, 0.00,10.00,WinterDesignDay
250,-16.101886521875638
251,33258891.42867589
336,0.0
385,20.905369239500875
386,27.12793744508282
387,-18.478495949408305
388,0.0
425,0.0
450,0.0
451,0.0
452,-19.338563407189547
453,0.0
490,0.0
515,0.0
516,0.0
542,0.0
592,0.0
632,33000000.0
686,1.0
687,1.0
688,2.0
2,1, 1,21, 0,14,10.00,20.00,WinterDesignDay
250,-16.101886522067918
251,33258891.428674523
336,0.0
385,20.905369239500875
386,27.12793744508282
387,-18.47849648248664
388,0.0
425,0.0
450,0.0
451,0.0
452,-19.338563481877028
453,0.0
490,0.0
515,0.0
516,0.0
542,0.0
592,0.0
632,33000000.0
686,1.0
687,1.0
688,2.0
2,1, 1,21, 0,14,20.00,30.00,WinterDesignDay
250,-16.101886522257672
251,33258891.428673167
336,0.0
385,20.905369239500875
386,27.12793744508282
387,-18.478497008616795
388,0.0
425,0.0
450,0.0
451,0.0
452,-19.338563555590984
453,0.0
490,0.0
515,0.0
516,0.0
542,0.0
592,0.0
632,33000000.0
686,1.0
687,1.0
688,2.0
2,1, 1,21, 0,14,30.00,40.00,WinterDesignDay
250,-16.101886522444936
251,33258891.428671833
336,0.0
385,20.905369239500875
386,27.12793744508282
387,-18.478497527889406
388,0.0
425,0.0
450,0.0
451,0.0
452,-19.338563628344104
453,0.0
490,0.0
515,0.0
516,0.0
542,0.0
592,0.0
632,33000000.0
686,1.0
687,1.0
688,2.0
2,1, 1,21, 0,14,40.00,50.00,WinterDesignDay
250,-16.101886522629748
251,33258891.428670514
336,0.0
385,20.905369239500875
386,27.12793744508282
387,-18.478498040393912
388,0.0
425,0.0
450,0.0
451,0.0
452,-19.33856370014891
453,0.0
490,0.0
515,0.0
516,0.0
542,0.0
592,0.0
632,33000000.0
686,1.0
687,1.0
688,2.0
2,1, 1,21, 0,14,50.00,60.00,WinterDesignDay
250,-16.101886522812134
251,33258891.428669214
336,0.0
385,20.905369239500875
386,27.12793744508282
387,-18.4784985462187
388,0.0
425,0.0
450,0.0
451,0.0
452,-19.338563771017764
453,0.0
490,0.0
515,0.0
516,0.0
542,0.0
592,0.0
632,33000000.0
686,1.0
687,1.0
688,2.0
2,1, 1,21, 0,15, 0.00,10.00,WinterDesignDay
250,-16.101886522992125
251,33258891.428667933
336,0.0
385,20.905369239500875
386,27.12793744508282
387,-18.4784990454509
388,0.0
425,0.0
450,0.0
451,0.0
452,-19.338563840962866
453,0.0
490,0.0
515,0.0
516,0.0
542,0.0
592,0.0
632,33000000.0
686,1.0
687,1.0
688,2.0
2,1, 1,21, 0,15,10.00,20.00,WinterDesignDay
250,-16.101886523169764
251,33258891.428666674
336,0.0
385,20.905369239500875
386,27.12793744508282
387,-18.478499538176212
388,0.0
425,0.0
450,0.0
451,0.0
452,-19.33856390999625
453,0.0
490,0.0
515,0.0
516,0.0
542,0.0
592,0.0
632,33000000.0
686,1.0
687,1.0
688,2.0
2,1, 1,21, 0,15,20.00,30.00,WinterDesignDay
250,-16.10188652334507
251,33258891.42866542
336,0.0
385,20.905369239500875
386,27.12793744508282
387,-18.478500024479484
388,0.0
425,0.0
450,0.0
451,0.0
452,-19.33856397812981
453,0.0
490,0.0
515,0.0
516,0.0
542,0.0
592,0.0
632,33000000.0
686,1.0
687,1.0
688,2.0
2,1, 1,21, 0,15,30.00,40.00,WinterDesignDay
250,-16.101886523518072
251,33258891.428664185
336,0.0
385,20.905369239500875
386,27.12793744508282
387,-18.47850050444422
388,0.0
425,0.0
450,0.0
451,0.0
452,-19.33856404537528
453,0.0
490,0.0
515,0.0
516,0.0
542,0.0
592,0.0
632,33000000.0
686,1.0
687,1.0
688,2.0
2,1, 1,21, 0,15,40.00,50.00,WinterDesignDay
250,-16.10188652368881
251,33258891.42866297
336,0.0
385,20.905369239500875
386,27.12793744508282
387,-18.4785009781532
388,0.0
425,0.0
450,0.0
451,0.0
452,-19.338564111744226
453,0.0
490,0.0
515,0.0
516,0.0
542,0.0
592,0.0
632,33000000.0
686,1.0
687,1.0
688,2.0