Program Version,EnergyPlus, Version 24.2.0-94a887817b, YMD=2025.02.04 15:39
1,5,Environment Title[],Latitude[deg],Longitude[deg],Time Zone[],Elevation[m]
2,8,Day of Simulation[],Month[],Day of Month[],DST Indicator[1=yes 0=no],Hour[],StartMinute[],EndMinute[],DayType
3,5,Cumulative Day of Simulation[],Month[],Day of Month[],DST Indicator[1=yes 0=no],DayType  ! When Daily Meters Requested
4,2,Cumulative Days of Simulation[],Month[]  ! When Monthly Meters Requested
5,1,Cumulative Days of Simulation[] ! When Run Period Meters Requested
6,1,Calendar Year of Simulation[] ! When Annual Meters Requested
11,9,Electricity:Facility [J] !Monthly [Value,Min,Day,Hour,Minute,Max,Day,Hour,Minute]
23,9,Electricity:Building [J] !Monthly [Value,Min,Day,Hour,Minute,Max,Day,Hour,Minute]
59,9,InteriorLights:Electricity [J] !Monthly [Value,Min,Day,Hour,Minute,Max,Day,Hour,Minute]
521,9,Electricity:HVAC [J] !Monthly [Value,Min,Day,Hour,Minute,Max,Day,Hour,Minute]
637,9,NaturalGas:Facility [J] !Monthly [Value,Min,Day,Hour,Minute,Max,Day,Hour,Minute]
649,9,NaturalGas:HVAC [J] !Monthly [Value,Min,Day,Hour,Minute,Max,Day,Hour,Minute]
13,11,Electricity:Facility [J] !RunPeriod [Value,Min,Month,Day,Hour,Minute,Max,Month,Day,Hour,Minute]
25,11,Electricity:Building [J] !RunPeriod [Value,Min,Month,Day,Hour,Minute,Max,Month,Day,Hour,Minute]
61,11,InteriorLights:Electricity [J] !RunPeriod [Value,Min,Month,Day,Hour,Minute,Max,Month,Day,Hour,Minute]
523,11,Electricity:HVAC [J] !RunPeriod [Value,Min,Month,Day,Hour,Minute,Max,Month,Day,Hour,Minute]
639,11,NaturalGas:Facility [J] !RunPeriod [Value,Min,Month,Day,Hour,Minute,Max,Month,Day,Hour,Minute]
651,11,NaturalGas:HVAC [J] !RunPeriod [Value,Min,Month,Day,Hour,Minute,Max,Month,Day,Hour,Minute]
End of Data Dictionary
1,RUN PERIOD 1,  41.98, -87.92,  -6.00, 201.00
4,31, 1
11,9840985256.760416,408891.4285714286, 5, 6,50,2992469.729295488,16,13,60
23,1001935155.5294336,30000.0, 1, 1,10,622996.4895140633, 1, 9,10
59,970200000.0,30000.0, 1, 1,10,600000.0, 1, 8,10
521,8839050101.230986,378891.4285714286, 5, 6,50,2369473.239781425,16,13,60
637,179050010543.1267,28270115.006388415,21,16,10,41250000.0, 1, 1,10
649,179050010543.1267,28270115.006388415,21,16,10,41250000.0, 1, 1,10
4,59, 2
11,9372131908.480736,99999999999999.0, 5, 6,50,3033931.1695586103,22,15,30
23,875755787.4168942,99999999999999.0, 1, 1,10,-99999999999999.0, 1, 9,10
59,848160000.0,99999999999999.0, 1, 1,10,-99999999999999.0, 1, 8,10
521,8496376121.063895,99999999999999.0, 5, 6,50,2410934.680044547,22,15,30
637,158443528889.89944,26581041.363425422,23,12,10,-99999999999999.0, 1, 1,10
649,158443528889.89944,26581041.363425422,23,12,10,-99999999999999.0, 1, 1,10
4,90, 3
11,10949579959.10137,322996.4895140633,27,18,10,3120708.7331691524,27,13,20
23,926455576.787741,99999999999999.0, 1, 1,10,-99999999999999.0, 1, 9,10
59,897480000.0,99999999999999.0, 1, 1,10,-99999999999999.0, 1, 8,10
521,10023124382.313633,0.0,27,13,40,2497712.2436550893,27,13,20
637,162243195528.17816,0.0,27,13,40,-99999999999999.0, 1, 1,10
649,162243195528.17816,0.0,27,13,40,-99999999999999.0, 1, 1,10
4,120, 4
11,9277269249.27438,30000.0,11,19,10,3128012.1412469726,11,10,50
23,959875366.1585869,99999999999999.0, 1, 1,10,-99999999999999.0, 1, 9,10
59,929520000.0,99999999999999.0, 1, 1,10,-99999999999999.0, 1, 8,10
521,8317393883.1158085,99999999999999.0,27,13,40,2514357.6414893963,15, 7,20
637,117707523010.98058,99999999999999.0,27,13,40,-99999999999999.0, 1, 1,10
649,117707523010.98058,99999999999999.0,27,13,40,-99999999999999.0, 1, 1,10
4,151, 5
11,8237785577.128864,99999999999999.0,11,19,10,3137241.8790069744,20,10,20
23,1002196632.7673458,99999999999999.0, 1, 1,10,638912.4551558978,28,13,10
59,970200000.0,99999999999999.0, 1, 1,10,-99999999999999.0, 1, 8,10
521,7235588944.361409,99999999999999.0,27,13,40,2515248.02728164,26, 9,50
637,85366475054.15128,99999999999999.0,27,13,40,-99999999999999.0, 1, 1,10
649,85366475054.15128,99999999999999.0,27,13,40,-99999999999999.0, 1, 1,10
4,181, 6
11,5593346369.7988205,99999999999999.0,11,19,10,3138489.8752438733,24,10,40
23,884435026.0449492,99999999999999.0, 1, 1,10,-99999999999999.0,28,13,10
59,856800000.0,99999999999999.0, 1, 1,10,-99999999999999.0, 1, 8,10
521,4708911343.7538805,99999999999999.0,27,13,40,2522377.300519637, 4, 3,20
637,31519610902.376633,99999999999999.0,27,13,40,-99999999999999.0, 1, 1,10
649,31519610902.376633,99999999999999.0,27,13,40,-99999999999999.0, 1, 1,10
4,212, 7
11,5524295123.985468,99999999999999.0,11,19,10,3143275.592570183, 1,13,30
23,1002193318.2528939,99999999999999.0, 1, 1,10,-99999999999999.0,28,13,10
59,970200000.0,99999999999999.0, 1, 1,10,-99999999999999.0, 1, 8,10
521,4522101805.732554,99999999999999.0,27,13,40,-99999999999999.0, 4, 3,20
637,8498419505.371382,99999999999999.0,27,13,40,-99999999999999.0, 1, 1,10
649,8498419505.371382,99999999999999.0,27,13,40,-99999999999999.0, 1, 1,10
4,243, 8
11,4096825036.812011,99999999999999.0,11,19,10,-99999999999999.0, 1,13,30
23,964473644.399497,99999999999999.0, 1, 1,10,639014.1259965758,12,14,10
59,933840000.0,99999999999999.0, 1, 1,10,-99999999999999.0, 1, 8,10
521,3132351392.4126115,99999999999999.0,27,13,40,-99999999999999.0, 4, 3,20
637,15586221259.22611,99999999999999.0,27,13,40,-99999999999999.0, 1, 1,10
649,15586221259.22611,99999999999999.0,27,13,40,-99999999999999.0, 1, 1,10
4,273, 9
11,5706226388.535833,99999999999999.0,11,19,10,3149652.2223425014,25,12,50
23,922135576.7877405,99999999999999.0, 1, 1,10,-99999999999999.0,12,14,10
59,893160000.0,99999999999999.0, 1, 1,10,-99999999999999.0, 1, 8,10
521,4784090811.748128,99999999999999.0,27,13,40,2527025.3054079222,29,15,50
637,50274143394.51375,99999999999999.0,27,13,40,-99999999999999.0, 1, 1,10
649,50274143394.51375,99999999999999.0,27,13,40,-99999999999999.0, 1, 1,10
4,304,10
11,10189341156.228888,99999999999999.0,11,19,10,-99999999999999.0,25,12,50
23,1001935155.5294336,99999999999999.0, 1, 1,10,-99999999999999.0,12,14,10
59,970200000.0,99999999999999.0, 1, 1,10,-99999999999999.0, 1, 8,10
521,9187406000.69946,99999999999999.0,27,13,40,-99999999999999.0,29,15,50
637,124990254992.5556,99999999999999.0,27,13,40,-99999999999999.0, 1, 1,10
649,124990254992.5556,99999999999999.0,27,13,40,-99999999999999.0, 1, 1,10
4,334,11
11,10296952170.22534,99999999999999.0,11,19,10,-99999999999999.0,25,12,50
23,922135576.787741,99999999999999.0, 1, 1,10,-99999999999999.0,12,14,10
59,893160000.0,99999999999999.0, 1, 1,10,-99999999999999.0, 1, 8,10
521,9374816593.437609,99999999999999.0,27,13,40,-99999999999999.0,29,15,50
637,146059376445.91568,99999999999999.0,27,13,40,-99999999999999.0, 1, 1,10
649,146059376445.91568,99999999999999.0,27,13,40,-99999999999999.0, 1, 1,10
4,365,12
11,10453145986.542374,99999999999999.0,11,19,10,-99999999999999.0,25,12,50
23,964195366.1585872,99999999999999.0, 1, 1,10,-99999999999999.0,12,14,10
59,933840000.0,99999999999999.0, 1, 1,10,-99999999999999.0, 1, 8,10
521,9488950620.383821,99999999999999.0,27,13,40,-99999999999999.0,29,15,50
637,179890662679.05725,99999999999999.0,27,13,40,-99999999999999.0, 1, 1,10
649,179890662679.05725,99999999999999.0,27,13,40,-99999999999999.0, 1, 1,10
5,365
13,99537884182.88934,30000.0, 4,11,19,10,3149652.2223425014, 9,25,12,50
25,11427722182.619204,30000.0, 1, 1, 1,10,639014.1259965758, 8,12,14,10
61,11066760000.0,30000.0, 1, 1, 1,10,600000.0, 1, 1, 8,10
523,88110162000.25844,0.0, 3,27,13,40,2527025.3054079222, 9,29,15,50
639,1259629422205.3457,0.0, 3,27,13,40,41250000.0, 1, 1, 1,10
651,1259629422205.3457,0.0, 3,27,13,40,41250000.0, 1, 1, 1,10
1,RUN PERIOD 2,  41.98, -87.92,  -6.00, 201.00
4,1, 7
11,112832955.92294386,99999999999999.0,11,19,10,-99999999999999.0,25,12,50
23,42059789.37084378,99999999999999.0, 1, 1,10,-99999999999999.0,12,14,10
59,40680000.0,99999999999999.0, 1, 1,10,-99999999999999.0, 1, 8,10
521,70773166.55210002,99999999999999.0,27,13,40,-99999999999999.0,29,15,50
637,0.0,99999999999999.0,27,13,40,-99999999999999.0, 1, 1,10
649,0.0,99999999999999.0,27,13,40,-99999999999999.0, 1, 1,10
5,1
13,112832955.92294386,99999999999999.0, 4,11,19,10,-99999999999999.0, 9,25,12,50
25,42059789.37084378,99999999999999.0, 1, 1, 1,10,-99999999999999.0, 8,12,14,10
61,40680000.0,99999999999999.0, 1, 1, 1,10,-99999999999999.0, 1, 1, 8,10
523,70773166.55210002,99999999999999.0, 3,27,13,40,-99999999999999.0, 9,29,15,50
639,0.0,99999999999999.0, 3,27,13,40,-99999999999999.0, 1, 1, 1,10
651,0.0,99999999999999.0, 3,27,13,40,-99999999999999.0, 1, 1, 1,10
End of Data
 Number of Records Written=          90
