Program Version,EnergyPlus, Version 24.2.0-94a887817b, YMD=2025.02.04 15:39
1,5,Environment Title[],Latitude[deg],Longitude[deg],Time Zone[],Elevation[m]
2,8,Day of Simulation[],Month[],Day of Month[],DST Indicator[1=yes 0=no],Hour[],StartMinute[],EndMinute[],DayType
3,5,Cumulative Day of Simulation[],Month[],Day of Month[],DST Indicator[1=yes 0=no],DayType  ! When Daily Report Variables Requested
4,2,Cumulative Days of Simulation[],Month[]  ! When Monthly Report Variables Requested
5,1,Cumulative Days of Simulation[] ! When Run Period Report Variables Requested
6,1,Calendar Year of Simulation[] ! When Annual Report Variables Requested
250,1,LIVING ZONE,Zone Air Temperature [C] !TimeStep,REPORTSCH
251,1,LIVING ZONE,Zone Air System Sensible Heating Energy [J] !TimeStep,REPORTSCH
336,1,LIVING ZONE,Zone Air System Sensible Cooling Energy [J] !TimeStep,REPORTSCH
385,1,LIVING ZONE,Zone Thermostat Heating Setpoint Temperature [C] !TimeStep,REPORTSCH
386,1,LIVING ZONE,Zone Thermostat Cooling Setpoint Temperature [C] !TimeStep,REPORTSCH
387,1,GARAGE ZONE,Zone Air Temperature [C] !TimeStep,REPORTSCH
388,1,GARAGE ZONE,Zone Air System Sensible Heating Energy [J] !TimeStep,REPORTSCH
425,1,GARAGE ZONE,Zone Air System Sensible Cooling Energy [J] !TimeStep,REPORTSCH
450,1,GARAGE ZONE,Zone Thermostat Heating Setpoint Temperature [C] !TimeStep,REPORTSCH
451,1,GARAGE ZONE,Zone Thermostat Cooling Setpoint Temperature [C] !TimeStep,REPORTSCH
452,1,ATTIC ZONE,Zone Air Temperature [C] !TimeStep,REPORTSCH
453,1,ATTIC ZONE,Zone Air System Sensible Heating Energy [J] !TimeStep,REPORTSCH
490,1,ATTIC ZONE,Zone Air System Sensible Cooling Energy [J] !TimeStep,REPORTSCH
515,1,ATTIC ZONE,Zone Thermostat Heating Setpoint Temperature [C] !TimeStep,REPORTSCH
516,1,ATTIC ZONE,Zone Thermostat Cooling Setpoint Temperature [C] !TimeStep,REPORTSCH
542,1,ACDXCOIL 1,Cooling Coil Total Cooling Energy [J] !TimeStep,REPORTSCH
592,1,HEAT PUMP DX HEATING COIL 1,Heating Coil Heating Energy [J] !TimeStep,REPORTSCH
632,1,SUPP HEATING COIL 1,Heating Coil Heating Energy [J] !TimeStep,REPORTSCH
686,1,TWOSPEED HEAT PUMP 1,Unitary System DX Coil Cycling Ratio [] !TimeStep,REPORTSCH
687,1,TWOSPEED HEAT PUMP 1,Unitary System DX Coil Speed Ratio [] !TimeStep,REPORTSCH
688,1,TWOSPEED HEAT PUMP 1,Unitary System DX Coil Speed Level [] !TimeStep,REPORTSCH
End of Data Dictionary
1,RUN PERIOD 1,  41.98, -87.92,  -6.00, 201.00
2,21, 1,21, 0, 1, 0.00,10.00,Monday
250,-0.7395633276590022
251,38078414.718306206
336,0.0
385,18.857474566939782
386,26.713621874928787
387,-0.9456263204674553
388,0.0
425,0.0
450,0.0
451,0.0
452,-1.9728374838878682
453,0.0
490,0.0
515,0.0
516,0.0
542,0.0
592,4839743.985079642
632,32980562.80382149
686,1.0
687,1.0
688,2.0
2,21, 1,21, 0, 1,10.00,20.00,Monday
250,-0.7396067948727939
251,38080067.31539796
336,0.0
385,18.857474566939782
386,26.713621874928787
387,-0.953991916607934
388,0.0
425,0.0
450,0.0
451,0.0
452,-1.9547010924313923
453,0.0
490,0.0
515,0.0
516,0.0
542,0.0
592,4823801.676011793
632,32997350.811837815
686,1.0
687,1.0
688,2.0
2,21, 1,21, 0, 1,20.00,30.00,Monday
250,-0.7398441615534636
251,38066877.37468519
336,0.0
385,18.857474566939782
386,26.713621874928787
387,-0.9635913265778315
388,0.0
425,0.0
450,0.0
451,0.0
452,-1.951620440805512
453,0.0
490,0.0
515,0.0
516,0.0
542,0.0
592,4807858.16290522
632,33000000.0
686,1.0
687,1.0
688,2.0
2,21, 1,21, 0, 1,30.00,40.00,Monday
250,-0.7400986855156391
251,38050941.89973906
336,0.0
385,18.857474566939782
386,26.713621874928787
387,-0.9746292754994067
388,0.0
425,0.0
450,0.0
451,0.0
452,-1.9644893911170207
453,0.0
490,0.0
515,0.0
516,0.0
542,0.0
592,4791913.445623511
632,33000000.0
686,1.0
687,1.0
688,2.0
2,21, 1,21, 0, 1,40.00,50.00,Monday
250,-0.7403549735614181
251,38034996.93384844
336,0.0
385,18.857474566939782
386,26.713621874928787
387,-0.9872631092397454
388,0.0
425,0.0
450,0.0
451,0.0
452,-1.9916879266903689
453,0.0
490,0.0
515,0.0
516,0.0
542,0.0
592,4775967.524030239
632,33000000.0
686,1.0
687,1.0
688,2.0
2,21, 1,21, 0, 1,50.00,60.00,Monday
250,-0.7406121117675812
251,38019050.27153095
336,0.0
385,18.857474566939782
386,26.713621874928787
387,-1.0016816649700357
388,0.0
425,0.0
450,0.0
451,0.0
452,-2.0316860952440985
453,0.0
490,0.0
515,0.0
516,0.0
542,0.0
592,4760020.397988958
632,33000000.0
686,1.0
687,1.0
688,2.0
2,21, 1,21, 0, 2, 0.00,10.00,Monday
250,-0.7407185844213943
251,38018969.15465542
336,0.0
385,18.857474566939782
386,26.713621874928787
387,-1.0172033529842925
388,0.0
425,0.0
450,0.0
451,0.0
452,-2.0784400861810366
453,0.0
490,0.0
515,0.0
516,0.0
542,0.0
592,4760020.397988958
632,33000000.0
686,1.0
687,1.0
688,2.0
2,21, 1,21, 0, 2,10.00,20.00,Monday
250,-0.7408207348907982
251,38018966.827495486
336,0.0
385,18.857474566939782
386,26.713621874928787
387,-1.0328862194045707
388,0.0
425,0.0
450,0.0
451,0.0
452,-2.121163276687115
453,0.0
490,0.0
515,0.0
516,0.0
542,0.0
592,4760020.397988956
632,33000000.0
686,1.0
687,1.0
688,2.0
2,21, 1,21, 0, 2,20.00,30.00,Monday
250,-0.7409228860847681
251,38018966.82787165
336,0.0
385,18.857474566939782
386,26.713621874928787
387,-1.048177071270342
388,0.0
425,0.0
450,0.0
451,0.0
452,-2.152626646340435
453,0.0
490,0.0
515,0.0
516,0.0
542,0.0
592,4760020.397988956
632,33000000.0
686,1.0
687,1.0
688,2.0
2,21, 1,21, 0, 2,30.00,40.00,Monday
250,-0.741023016729402
251,38018965.739949964
336,0.0
385,18.857474566939782
386,26.713621874928787
387,-1.0627546305606275
388,0.0
425,0.0
450,0.0
451,0.0
452,-2.1720080409581466
453,0.0
490,0.0
515,0.0
516,0.0
542,0.0
592,4760020.397988956
632,33000000.0
686,1.0
687,1.0
688,2.0
2,21, 1,21, 0, 2,40.00,50.00,Monday
250,-0.7411216349242469
251,38018964.92560116
336,0.0
385,18.857474566939782
386,26.713621874928787
387,-1.0764783685663812
388,0.0
425,0.0
450,0.0
451,0.0
452,-2.1821489892895127
453,0.0
490,0.0
515,0.0
516,0.0
542,0.0
592,4760020.397988958
632,33000000.0
686,1.0
687,1.0
688,2.0
2,21, 1,21, 0, 2,50.00,60.00,Monday
250,-0.7412185011856598
251,38018963.98230678
336,0.0
385,18.857474566939782
386,26.713621874928787
387,-1.0893107799241535
388,0.0
425,0.0
450,0.0
451,0.0
452,-2.186197849273776
453,0.0
490,0.0
515,0.0
516,0.0
542,0.0
592,4760020.397988958
632,33000000.0
686,1.0
687,1.0
688,2.0
2,21, 1,21, 0, 3, 0.00,10.00,Monday
250,-0.6592558189786523
251,37977319.1174073
336,0.0
385,18.857474566939782
386,26.713621874928787
387,-1.0908645146584355
388,0.0
425,0.0
450,0.0
451,0.0
452,-2.178724626814118
453,0.0
490,0.0
515,0.0
516,0.0
542,0.0
592,4762558.894114006
632,33000000.0
686,1.0
687,1.0
688,2.0
2,21, 1,21, 0, 3,10.00,20.00,Monday
250,-0.5756210428545216
251,37978846.523686744
336,0.0
385,18.857474566939782
386,26.713621874928787
387,-1.0798304092570479
388,0.0
425,0.0
450,0.0
451,0.0
452,-2.1537529921754595
453,0.0
490,0.0
515,0.0
516,0.0
542,0.0
592,4764988.4357309695
632,33000000.0
686,1.0
687,1.0
688,2.0
2,21, 1,21, 0, 3,20.00,30.00,Monday
250,-0.49277314105674297
251,37958582.095209554
336,0.0
385,18.857474566939782
386,26.713621874928787
387,-1.0606193671105917
388,0.0
425,0.0
450,0.0
451,0.0
452,-2.1098331304046236
453,0.0
490,0.0
515,0.0
516,0.0
542,0.0
592,4767308.250738333
632,32976993.923458364
686,1.0
687,1.0
688,2.0
2,21, 1,21, 0, 3,30.00,40.00,Monday
250,-0.40999074179380085
251,37915586.585271575
336,0.0
385,18.857474566939782
386,26.713621874928787
387,-1.0370283656352657
388,0.0
425,0.0
450,0.0
451,0.0
452,-2.050096015733743
453,0.0
490,0.0
515,0.0
516,0.0
542,0.0
592,4769517.689516205
632,32931755.56176857
686,1.0
687,1.0
688,2.0
2,21, 1,21, 0, 3,40.00,50.00,Monday
250,-0.32717886520364864
251,37872584.0674249
336,0.0
385,18.857474566939782
386,26.713621874928787
387,-1.0103669264282986
388,0.0
425,0.0
450,0.0
451,0.0
452,-1.9790256469506617
453,0.0
490,0.0
515,0.0
516,0.0
542,0.0
592,4771616.115684973
632,32886672.365182206
686,1.0
687,1.0
688,2.0
2,21, 1,21, 0, 3,50.00,60.00,Monday
250,-0.24434654541040543
251,37829577.42146659
336,0.0
385,18.857474566939782
386,26.713621874928787
387,-0.9804171188048723
388,0.0
425,0.0
450,0.0
451,0.0
452,-1.9002408108029047
453,0.0
490,0.0
515,0.0
516,0.0
542,0.0
592,4773602.736238396
632,32841691.994707912
686,1.0
687,1.0
688,2.0
2,21, 1,21, 0, 4, 0.00,10.00,Monday
250,-0.24352729692355674
251,37830746.8745115
336,0.0
385,18.857474566939782
386,26.713621874928787
387,-0.9576956378265965
388,0.0
425,0.0
450,0.0
451,0.0
452,-1.824029437932912
453,0.0
490,0.0
515,0.0
516,0.0
542,0.0
592,4773428.982371631
632,32798867.68261489
686,1.0
687,1.0
688,2.0
2,21, 1,21, 0, 4,10.00,20.00,Monday
250,-0.24397631062169473
251,37831050.247061335
336,0.0
385,18.857474566939782
386,26.713621874928787
387,-0.9450627867517226
388,0.0
425,0.0
450,0.0
451,0.0
452,-1.7594303093071126
453,0.0
490,0.0
515,0.0
516,0.0
542,0.0
592,4773255.169447958
632,32798661.825320285
686,1.0
687,1.0
688,2.0
2,21, 1,21, 0, 4,20.00,30.00,Monday
250,-0.24380936159792935
251,37830989.72001817
336,0.0
385,18.857474566939782
386,26.713621874928787
387,-0.9390546759039449
388,0.0
425,0.0
450,0.0
451,0.0
452,-1.710048687717093
453,0.0
490,0.0
515,0.0
516,0.0
542,0.0
592,4773081.29743726
632,32799106.90722545
686,1.0
687,1.0
688,2.0
2,21, 1,21, 0, 4,30.00,40.00,Monday
250,-0.2437688536242806
251,37831008.89124452
336,0.0
385,18.857474566939782
386,26.713621874928787
387,-0.9358113340972452
388,0.0
425,0.0
450,0.0
451,0.0
452,-1.6742270573289828
453,0.0
490,0.0
515,0.0
516,0.0
542,0.0
592,4772907.3663094025
632,32799231.912640583
686,1.0
687,1.0
688,2.0
2,21, 1,21, 0, 4,40.00,50.00,Monday
250,-0.24373855790899784
251,37831031.35058702
336,0.0
385,18.857474566939782
386,26.713621874928787
387,-0.933536538826389
388,0.0
425,0.0
450,0.0
451,0.0
452,-1.648295654351674
453,0.0
490,0.0
515,0.0
516,0.0
542,0.0
592,4772733.376034234
632,32799422.86228482
686,1.0
687,1.0
688,2.0
2,21, 1,21, 0, 4,50.00,60.00,Monday
250,-0.2437070955842112
251,37831053.00054335
336,0.0
385,18.857474566939782
386,26.713621874928787
387,-0.9320407209466883
388,0.0
425,0.0
450,0.0
451,0.0
452,-1.6291956591036914
453,0.0
490,0.0
515,0.0
516,0.0
542,0.0
592,4772559.326581575
632,32799619.190009665
686,1.0
687,1.0
688,2.0
2,21, 1,21, 0, 5, 0.00,10.00,Monday
250,-0.2436774850691046
251,37831075.69478505
336,0.0
385,18.857474566939782
386,26.713621874928787
387,-0.931375274537348
388,0.0
425,0.0
450,0.0
451,0.0
452,-1.6143112433644786
453,0.0
490,0.0
515,0.0
516,0.0
542,0.0
592,4759720.858689581
632,32812479.354833156
686,1.0
687,1.0
688,2.0
2,21, 1,21, 0, 5,10.00,20.00,Monday
250,-0.2436365683295782
251,37832360.828358635
336,0.0
385,18.857474566939782
386,26.713621874928787
387,-0.931404670856406
388,0.0
425,0.0
450,0.0
451,0.0
452,-1.601331685650862
453,0.0
490,0.0
515,0.0
516,0.0
542,0.0
592,4746877.262331866
632,32826614.17470924
686,1.0
687,1.0
688,2.0
2,21, 1,21, 0, 5,20.00,30.00,Monday
250,-0.24359535828373788
251,37833672.62281408
336,0.0
385,18.857474566939782
386,26.713621874928787
387,-0.9319004553131133
388,0.0
425,0.0
450,0.0
451,0.0
452,-1.588855339327407
453,0.0
490,0.0
515,0.0
516,0.0
542,0.0
592,4734028.534436011
632,32840774.855814334
686,1.0
687,1.0
688,2.0
2,21, 1,21, 0, 5,30.00,40.00,Monday
250,-0.24355424159276787
251,37834975.522463724
336,0.0
385,18.857474566939782
386,26.713621874928787
387,-0.932659287907452
388,0.0
425,0.0
450,0.0
451,0.0
452,-1.5764487427170204
453,0.0
490,0.0
515,0.0
516,0.0
542,0.0
592,4721174.671927155
632,32854931.568466883
686,1.0
687,1.0
688,2.0
2,21, 1,21, 0, 5,40.00,50.00,Monday
250,-0.24351301116617974
251,37836280.71010329
336,0.0
385,18.857474566939782
386,26.713621874928787
387,-0.9335449760135083
388,0.0
425,0.0
450,0.0
451,0.0
452,-1.5641806500084596
453,0.0
490,0.0
515,0.0
516,0.0
542,0.0
592,4708315.671727969
632,32869095.81834568
686,1.0
687,1.0
688,2.0
2,21, 1,21, 0, 5,50.00,60.00,Monday
250,-0.2434718286582869
251,37837586.610082224
336,0.0
385,18.857474566939782
386,26.713621874928787
387,-0.9344781561753024
388,0.0
425,0.0
450,0.0
451,0.0
452,-1.5522020589444032
453,0.0
490,0.0
515,0.0
516,0.0
542,0.0
592,4695451.530758675
632,32883265.834261402
686,1.0
687,1.0
688,2.0
2,21, 1,21, 0, 6, 0.00,10.00,Monday
250,-0.24342903061152005
251,37838892.14016107
336,0.0
385,18.857474566939782
386,26.713621874928787
387,-0.9355454210043826
388,0.0
425,0.0
450,0.0
451,0.0
452,-1.5412092177154644
453,0.0
490,0.0
515,0.0
516,0.0
542,0.0
592,4695264.082255858
632,32884759.683884185
686,1.0
687,1.0
688,2.0
2,21, 1,21, 0, 6,10.00,20.00,Monday
250,-0.24339791468587607
251,37838934.23708037
336,0.0
385,18.857474566939782
386,26.713621874928787
387,-0.9368302604508981
388,0.0
425,0.0
450,0.0
451,0.0
452,-1.5320155731690717
453,0.0
490,0.0
515,0.0
516,0.0
542,0.0
592,4695076.569900009
632,32884983.0002335
686,1.0
687,1.0
688,2.0
2,21, 1,21, 0, 6,20.00,30.00,Monday
250,-0.24336712058504972
251,37838950.185808346
336,0.0
385,18.857474566939782
386,26.713621874928787
387,-0.9383270643345384
388,0.0
425,0.0
450,0.0
451,0.0
452,-1.5249471448223817
453,0.0
490,0.0
515,0.0
516,0.0
542,0.0
592,4694888.993658494
632,32885186.35185565
686,1.0
687,1.0
688,2.0
2,21, 1,21, 0, 6,30.00,40.00,Monday
250,-0.24333587264307335
251,37838975.38822394
336,0.0
385,18.857474566939782
386,26.713621874928787
387,-0.9399938145053972
388,0.0
425,0.0
450,0.0
451,0.0
452,-1.5197972927789034
453,0.0
490,0.0
515,0.0
516,0.0
542,0.0
592,4694701.35349866
632,32885399.438926563
686,1.0
687,1.0
688,2.0
2,21, 1,21, 0, 6,40.00,50.00,Monday
250,-0.24330432145442638
251,37838998.6167399
336,0.0
385,18.857474566939782
386,26.713621874928787
387,-0.9417985639460625
388,0.0
425,0.0
450,0.0
451,0.0
452,-1.5161164349928946
453,0.0
490,0.0
515,0.0
516,0.0
542,0.0
592,4694513.649387832
632,32885610.534925614
686,1.0
687,1.0
688,2.0
2,21, 1,21, 0, 6,50.00,60.00,Monday
250,-0.2432724063519499
251,37839021.503828004
336,0.0
385,18.857474566939782
386,26.713621874928787
387,-0.9437241481385866
388,0.0
425,0.0
450,0.0
451,0.0
452,-1.5134843767176969
453,0.0
490,0.0
515,0.0
516,0.0
542,0.0
592,4694325.88129331
632,32885821.386161283
686,1.0
687,1.0
688,2.0
2,21, 1,21, 0, 7, 0.00,10.00,Monday
250,-0.24408905547509574
251,37839501.541870475
336,0.0
385,18.857474566939782
386,26.713621874928787
387,-0.9481932811558328
388,0.0
425,0.0
450,0.0
451,0.0
452,-1.5167684372931056
453,0.0
490,0.0
515,0.0
516,0.0
542,0.0
592,4723573.583255435
632,32856596.61266166
686,1.0
687,1.0
688,2.0
2,21, 1,21, 0, 7,10.00,20.00,Monday
250,-0.24406327649913453
251,37836600.12012381
336,0.0
385,18.857474566939782
386,26.713621874928787
387,-0.9573797067813558
388,0.0
425,0.0
450,0.0
451,0.0
452,-1.53544144002415
453,0.0
490,0.0
515,0.0
516,0.0
542,0.0
592,4752837.186047653
632,32824885.391216345
686,1.0
687,1.0
688,2.0
2,21, 1,21, 0, 7,20.00,30.00,Monday
250,-0.24401207295750016
251,37833622.74604646
336,0.0
385,18.857474566939782
386,26.713621874928787
387,-0.9715239462767029
388,0.0
425,0.0
450,0.0
451,0.0
452,-1.574874148315387
453,0.0
490,0.0
515,0.0
516,0.0
542,0.0
592,4782116.702651945
632,32792642.193194833
686,1.0
687,1.0
688,2.0
2,21, 1,21, 0, 7,30.00,40.00,Monday
250,-0.24396695456001652
251,37830668.9206699
336,0.0
385,18.857474566939782
386,26.713621874928787
387,-0.989670655004726
388,0.0
425,0.0
450,0.0
451,0.0
452,-1.6326849472436473
453,0.0
490,0.0
515,0.0
516,0.0
542,0.0
592,4811412.146064443
632,32760389.64504832
686,1.0
687,1.0
688,2.0
2,21, 1,21, 0, 7,40.00,50.00,Monday
250,-0.2439197991373532
251,37827708.20845844
336,0.0
385,18.857474566939782
386,26.713621874928787
387,-1.0107408249390826
388,0.0
425,0.0
450,0.0
451,0.0
452,-1.7026190921328133
453,0.0
490,0.0
515,0.0
516,0.0
542,0.0
592,4840723.5292954575
632,32728118.644697886
686,1.0
687,1.0
688,2.0
2,21, 1,21, 0, 7,50.00,60.00,Monday
250,-0.24387186987929824
251,37824745.125584364
336,0.0
385,18.857474566939782
386,26.713621874928787
387,-1.0339873125980334
388,0.0
425,0.0
450,0.0
451,0.0
452,-1.7789827222997951
453,0.0
490,0.0
515,0.0
516,0.0
542,0.0
592,4870050.865369484
632,32695828.640470922
686,1.0
687,1.0
688,2.0
2,21, 1,21, 0, 8, 0.00,10.00,Monday
250,-0.043522187620892265
251,37713930.908911474
336,0.0
385,18.857474566939782
386,26.713621874928787
387,-1.0300965648450606
388,0.0
425,0.0
450,0.0
451,0.0
452,-1.837936344575195
453,0.0
490,0.0
515,0.0
516,0.0
542,0.0
592,4889730.300311493
632,32673184.595746174
686,1.0
687,1.0
688,2.0
2,21, 1,21, 0, 8,10.00,20.00,Monday
250,0.15695652288857237
251,37608279.684702
336,0.0
385,18.857474566939782
386,26.713621874928787
387,-0.9885440631052125
388,0.0
425,0.0
450,0.0
451,0.0
452,-1.8291069759634724
453,0.0
490,0.0
515,0.0
516,0.0
542,0.0
592,4909380.719869504
632,32547959.009168167
686,1.0
687,1.0
688,2.0
2,21, 1,21, 0, 8,20.00,30.00,Monday
250,0.35567461617766777
251,37503683.83469987
336,0.0
385,18.857474566939782
386,26.713621874928787
387,-0.9175300359647638
388,0.0
425,0.0
450,0.0
451,0.0
452,-1.7217148217971596
453,0.0
490,0.0
515,0.0
516,0.0
542,0.0
592,4929009.6156952735
632,32422793.09603776
686,1.0
687,1.0
688,2.0
2,21, 1,21, 0, 8,30.00,40.00,Monday
250,0.5548971871069209
251,37398776.35417701
336,0.0
385,18.857474566939782
386,26.713621874928787
387,-0.8272217844908978
388,0.0
425,0.0
450,0.0
451,0.0
452,-1.5261594978958466
453,0.0
490,0.0
515,0.0
516,0.0
542,0.0
592,4952863.6467726575
632,32294310.05907942
686,1.0
687,1.0
688,2.0
2,21, 1,21, 0, 8,40.00,50.00,Monday
250,0.7541990480116494
251,37293421.997096494
336,0.0
385,18.857474566939782
386,26.713621874928787
387,-0.7255942954406538
388,0.0
425,0.0
450,0.0
451,0.0
452,-1.2505767562402954
453,0.0
490,0.0
515,0.0
516,0.0
542,0.0
592,4977062.298687914
632,32164805.441208456
686,1.0
687,1.0
688,2.0
2,21, 1,21, 0, 8,50.00,60.00,Monday
250,0.9541361696175485
251,37188654.983313784
336,0.0
385,18.857474566939782
386,26.713621874928787
387,-0.629699621112132
388,0.0
425,0.0
450,0.0
451,0.0
452,-0.9375736884544319
453,0.0
490,0.0
515,0.0
516,0.0
542,0.0
592,5001395.306277512
632,31982880.859138094
686,1.0
687,1.0
688,2.0
2,21, 1,21, 0, 9, 0.00,10.00,Monday
250,1.2198476650071188
251,37049501.6911882
336,0.0
385,18.857474566939782
386,26.713621874928787
387,-0.49130088528215665
388,0.0
425,0.0
450,0.0
451,0.0
452,-0.45813077702760363
453,0.0
490,0.0
515,0.0
516,0.0
542,0.0
592,5029363.153609448
632,31832481.60529308
686,1.0
687,1.0
688,2.0
2,21, 1,21, 0, 9,10.00,20.00,Monday
250,1.4853633345271664
251,36909505.238964826
336,0.0
385,18.857474566939782
386,26.713621874928787
387,-0.3405033307183585
388,0.0
425,0.0
450,0.0
451,0.0
452,0.06609599039232318
453,0.0
490,0.0
515,0.0
516,0.0
542,0.0
592,5057356.862312016
632,31664442.240223512
686,1.0
687,1.0
688,2.0
2,21, 1,21, 0, 9,20.00,30.00,Monday
250,1.7510003667415535
251,36769438.47722882
336,0.0
385,18.857474566939782
386,26.713621874928787
387,-0.1805979041369959
388,0.0
425,0.0
450,0.0
451,0.0
452,0.6307911014006611
453,0.0
490,0.0
515,0.0
516,0.0
542,0.0
592,5085392.284952975
632,31496373.209278397
686,1.0
687,1.0
688,2.0
2,21, 1,21, 0, 9,30.00,40.00,Monday
250,2.0165846467882518
251,36629398.209754094
336,0.0
385,18.857474566939782
386,26.713621874928787
387,-0.01085074617520168
388,0.0
425,0.0
450,0.0
451,0.0
452,1.2254259251811022
453,0.0
490,0.0
515,0.0
516,0.0
542,0.0
592,5113485.892141593
632,31328226.45549802
686,1.0
687,1.0
688,2.0
2,21, 1,21, 0, 9,40.00,50.00,Monday
250,2.2824141064045196
251,36488238.72082884
336,0.0
385,18.857474566939796
386,26.713621874928805
387,0.13431916813324532
388,0.0
425,0.0
450,0.0
451,0.0
452,1.7271680848072042
453,0.0
490,0.0
515,0.0
516,0.0
542,0.0
592,5141654.529350725
632,31135455.37517575
686,1.0000000000000009
687,1.0000000000000009
688,2.0000000000000018
2,21, 1,21, 0, 9,50.00,60.00,Monday
250,2.548375314115132
251,36347458.329343244
336,0.0
385,18.857474566939782
386,26.713621874928787
387,0.28647677836062957
388,0.0
425,0.0
450,0.0
451,0.0
452,2.267708451246264
453,0.0
490,0.0
515,0.0
516,0.0
542,0.0
592,5169915.672059795
632,30991198.92067965
686,1.0
687,1.0
688,2.0
2,21, 1,21, 0,10, 0.00,10.00,Monday
250,3.011199209957531
251,36101891.28951618
336,0.0
385,18.857474566939782
386,26.713621874928787
387,0.47695518650831426
388,0.0
425,0.0
450,0.0
451,0.0
452,2.8270576421660474
453,0.0
490,0.0
515,0.0
516,0.0
542,0.0
592,5241404.10703412
632,30684803.214343533
686,1.0
687,1.0
688,2.0
2,21, 1,21, 0,10,10.00,20.00,Monday
250,3.4750100726239816
251,35856410.06761939
336,0.0
385,18.85747456693978
386,26.713621874928783
387,0.7680079408391391
388,0.0
425,0.0
450,0.0
451,0.0
452,3.5819689742321894
453,0.0
490,0.0
515,0.0
516,0.0
542,0.0
592,5315291.857316207
632,30364569.210171416
686,1.0
687,1.0
688,2.0
2,21, 1,21, 0,10,20.00,30.00,Monday
250,3.9391120806462423
251,35609506.021350905
336,0.0
385,18.857474566939775
386,26.713621874928776
387,1.0483975153710534
388,0.0
425,0.0
450,0.0
451,0.0
452,4.270952257758618
453,0.0
490,0.0
515,0.0
516,0.0
542,0.0
592,5391793.298050373
632,30041258.466887806
686,0.9999999999999996
687,0.9999999999999996
688,1.9999999999999991
2,21, 1,21, 0,10,30.00,40.00,Monday
250,4.403385527232491
251,35362376.00560914
336,0.0
385,18.85747456693979
386,26.713621874928798
387,1.33016472835878
388,0.0
425,0.0
450,0.0
451,0.0
452,4.972797494775718
453,0.0
490,0.0
515,0.0
516,0.0
542,0.0
592,5471132.199313744
632,29714864.83905817
686,1.0000000000000004
687,1.0000000000000004
688,2.000000000000001
2,21, 1,21, 0,10,40.00,50.00,Monday
250,4.8678967339503725
251,35114977.249569915
336,0.0
385,18.857474566939796
386,26.713621874928805
387,1.620303205796012
388,0.0
425,0.0
450,0.0
451,0.0
452,5.736886428303419
453,0.0
490,0.0
515,0.0
516,0.0
542,0.0
592,5553542.3757593315
632,29385145.39219765
686,1.0000000000000009
687,1.0000000000000009
688,2.0000000000000018
2,21, 1,21, 0,10,50.00,60.00,Monday
250,5.332421367205649
251,34867423.91089828
336,0.0
385,18.857474566939796
386,26.713621874928805
387,1.9205271319557609
388,0.0
425,0.0
450,0.0
451,0.0
452,6.5659600476808455
453,0.0
490,0.0
515,0.0
516,0.0
542,0.0
592,5639267.778995938
632,29051918.038172416
686,1.0000000000000009
687,1.0000000000000009
688,2.0000000000000018
2,21, 1,21, 0,11, 0.00,10.00,Monday
250,5.615926590086964
251,34716562.06038539
336,0.0
385,18.857474566939782
386,26.713621874928787
387,2.2070359546409195
388,0.0
425,0.0
450,0.0
451,0.0
452,7.421189905249308
453,0.0
490,0.0
515,0.0
516,0.0
542,0.0
592,5689519.861596226
632,28818526.88818998
686,1.0
687,1.0
688,2.0
2,21, 1,21, 0,11,10.00,20.00,Monday
250,5.898675100692401
251,34566048.08842837
336,0.0
385,18.85747456693978
386,26.713621874928783
387,2.4768062550297834
388,0.0
425,0.0
450,0.0
451,0.0
452,8.271722147859418
453,0.0
490,0.0
515,0.0
516,0.0
542,0.0
592,5740969.350869596
632,28616441.38200657
686,1.0
687,1.0
688,2.0
2,21, 1,21, 0,11,20.00,30.00,Monday
250,6.1814812995879
251,34415453.98227422
336,0.0
385,18.857474566939775
386,26.713621874928776
387,2.748967630308085
388,0.0
425,0.0
450,0.0
451,0.0
452,9.118338029097485
453,0.0
490,0.0
515,0.0
516,0.0
542,0.0
592,5793671.0952822175
632,28413172.40232424
686,0.9999999999999996
687,0.9999999999999996
688,1.9999999999999991
2,21, 1,21, 0,11,30.00,40.00,Monday
250,6.464011884349159
251,34264955.5700448
336,0.0
385,18.85747456693979
386,26.713621874928798
387,3.026303637184067
388,0.0
425,0.0
450,0.0
451,0.0
452,9.940204815242293
453,0.0
490,0.0
515,0.0
516,0.0
542,0.0
592,5847681.4279665835
632,28208631.509773165
686,1.0000000000000004
687,1.0000000000000004
688,2.000000000000001
2,21, 1,21, 0,11,40.00,50.00,Monday
250,6.746423172968153
251,34114467.57581297
336,0.0
385,18.857474566939796
386,26.713621874928805
387,3.3054128466095745
388,0.0
425,0.0
450,0.0
451,0.0
452,10.68575877891578
453,0.0
490,0.0
515,0.0
516,0.0
542,0.0
592,5903058.082199926
632,28002763.31559085
686,1.0000000000000009
687,1.0000000000000009
688,2.0000000000000018
2,21, 1,21, 0,11,50.00,60.00,Monday
250,7.028673247086671
251,33964011.133374445
336,0.0
385,18.857474566939796
386,26.713621874928805
387,3.5824427787165316
388,0.0
425,0.0
450,0.0
451,0.0
452,11.321550871066565
453,0.0
490,0.0
515,0.0
516,0.0
542,0.0
592,5959860.237244541
632,27795494.11946997
686,1.0000000000000009
687,1.0000000000000009
688,2.0000000000000018
2,21, 1,21, 0,12, 0.00,10.00,Monday
250,7.2953350371719345
251,33821889.97744586
336,0.0
385,18.857474566939782
386,26.713621874928787
387,3.822445836916936
388,0.0
425,0.0
450,0.0
451,0.0
452,11.820681769051284
453,0.0
490,0.0
515,0.0
516,0.0
542,0.0
592,5991096.197635708
632,27644697.350838996
686,1.0
687,1.0
688,2.0
2,21, 1,21, 0,12,10.00,20.00,Monday
250,7.560370517019762
251,33684121.53111683
336,0.0
385,18.857474566939782
386,26.713621874928787
387,4.114839327313454
388,0.0
425,0.0
450,0.0
451,0.0
452,12.384676617696009
453,0.0
490,0.0
515,0.0
516,0.0
542,0.0
592,7572016.881221028
632,25924153.068451896
686,1.0
687,1.0
688,2.0
2,21, 1,21, 0,12,20.00,30.00,Monday
250,7.8262232074593925
251,33544197.7307026
336,0.0
385,18.857474566939782
386,26.713621874928787
387,4.383962400419525
388,0.0
425,0.0
450,0.0
451,0.0
452,12.899864095549383
453,0.0
490,0.0
515,0.0
516,0.0
542,0.0
592,7609409.155487607
632,25747045.948516775
686,1.0
687,1.0
688,2.0
2,21, 1,21, 0,12,30.00,40.00,Monday
250,8.091971218840015
251,33404331.877539873
336,0.0
385,18.857474566939782
386,26.713621874928787
387,4.642781316374254
388,0.0
425,0.0
450,0.0
451,0.0
452,13.39154843044053
453,0.0
490,0.0
515,0.0
516,0.0
542,0.0
592,7646583.592010483
632,25569977.329516076
686,1.0
687,1.0
688,2.0
2,21, 1,21, 0,12,40.00,50.00,Monday
250,8.357683354641505
251,33264485.049981527
336,0.0
385,18.857474566939782
386,26.713621874928787
387,4.897213015557275
388,0.0
425,0.0
450,0.0
451,0.0
452,13.833505995601335
453,0.0
490,0.0
515,0.0
516,0.0
542,0.0
592,7683540.190789656
632,25393164.38738563
686,1.0
687,1.0
688,2.0
2,21, 1,21, 0,12,50.00,60.00,Monday
250,8.623384360546916
251,33124643.437941875
336,0.0
385,18.857474566939782
386,26.713621874928787
387,5.146165074300791
388,0.0
425,0.0
450,0.0
451,0.0
452,14.201304376962028
453,0.0
490,0.0
515,0.0
516,0.0
542,0.0
592,7720278.951825122
632,25216581.509960655
686,1.0
687,1.0
688,2.0
2,21, 1,21, 0,13, 0.00,10.00,Monday
250,8.806271944610348
251,33026044.511595156
336,0.0
385,18.857474566939782
386,26.713621874928787
387,5.378558074002523
388,0.0
425,0.0
450,0.0
451,0.0
452,14.492561877908631
453,0.0
490,0.0
515,0.0
516,0.0
542,0.0
592,7745410.487127085
632,25118079.648459796
686,1.0
687,1.0
688,2.0
2,21, 1,21, 0,13,10.00,20.00,Monday
250,8.988689591684382
251,32931637.346126575
336,0.0
385,18.857474566939782
386,26.713621874928787
387,5.597351697664964
388,0.0
425,0.0
450,0.0
451,0.0
452,14.72182256413801
453,0.0
490,0.0
515,0.0
516,0.0
542,0.0
592,7770439.060057999
632,25000769.12226039
686,1.0
687,1.0
688,2.0
2,21, 1,21, 0,13,20.00,30.00,Monday
250,9.171729973685048
251,32837014.726439696
336,0.0
385,18.857474566939782
386,26.713621874928787
387,5.802259936253616
388,0.0
425,0.0
450,0.0
451,0.0
452,14.905004441157612
453,0.0
490,0.0
515,0.0
516,0.0
542,0.0
592,7795364.67061786
632,24881569.586639665
686,1.0
687,1.0
688,2.0
2,21, 1,21, 0,13,30.00,40.00,Monday
250,9.354579027592886
251,32742524.598373327
336,0.0
385,18.857474566939782
386,26.713621874928787
387,5.997302520340836
388,0.0
425,0.0
450,0.0
451,0.0
452,15.053880894523196
453,0.0
490,0.0
515,0.0
516,0.0
542,0.0
592,7820187.318806681
632,24762166.241576567
686,1.0
687,1.0
688,2.0
2,21, 1,21, 0,13,40.00,50.00,Monday
250,9.53743416304268
251,32648064.75416099
336,0.0
385,18.857474566939782
386,26.713621874928787
387,6.186229660856491
388,0.0
425,0.0
450,0.0
451,0.0
452,15.173209293459776
453,0.0
490,0.0
515,0.0
516,0.0
542,0.0
592,7844907.00462445
632,24643002.88995053
686,1.0
687,1.0
688,2.0
2,21, 1,21, 0,13,50.00,60.00,Monday
250,9.720281203788216
251,32553642.416195508
336,0.0
385,18.857474566939782
386,26.713621874928787
387,6.370341602326477
388,0.0
425,0.0
450,0.0
451,0.0
452,15.266626065877777
453,0.0
490,0.0
515,0.0
516,0.0
542,0.0
592,7869523.728071173
632,24523972.530767806
686,1.0
687,1.0
688,2.0
2,21, 1,21, 0,14, 0.00,10.00,Monday
250,9.92018069448617
251,32450043.041484717
336,0.0
385,18.857474566939782
386,26.713621874928787
387,6.552476982522229
388,0.0
425,0.0
450,0.0
451,0.0
452,15.322732217315647
453,0.0
490,0.0
515,0.0
516,0.0
542,0.0
592,7896260.907308882
632,24402859.52362188
686,1.0
687,1.0
688,2.0
2,21, 1,21, 0,14,10.00,20.00,Monday
250,10.119623882063607
251,32346295.38411173
336,0.0
385,18.857474566939782
386,26.713621874928787
387,6.732767409774415
388,0.0
425,0.0
450,0.0
451,0.0
452,15.32320868361702
453,0.0
490,0.0
515,0.0
516,0.0
542,0.0
592,7922875.552815757
632,24272264.002865445
686,1.0
687,1.0
688,2.0
2,21, 1,21, 0,14,20.00,30.00,Monday
250,10.31892198665652
251,32242637.53053086
336,0.0
385,18.857474566939782
386,26.713621874928787
387,6.9090554095004615
388,0.0
425,0.0
450,0.0
451,0.0
452,15.267588605772437
453,0.0
490,0.0
515,0.0
516,0.0
542,0.0
592,7949367.664591796
632,24142049.021760806
686,1.0
687,1.0
688,2.0
2,21, 1,21, 0,14,30.00,40.00,Monday
250,10.518125356900617
251,32139056.31288745
336,0.0
385,18.857474566939782
386,26.713621874928787
387,7.075389252738236
388,0.0
425,0.0
450,0.0
451,0.0
452,15.145347248411289
453,0.0
490,0.0
515,0.0
516,0.0
542,0.0
592,7975737.242637003
632,24012060.56973326
686,1.0
687,1.0
688,2.0
2,21, 1,21, 0,14,40.00,50.00,Monday
250,10.717243599488626
251,32035542.943668664
336,0.0
385,18.857474566939782
386,26.713621874928787
387,7.228075233697588
388,0.0
425,0.0
450,0.0
451,0.0
452,14.936764033203467
453,0.0
490,0.0
515,0.0
516,0.0
542,0.0
592,8001984.286951375
632,23882267.842533633
686,1.0
687,1.0
688,2.0
2,21, 1,21, 0,14,50.00,60.00,Monday
250,10.916302726980474
251,31932083.94626118
336,0.0
385,18.857474566939782
386,26.713621874928787
387,7.367403359086886
388,0.0
425,0.0
450,0.0
451,0.0
452,14.644878985047223
453,0.0
490,0.0
515,0.0
516,0.0
542,0.0
592,8028108.797534912
632,23752666.235513806
686,1.0
687,1.0
688,2.0
2,21, 1,21, 0,15, 0.00,10.00,Monday
250,11.181773542886802
251,31793483.33524321
336,0.0
385,18.857474566939782
386,26.713621874928787