Program Version,EnergyPlus, Version 24.2.0-94a887817b, YMD=2025.01.22 00:03
1,5,Environment Title[],Latitude[deg],Longitude[deg],Time Zone[],Elevation[m]
2,8,Day of Simulation[],Month[],Day of Month[],DST Indicator[1=yes 0=no],Hour[],StartMinute[],EndMinute[],DayType
3,5,Cumulative Day of Simulation[],Month[],Day of Month[],DST Indicator[1=yes 0=no],DayType  ! When Daily Meters Requested
4,2,Cumulative Days of Simulation[],Month[]  ! When Monthly Meters Requested
5,1,Cumulative Days of Simulation[] ! When Run Period Meters Requested
6,1,Calendar Year of Simulation[] ! When Annual Meters Requested
11,9,Electricity:Facility [J] !Monthly [Value,Min,Day,Hour,Minute,Max,Day,Hour,Minute]
23,9,Electricity:Building [J] !Monthly [Value,Min,Day,Hour,Minute,Max,Day,Hour,Minute]
59,9,InteriorLights:Electricity [J] !Monthly [Value,Min,Day,Hour,Minute,Max,Day,Hour,Minute]
521,9,Electricity:HVAC [J] !Monthly [Value,Min,Day,Hour,Minute,Max,Day,Hour,Minute]
637,9,NaturalGas:Facility [J] !Monthly [Value,Min,Day,Hour,Minute,Max,Day,Hour,Minute]
649,9,NaturalGas:HVAC [J] !Monthly [Value,Min,Day,Hour,Minute,Max,Day,Hour,Minute]
13,11,Electricity:Facility [J] !RunPeriod [Value,Min,Month,Day,Hour,Minute,Max,Month,Day,Hour,Minute]
25,11,Electricity:Building [J] !RunPeriod [Value,Min,Month,Day,Hour,Minute,Max,Month,Day,Hour,Minute]
61,11,InteriorLights:Electricity [J] !RunPeriod [Value,Min,Month,Day,Hour,Minute,Max,Month,Day,Hour,Minute]
523,11,Electricity:HVAC [J] !RunPeriod [Value,Min,Month,Day,Hour,Minute,Max,Month,Day,Hour,Minute]
639,11,NaturalGas:Facility [J] !RunPeriod [Value,Min,Month,Day,Hour,Minute,Max,Month,Day,Hour,Minute]
651,11,NaturalGas:HVAC [J] !RunPeriod [Value,Min,Month,Day,Hour,Minute,Max,Month,Day,Hour,Minute]
End of Data Dictionary
1,RUN PERIOD 1,  41.98, -87.92,  -6.00, 201.00
4,31, 1
11,9815839331.528934,408891.4285714286, 5, 6,50,2974248.04434514,16,13,60
23,976789230.2979475,30000.0, 1, 1,10,604774.8045637156, 1, 9,10
59,970200000.0,30000.0, 1, 1,10,600000.0, 1, 8,10
521,8839050101.230986,378891.4285714286, 5, 6,50,2369473.239781425,16,13,60
637,178808544241.78156,28150496.87432388,21,16,10,41250000.0, 1, 1,10
649,178808544241.78156,28150496.87432388,21,16,10,41250000.0, 1, 1,10
4,59, 2
11,9350265886.540321,99999999999999.0, 5, 6,50,3015709.4846082623,22,15,30
23,853889765.4764713,99999999999999.0, 1, 1,10,-99999999999999.0, 1, 9,10
59,848160000.0,99999999999999.0, 1, 1,10,-99999999999999.0, 1, 8,10
521,8496376121.063895,99999999999999.0, 5, 6,50,2410934.680044547,22,15,30
637,158145261093.87537,26465422.336853016,23,12,10,-99999999999999.0, 1, 1,10
649,158145261093.87537,26465422.336853016,23,12,10,-99999999999999.0, 1, 1,10
4,90, 3
11,11006019679.731833,99999999999999.0, 5, 6,50,3270064.540695008,27,16,10
23,903496253.750297,99999999999999.0, 1, 1,10,-99999999999999.0, 1, 9,10
59,897480000.0,99999999999999.0, 1, 1,10,-99999999999999.0, 1, 8,10
521,10102523425.981554,99999999999999.0, 5, 6,50,2665289.7361312923,27,16,10
637,162383612465.17545,20929670.854970295,27,16,10,-99999999999999.0, 1, 1,10
649,162383612465.17545,20929670.854970295,27,16,10,-99999999999999.0, 1, 1,10
4,120, 4
11,10233693488.44857,30000.0,11,19,10,3331671.77154602,24,12,60
23,935989142.1007054,99999999999999.0, 1, 1,10,628950.2607875505,24,16,10
59,929520000.0,99999999999999.0, 1, 1,10,-99999999999999.0, 1, 8,10
521,9297704346.347887,0.0,11,15,10,2730590.5461922167,16, 8,40
637,125478595152.68251,0.0,11,15,10,-99999999999999.0, 1, 1,10
649,125478595152.68251,0.0,11,15,10,-99999999999999.0, 1, 1,10
4,151, 5
11,10294393972.478626,99999999999999.0,11,19,10,3335632.880099243,29,10,20
23,977219702.8682208,99999999999999.0, 1, 1,10,-99999999999999.0,24,16,10
59,970200000.0,99999999999999.0, 1, 1,10,-99999999999999.0, 1, 8,10
521,9317174269.610447,99999999999999.0,11,15,10,2730858.0755355274,29,10,20
637,102489640836.4684,99999999999999.0,11,15,10,-99999999999999.0, 1, 1,10
649,102489640836.4684,99999999999999.0,11,15,10,-99999999999999.0, 1, 1,10
4,181, 6
11,8892022428.978033,99999999999999.0,11,19,10,3335867.851701852,13,16,60
23,862962271.7028674,99999999999999.0, 1, 1,10,639932.914323236,17,10,60
59,856800000.0,99999999999999.0, 1, 1,10,-99999999999999.0, 1, 8,10
521,8029060157.2751875,99999999999999.0,11,15,10,2731093.0471381363,13,16,60
637,58110380533.471565,99999999999999.0,11,15,10,-99999999999999.0, 1, 1,10
649,58110380533.471565,99999999999999.0,11,15,10,-99999999999999.0, 1, 1,10
4,212, 7
11,8652717974.77339,99999999999999.0,11,19,10,3336792.3715050393,10,10,40
23,977053167.6477965,99999999999999.0, 1, 1,10,-99999999999999.0,17,10,60
59,970200000.0,99999999999999.0, 1, 1,10,-99999999999999.0, 1, 8,10
521,7675664807.125647,99999999999999.0,11,15,10,2732017.5669413237,10,10,40
637,33983311459.073353,99999999999999.0,11,15,10,-99999999999999.0, 1, 1,10
649,33983311459.073353,99999999999999.0,11,15,10,-99999999999999.0, 1, 1,10
4,243, 8
11,8541797986.932164,99999999999999.0,11,19,10,3338617.645032523,16,13,50
23,940711228.1954603,99999999999999.0, 1, 1,10,-99999999999999.0,17,10,60
59,933840000.0,99999999999999.0, 1, 1,10,-99999999999999.0, 1, 8,10
521,7601086758.736812,99999999999999.0,11,15,10,2733842.8404688076,16,13,50
637,52749760374.41471,99999999999999.0,11,15,10,-99999999999999.0, 1, 1,10
649,52749760374.41471,99999999999999.0,11,15,10,-99999999999999.0, 1, 1,10
4,273, 9
11,9834537648.578186,99999999999999.0,11,19,10,-99999999999999.0,16,13,50
23,899596452.0452902,99999999999999.0, 1, 1,10,-99999999999999.0,17,10,60
59,893160000.0,99999999999999.0, 1, 1,10,-99999999999999.0, 1, 8,10
521,8934941196.532925,99999999999999.0,11,15,10,-99999999999999.0,16,13,50
637,85500067500.0706,99999999999999.0,11,15,10,-99999999999999.0, 1, 1,10
649,85500067500.0706,99999999999999.0,11,15,10,-99999999999999.0, 1, 1,10
4,304,10
11,10939271866.946966,99999999999999.0,11,19,10,-99999999999999.0,16,13,50
23,977140434.8409939,99999999999999.0, 1, 1,10,-99999999999999.0,17,10,60
59,970200000.0,99999999999999.0, 1, 1,10,-99999999999999.0, 1, 8,10
521,9962131432.105959,99999999999999.0,11,15,10,-99999999999999.0,16,13,50
637,131184143807.03326,99999999999999.0,11,15,10,-99999999999999.0, 1, 1,10
649,131184143807.03326,99999999999999.0,11,15,10,-99999999999999.0, 1, 1,10
4,334,11
11,10650727222.80678,99999999999999.0,11,19,10,-99999999999999.0,16,13,50
23,899176253.750297,99999999999999.0, 1, 1,10,-99999999999999.0,17,10,60
59,893160000.0,99999999999999.0, 1, 1,10,-99999999999999.0, 1, 8,10
521,9751550969.056515,99999999999999.0,11,15,10,-99999999999999.0,16,13,50
637,148974001252.8838,99999999999999.0,11,15,10,-99999999999999.0, 1, 1,10
649,148974001252.8838,99999999999999.0,11,15,10,-99999999999999.0, 1, 1,10
4,365,12
11,10429093362.407911,99999999999999.0,11,19,10,-99999999999999.0,16,13,50
23,940142742.0241222,99999999999999.0, 1, 1,10,-99999999999999.0,17,10,60
59,933840000.0,99999999999999.0, 1, 1,10,-99999999999999.0, 1, 8,10
521,9488950620.383821,99999999999999.0,11,15,10,-99999999999999.0,16,13,50
637,179630064393.5934,99999999999999.0,11,15,10,-99999999999999.0, 1, 1,10
649,179630064393.5934,99999999999999.0,11,15,10,-99999999999999.0, 1, 1,10
5,365
13,118640380850.16106,30000.0, 4,11,19,10,3338617.645032523, 8,16,13,50
25,11144166644.697931,30000.0, 1, 1, 1,10,639932.914323236, 6,17,10,60
61,11066760000.0,30000.0, 1, 1, 1,10,600000.0, 1, 1, 8,10
523,107496214205.45811,0.0, 4,11,15,10,2733842.8404688076, 8,16,13,50
639,1417437383110.5127,0.0, 4,11,15,10,41250000.0, 1, 1, 1,10
651,1417437383110.5127,0.0, 4,11,15,10,41250000.0, 1, 1, 1,10
1,RUN PERIOD 2,  41.98, -87.92,  -6.00, 201.00
4,1, 7
11,273194989.8033413,99999999999999.0,11,19,10,-99999999999999.0,16,13,50
23,40966488.27382296,99999999999999.0, 1, 1,10,-99999999999999.0,17,10,60
59,40680000.0,99999999999999.0, 1, 1,10,-99999999999999.0, 1, 8,10
521,232228501.52951854,99999999999999.0,11,15,10,-99999999999999.0,16,13,50
637,1255868563.1946306,99999999999999.0,11,15,10,-99999999999999.0, 1, 1,10
649,1255868563.1946306,99999999999999.0,11,15,10,-99999999999999.0, 1, 1,10
5,1
13,273194989.8033413,99999999999999.0, 4,11,19,10,-99999999999999.0, 8,16,13,50
25,40966488.27382296,99999999999999.0, 1, 1, 1,10,-99999999999999.0, 6,17,10,60
61,40680000.0,99999999999999.0, 1, 1, 1,10,-99999999999999.0, 1, 1, 8,10
523,232228501.52951854,99999999999999.0, 4,11,15,10,-99999999999999.0, 8,16,13,50
639,1255868563.1946306,99999999999999.0, 4,11,15,10,-99999999999999.0, 1, 1, 1,10
651,1255868563.1946306,99999999999999.0, 4,11,15,10,-99999999999999.0, 1, 1, 1,10
End of Data
 Number of Records Written=          90
