Program Version,EnergyPlus, Version 24.2.0-94a887817b, YMD=2025.01.21 11:38
1,5,Environment Title[],Latitude[deg],Longitude[deg],Time Zone[],Elevation[m]
2,8,Day of Simulation[],Month[],Day of Month[],DST Indicator[1=yes 0=no],Hour[],StartMinute[],EndMinute[],DayType
3,5,Cumulative Day of Simulation[],Month[],Day of Month[],DST Indicator[1=yes 0=no],DayType  ! When Daily Report Variables Requested
4,2,Cumulative Days of Simulation[],Month[]  ! When Monthly Report Variables Requested
5,1,Cumulative Days of Simulation[] ! When Run Period Report Variables Requested
6,1,Calendar Year of Simulation[] ! When Annual Report Variables Requested
250,1,LIVING ZONE,Zone Air Temperature [C] !TimeStep,REPORTSCH
251,1,LIVING ZONE,Zone Air System Sensible Heating Energy [J] !TimeStep,REPORTSCH
336,1,LIVING ZONE,Zone Air System Sensible Cooling Energy [J] !TimeStep,REPORTSCH
385,1,LIVING ZONE,Zone Thermostat Heating Setpoint Temperature [C] !TimeStep,REPORTSCH
386,1,LIVING ZONE,Zone Thermostat Cooling Setpoint Temperature [C] !TimeStep,REPORTSCH
387,1,GARAGE ZONE,Zone Air Temperature [C] !TimeStep,REPORTSCH
388,1,GARAGE ZONE,Zone Air System Sensible Heating Energy [J] !TimeStep,REPORTSCH
425,1,GARAGE ZONE,Zone Air System Sensible Cooling Energy [J] !TimeStep,REPORTSCH
450,1,GARAGE ZONE,Zone Thermostat Heating Setpoint Temperature [C] !TimeStep,REPORTSCH
451,1,GARAGE ZONE,Zone Thermostat Cooling Setpoint Temperature [C] !TimeStep,REPORTSCH
452,1,ATTIC ZONE,Zone Air Temperature [C] !TimeStep,REPORTSCH
453,1,ATTIC ZONE,Zone Air System Sensible Heating Energy [J] !TimeStep,REPORTSCH
490,1,ATTIC ZONE,Zone Air System Sensible Cooling Energy [J] !TimeStep,REPORTSCH
515,1,ATTIC ZONE,Zone Thermostat Heating Setpoint Temperature [C] !TimeStep,REPORTSCH
516,1,ATTIC ZONE,Zone Thermostat Cooling Setpoint Temperature [C] !TimeStep,REPORTSCH
542,1,ACDXCOIL 1,Cooling Coil Total Cooling Energy [J] !TimeStep,REPORTSCH
592,1,HEAT PUMP DX HEATING COIL 1,Heating Coil Heating Energy [J] !TimeStep,REPORTSCH
632,1,SUPP HEATING COIL 1,Heating Coil Heating Energy [J] !TimeStep,REPORTSCH
686,1,TWOSPEED HEAT PUMP 1,Unitary System DX Coil Cycling Ratio [] !TimeStep,REPORTSCH
687,1,TWOSPEED HEAT PUMP 1,Unitary System DX Coil Speed Ratio [] !TimeStep,REPORTSCH
688,1,TWOSPEED HEAT PUMP 1,Unitary System DX Coil Speed Level [] !TimeStep,REPORTSCH
End of Data Dictionary
1,CHICAGO_IL_USA ANNUAL HEATING 99% DESIGN CONDITIONS DB,  41.98, -87.92,  -6.00, 201.00
2,1, 1,21, 0, 1, 0.00,10.00,WinterDesignDay
250,-16.995532418269878
251,33258891.428646926
336,0.0
385,19.262628534987698
386,27.74434380684874
387,-18.497401608458055
388,0.0
425,0.0
450,0.0
451,0.0
452,-19.36002218909728
453,0.0
490,0.0
515,0.0
516,0.0
542,0.0
592,0.0
632,33000000.0
686,1.0
687,1.0
688,2.0
2,1, 1,21, 0, 1,10.00,20.00,WinterDesignDay
250,-16.995532418408825
251,33258891.428645924
336,0.0
385,19.262628534987698
386,27.74434380684874
387,-18.497403096026275
388,0.0
425,0.0
450,0.0
451,0.0
452,-19.360022396557646
453,0.0
490,0.0
515,0.0
516,0.0
542,0.0
592,0.0
632,33000000.0
686,1.0
687,1.0
688,2.0
2,1, 1,21, 0, 1,20.00,30.00,WinterDesignDay
250,-16.995532418545928
251,33258891.428644937
336,0.0
385,19.262628534987698
386,27.74434380684874
387,-18.497404564200547
388,0.0
425,0.0
450,0.0
451,0.0
452,-19.360022601312682
453,0.0
490,0.0
515,0.0
516,0.0
542,0.0
592,0.0
632,33000000.0
686,1.0
687,1.0
688,2.0
2,1, 1,21, 0, 1,30.00,40.00,WinterDesignDay
250,-16.99553241868121
251,33258891.428643957
336,0.0
385,19.262628534987698
386,27.74434380684874
387,-18.497406013233665
388,0.0
425,0.0
450,0.0
451,0.0
452,-19.36002280339767
453,0.0
490,0.0
515,0.0
516,0.0
542,0.0
592,0.0
632,33000000.0
686,1.0
687,1.0
688,2.0
2,1, 1,21, 0, 1,40.00,50.00,WinterDesignDay
250,-16.995532418814697
251,33258891.428643
336,0.0
385,19.262628534987698
386,27.74434380684874
387,-18.49740744337534
388,0.0
425,0.0
450,0.0
451,0.0
452,-19.360023002847427
453,0.0
490,0.0
515,0.0
516,0.0
542,0.0
592,0.0
632,33000000.0
686,1.0
687,1.0
688,2.0
2,1, 1,21, 0, 1,50.00,60.00,WinterDesignDay
250,-16.99553241894641
251,33258891.428642042
336,0.0
385,19.262628534987698
386,27.74434380684874
387,-18.497408854871793
388,0.0
425,0.0
450,0.0
451,0.0
452,-19.360023199696325
453,0.0
490,0.0
515,0.0
516,0.0
542,0.0
592,0.0
632,33000000.0
686,1.0
687,1.0
688,2.0
2,1, 1,21, 0, 2, 0.00,10.00,WinterDesignDay
250,-16.995532419076387
251,33258891.42864111
336,0.0
385,19.262628534987698
386,27.74434380684874
387,-18.497410247966183
388,0.0
425,0.0
450,0.0
451,0.0
452,-19.360023393978285
453,0.0
490,0.0
515,0.0
516,0.0
542,0.0
592,0.0
632,33000000.0
686,1.0
687,1.0
688,2.0
2,1, 1,21, 0, 2,10.00,20.00,WinterDesignDay
250,-16.995532419204626
251,33258891.428640187
336,0.0
385,19.262628534987698
386,27.74434380684874
387,-18.49741162289831
388,0.0
425,0.0
450,0.0
451,0.0
452,-19.360023585726786
453,0.0
490,0.0
515,0.0
516,0.0
542,0.0
592,0.0
632,33000000.0
686,1.0
687,1.0
688,2.0
2,1, 1,21, 0, 2,20.00,30.00,WinterDesignDay
250,-16.995532419331173
251,33258891.428639278
336,0.0
385,19.262628534987698
386,27.74434380684874
387,-18.497412979904936
388,0.0
425,0.0
450,0.0
451,0.0
452,-19.360023774974866
453,0.0
490,0.0
515,0.0
516,0.0
542,0.0
592,0.0
632,33000000.0
686,1.0
687,1.0
688,2.0
2,1, 1,21, 0, 2,30.00,40.00,WinterDesignDay
250,-16.99553241945604
251,33258891.428638376
336,0.0
385,19.262628534987698
386,27.74434380684874
387,-18.497414319219693
388,0.0
425,0.0
450,0.0
451,0.0
452,-19.36002396175514
453,0.0
490,0.0
515,0.0
516,0.0
542,0.0
592,0.0
632,33000000.0
686,1.0
687,1.0
688,2.0
2,1, 1,21, 0, 2,40.00,50.00,WinterDesignDay
250,-16.995532419579252
251,33258891.42863749
336,0.0
385,19.262628534987698
386,27.74434380684874
387,-18.497415641073374
388,0.0
425,0.0
450,0.0
451,0.0
452,-19.360024146099793
453,0.0
490,0.0
515,0.0
516,0.0
542,0.0
592,0.0
632,33000000.0
686,1.0
687,1.0
688,2.0
2,1, 1,21, 0, 2,50.00,60.00,WinterDesignDay
250,-16.995532419700826
251,33258891.42863661
336,0.0
385,19.262628534987698
386,27.74434380684874
387,-18.497416945693637
388,0.0
425,0.0
450,0.0
451,0.0
452,-19.36002432804059
453,0.0
490,0.0
515,0.0
516,0.0
542,0.0
592,0.0
632,33000000.0
686,1.0
687,1.0
688,2.0
2,1, 1,21, 0, 3, 0.00,10.00,WinterDesignDay
250,-16.995532419820794
251,33258891.42863575
336,0.0
385,19.262628534987698
386,27.74434380684874
387,-18.497418233304916
388,0.0
425,0.0
450,0.0
451,0.0
452,-19.36002450760888
453,0.0
490,0.0
515,0.0
516,0.0
542,0.0
592,0.0
632,33000000.0
686,1.0
687,1.0
688,2.0
2,1, 1,21, 0, 3,10.00,20.00,WinterDesignDay
250,-16.995532419939174
251,33258891.4286349
336,0.0
385,19.262628534987698
386,27.74434380684874
387,-18.497419504129095
388,0.0
425,0.0
450,0.0
451,0.0
452,-19.3600246848356
453,0.0
490,0.0
515,0.0
516,0.0
542,0.0
592,0.0
632,33000000.0
686,1.0
687,1.0
688,2.0
2,1, 1,21, 0, 3,20.00,30.00,WinterDesignDay
250,-16.99553242005598
251,33258891.42863405
336,0.0
385,19.262628534987698
386,27.74434380684874
387,-18.497420758385015
388,0.0
425,0.0
450,0.0
451,0.0
452,-19.360024859751295
453,0.0
490,0.0
515,0.0
516,0.0
542,0.0
592,0.0
632,33000000.0
686,1.0
687,1.0
688,2.0
2,1, 1,21, 0, 3,30.00,40.00,WinterDesignDay
250,-16.99553242017124
251,33258891.428633228
336,0.0
385,19.262628534987698
386,27.74434380684874
387,-18.497421996288686
388,0.0
425,0.0
450,0.0
451,0.0
452,-19.360025032386094
453,0.0
490,0.0
515,0.0
516,0.0
542,0.0
592,0.0
632,33000000.0
686,1.0
687,1.0
688,2.0
2,1, 1,21, 0, 3,40.00,50.00,WinterDesignDay
250,-16.995532420284974
251,33258891.42863241
336,0.0
385,19.262628534987698
386,27.74434380684874
387,-18.497423218053257
388,0.0
425,0.0
450,0.0
451,0.0
452,-19.36002520276975
453,0.0
490,0.0
515,0.0
516,0.0
542,0.0
592,0.0
632,33000000.0
686,1.0
687,1.0
688,2.0
2,1, 1,21, 0, 3,50.00,60.00,WinterDesignDay
250,-16.995532420397204
251,33258891.4286316
336,0.0
385,19.262628534987698
386,27.74434380684874
387,-18.497424423889193
388,0.0
425,0.0
450,0.0
451,0.0
452,-19.36002537093163
453,0.0
490,0.0
515,0.0
516,0.0
542,0.0
592,0.0
632,33000000.0
686,1.0
687,1.0
688,2.0
2,1, 1,21, 0, 4, 0.00,10.00,WinterDesignDay
250,-16.995532420507946
251,33258891.4286308
336,0.0
385,19.262628534987698
386,27.74434380684874
387,-18.49742561400416
388,0.0
425,0.0
450,0.0
451,0.0
452,-19.360025536900697
453,0.0
490,0.0
515,0.0
516,0.0
542,0.0
592,0.0
632,33000000.0
686,1.0
687,1.0
688,2.0
2,1, 1,21, 0, 4,10.00,20.00,WinterDesignDay
250,-16.99553242061722
251,33258891.42863002
336,0.0
385,19.262628534987698
386,27.74434380684874
387,-18.497426788603132
388,0.0
425,0.0
450,0.0
451,0.0
452,-19.36002570070555
453,0.0
490,0.0
515,0.0
516,0.0
542,0.0
592,0.0
632,33000000.0
686,1.0
687,1.0
688,2.0
2,1, 1,21, 0, 4,20.00,30.00,WinterDesignDay
250,-16.99553242072505
251,33258891.428629242
336,0.0
385,19.262628534987698
386,27.74434380684874
387,-18.49742794788826
388,0.0
425,0.0
450,0.0
451,0.0
452,-19.360025862374414
453,0.0
490,0.0
515,0.0
516,0.0
542,0.0
592,0.0
632,33000000.0
686,1.0
687,1.0
688,2.0
2,1, 1,21, 0, 4,30.00,40.00,WinterDesignDay
250,-16.99553242083145
251,33258891.428628474
336,0.0
385,19.262628534987698
386,27.74434380684874
387,-18.497429092059182
388,0.0
425,0.0
450,0.0
451,0.0
452,-19.360026021935152
453,0.0
490,0.0
515,0.0
516,0.0
542,0.0
592,0.0
632,33000000.0
686,1.0
687,1.0
688,2.0
2,1, 1,21, 0, 4,40.00,50.00,WinterDesignDay
250,-16.995532420936446
251,33258891.428627722
336,0.0
385,19.262628534987698
386,27.74434380684874
387,-18.497430221313053
388,0.0
425,0.0
450,0.0
451,0.0
452,-19.360026179415254
453,0.0
490,0.0
515,0.0
516,0.0
542,0.0
592,0.0
632,33000000.0
686,1.0
687,1.0
688,2.0
2,1, 1,21, 0, 4,50.00,60.00,WinterDesignDay
250,-16.995532421040046
251,33258891.428626977
336,0.0
385,19.262628534987698
386,27.74434380684874
387,-18.497431335844347
388,0.0
425,0.0
450,0.0
451,0.0
452,-19.36002633484185
453,0.0
490,0.0
515,0.0
516,0.0
542,0.0
592,0.0
632,33000000.0
686,1.0
687,1.0
688,2.0
2,1, 1,21, 0, 5, 0.00,10.00,WinterDesignDay
250,-16.995532421142276
251,33258891.428626236
336,0.0
385,19.262628534987698
386,27.74434380684874
387,-18.49743243584514
388,0.0
425,0.0
450,0.0
451,0.0
452,-19.360026488241722
453,0.0
490,0.0
515,0.0
516,0.0
542,0.0
592,0.0
632,33000000.0
686,1.0
687,1.0
688,2.0
2,1, 1,21, 0, 5,10.00,20.00,WinterDesignDay
250,-16.99553242124316
251,33258891.428625517
336,0.0
385,19.262628534987698
386,27.74434380684874
387,-18.49743352150492
388,0.0
425,0.0
450,0.0
451,0.0
452,-19.360026639641298
453,0.0
490,0.0
515,0.0
516,0.0
542,0.0
592,0.0
632,33000000.0
686,1.0
687,1.0
688,2.0
2,1, 1,21, 0, 5,20.00,30.00,WinterDesignDay
250,-16.995532421342702
251,33258891.4286248
336,0.0
385,19.262628534987698
386,27.74434380684874
387,-18.497434593010322
388,0.0
425,0.0
450,0.0
451,0.0
452,-19.36002678906667
453,0.0
490,0.0
515,0.0
516,0.0
542,0.0
592,0.0
632,33000000.0
686,1.0
687,1.0
688,2.0
2,1, 1,21, 0, 5,30.00,40.00,WinterDesignDay
250,-16.995532421440934
251,33258891.4286241
336,0.0
385,19.262628534987698
386,27.74434380684874
387,-18.497435650545803
388,0.0
425,0.0
450,0.0
451,0.0
452,-19.360026936543584
453,0.0
490,0.0
515,0.0
516,0.0
542,0.0
592,0.0
632,33000000.0
686,1.0
687,1.0
688,2.0
2,1, 1,21, 0, 5,40.00,50.00,WinterDesignDay
250,-16.995532421537867
251,33258891.4286234
336,0.0
385,19.262628534987698
386,27.74434380684874
387,-18.49743669429364
388,0.0
425,0.0
450,0.0
451,0.0
452,-19.360027082097446
453,0.0
490,0.0
515,0.0
516,0.0
542,0.0
592,0.0
632,33000000.0
686,1.0
687,1.0
688,2.0
2,1, 1,21, 0, 5,50.00,60.00,WinterDesignDay
250,-16.995532421633513
251,33258891.428622708
336,0.0
385,19.262628534987698
386,27.74434380684874
387,-18.49743772443372
388,0.0
425,0.0
450,0.0
451,0.0
452,-19.360027225753342
453,0.0
490,0.0
515,0.0
516,0.0
542,0.0
592,0.0
632,33000000.0
686,1.0
687,1.0
688,2.0
2,1, 1,21, 0, 6, 0.00,10.00,WinterDesignDay
250,-16.99553242172789
251,33258891.42862203
336,0.0
385,19.262628534987698
386,27.74434380684874
387,-18.49743874114339
388,0.0
425,0.0
450,0.0
451,0.0
452,-19.360027367536016
453,0.0
490,0.0
515,0.0
516,0.0
542,0.0
592,0.0
632,33000000.0
686,1.0
687,1.0
688,2.0
2,1, 1,21, 0, 6,10.00,20.00,WinterDesignDay
250,-16.99553242182103
251,33258891.428621367
336,0.0
385,19.262628534987698
386,27.74434380684874
387,-18.49743974459747
388,0.0
425,0.0
450,0.0
451,0.0
452,-19.3600275074699
453,0.0
490,0.0
515,0.0
516,0.0
542,0.0
592,0.0
632,33000000.0
686,1.0
687,1.0
688,2.0
2,1, 1,21, 0, 6,20.00,30.00,WinterDesignDay
250,-16.995532421912934
251,33258891.428620704
336,0.0
385,19.262628534987698
386,27.74434380684874
387,-18.497440734968936
388,0.0
425,0.0
450,0.0
451,0.0
452,-19.360027645579112
453,0.0
490,0.0
515,0.0
516,0.0
542,0.0
592,0.0
632,33000000.0
686,1.0
687,1.0
688,2.0
2,1, 1,21, 0, 6,30.00,40.00,WinterDesignDay
250,-16.99553242200362
251,33258891.428620048
336,0.0
385,19.262628534987698
386,27.74434380684874
387,-18.497441712428675
388,0.0
425,0.0
450,0.0
451,0.0
452,-19.36002778188744
453,0.0
490,0.0
515,0.0
516,0.0
542,0.0
592,0.0
632,33000000.0
686,1.0
687,1.0
688,2.0
2,1, 1,21, 0, 6,40.00,50.00,WinterDesignDay
250,-16.995532422093113
251,33258891.428619415
336,0.0
385,19.262628534987698
386,27.74434380684874
387,-18.49744267714489
388,0.0
425,0.0
450,0.0
451,0.0
452,-19.36002791641836
453,0.0
490,0.0
515,0.0
516,0.0
542,0.0
592,0.0
632,33000000.0
686,1.0
687,1.0
688,2.0
2,1, 1,21, 0, 6,50.00,60.00,WinterDesignDay
250,-16.995532422181427
251,33258891.428618778
336,0.0
385,19.262628534987698
386,27.74434380684874
387,-18.497443629283467
388,0.0
425,0.0
450,0.0
451,0.0
452,-19.360028049195062
453,0.0
490,0.0
515,0.0
516,0.0
542,0.0
592,0.0
632,33000000.0
686,1.0
687,1.0
688,2.0
2,1, 1,21, 0, 7, 0.00,10.00,WinterDesignDay
250,-16.99553242226857
251,33258891.428618148
336,0.0
385,19.262628534987698
386,27.74434380684874
387,-18.497444569008422
388,0.0
425,0.0
450,0.0
451,0.0
452,-19.36002818024042
453,0.0
490,0.0
515,0.0
516,0.0
542,0.0
592,0.0
632,33000000.0
686,1.0
687,1.0
688,2.0
2,1, 1,21, 0, 7,10.00,20.00,WinterDesignDay
250,-16.995532422354557
251,33258891.42861753
336,0.0
385,19.262628534987698
386,27.74434380684874
387,-18.49744549648158
388,0.0
425,0.0
450,0.0
451,0.0
452,-19.36002830957701
453,0.0
490,0.0
515,0.0
516,0.0
542,0.0
592,0.0
632,33000000.0
686,1.0
687,1.0
688,2.0
2,1, 1,21, 0, 7,20.00,30.00,WinterDesignDay
250,-16.995532422439414
251,33258891.428616926
336,0.0
385,19.262628534987698
386,27.74434380684874
387,-18.497446411862843
388,0.0
425,0.0
450,0.0
451,0.0
452,-19.36002843722712
453,0.0
490,0.0
515,0.0
516,0.0
542,0.0
592,0.0
632,33000000.0
686,1.0
687,1.0
688,2.0
2,1, 1,21, 0, 7,30.00,40.00,WinterDesignDay
250,-16.99553242252315
251,33258891.428616323
336,0.0
385,19.262628534987698
386,27.74434380684874
387,-18.497447315309657
388,0.0
425,0.0
450,0.0
451,0.0
452,-19.360028563212733
453,0.0
490,0.0
515,0.0
516,0.0
542,0.0
592,0.0
632,33000000.0
686,1.0
687,1.0
688,2.0
2,1, 1,21, 0, 7,40.00,50.00,WinterDesignDay
250,-16.995532422605777
251,33258891.428615727
336,0.0
385,19.262628534987698
386,27.74434380684874
387,-18.497448206977744
388,0.0
425,0.0
450,0.0
451,0.0
452,-19.36002868755557
453,0.0
490,0.0
515,0.0
516,0.0
542,0.0
592,0.0
632,33000000.0
686,1.0
687,1.0
688,2.0
2,1, 1,21, 0, 7,50.00,60.00,WinterDesignDay
250,-16.995532422687315
251,33258891.42861514
336,0.0
385,19.262628534987698
386,27.74434380684874
387,-18.497449087020712
388,0.0
425,0.0
450,0.0
451,0.0
452,-19.360028810277047
453,0.0
490,0.0
515,0.0
516,0.0
542,0.0
592,0.0
632,33000000.0
686,1.0
687,1.0
688,2.0
2,1, 1,21, 0, 8, 0.00,10.00,WinterDesignDay
250,-16.995532422767777
251,33258891.428614564
336,0.0
385,19.262628534987698
386,27.74434380684874
387,-18.497449955590074
388,0.0
425,0.0
450,0.0
451,0.0
452,-19.360028931398308
453,0.0
490,0.0
515,0.0
516,0.0
542,0.0
592,0.0
632,33000000.0
686,1.0
687,1.0
688,2.0
2,1, 1,21, 0, 8,10.00,20.00,WinterDesignDay
250,-16.995532422847177
251,33258891.428614
336,0.0
385,19.262628534987698
386,27.74434380684874
387,-18.4974508128353
388,0.0
425,0.0
450,0.0
451,0.0
452,-19.360029050940216
453,0.0
490,0.0
515,0.0
516,0.0
542,0.0
592,0.0
632,33000000.0
686,1.0
687,1.0
688,2.0
2,1, 1,21, 0, 8,20.00,30.00,WinterDesignDay
250,-16.995532422925525
251,33258891.42861344
336,0.0
385,19.262628534987698
386,27.74434380684874
387,-18.49745165890425
388,0.0
425,0.0
450,0.0
451,0.0
452,-19.36002916892337
453,0.0
490,0.0
515,0.0
516,0.0
542,0.0
592,0.0
632,33000000.0
686,1.0
687,1.0
688,2.0
2,1, 1,21, 0, 8,30.00,40.00,WinterDesignDay
250,-16.995532423002842
251,33258891.428612884
336,0.0
385,19.262628534987698
386,27.74434380684874
387,-18.497452493942486
388,0.0
425,0.0
450,0.0
451,0.0
452,-19.360029285368093
453,0.0
490,0.0
515,0.0
516,0.0
542,0.0
592,0.0
632,33000000.0
686,1.0
687,1.0
688,2.0
2,1, 1,21, 0, 8,40.00,50.00,WinterDesignDay
250,-16.995532423079144
251,33258891.42861234
336,0.0
385,19.262628534987698
386,27.74434380684874
387,-18.49745331809389
388,0.0
425,0.0
450,0.0
451,0.0
452,-19.360029400294454
453,0.0
490,0.0
515,0.0
516,0.0
542,0.0
592,0.0
632,33000000.0
686,1.0
687,1.0
688,2.0
2,1, 1,21, 0, 8,50.00,60.00,WinterDesignDay
250,-16.995532423154433
251,33258891.428611793
336,0.0
385,19.262628534987698
386,27.74434380684874
387,-18.497454131500334
388,0.0
425,0.0
450,0.0
451,0.0
452,-19.360029513722253
453,0.0
490,0.0
515,0.0
516,0.0
542,0.0
592,0.0
632,33000000.0
686,1.0
687,1.0
688,2.0
2,1, 1,21, 0, 9, 0.00,10.00,WinterDesignDay
250,-16.995532423228727
251,33258891.428611264
336,0.0
385,19.262628534987698
386,27.74434380684874
387,-18.497454934301874
388,0.0
425,0.0
450,0.0
451,0.0
452,-19.36002962567103
453,0.0
490,0.0
515,0.0
516,0.0
542,0.0
592,0.0
632,33000000.0
686,1.0
687,1.0
688,2.0
2,1, 1,21, 0, 9,10.00,20.00,WinterDesignDay
250,-16.99553242330204
251,33258891.428610735
336,0.0
385,19.262628534987698
386,27.74434380684874
387,-18.497455726636833
388,0.0
425,0.0
450,0.0
451,0.0
452,-19.360029736160072
453,0.0
490,0.0
515,0.0
516,0.0
542,0.0
592,0.0
632,33000000.0
686,1.0
687,1.0
688,2.0
2,1, 1,21, 0, 9,20.00,30.00,WinterDesignDay
250,-16.995532423374392
251,33258891.428610217
336,0.0
385,19.262628534987698
386,27.74434380684874
387,-18.4974565086416
388,0.0
425,0.0
450,0.0
451,0.0
452,-19.36002984520842
453,0.0
490,0.0
515,0.0
516,0.0
542,0.0
592,0.0
632,33000000.0
686,1.0
687,1.0
688,2.0
2,1, 1,21, 0, 9,30.00,40.00,WinterDesignDay
250,-16.995532423445784
251,33258891.428609703
336,0.0
385,19.262628534987698
386,27.74434380684874
387,-18.497457280450853
388,0.0
425,0.0
450,0.0
451,0.0
452,-19.360029952834854
453,0.0
490,0.0
515,0.0
516,0.0
542,0.0
592,0.0
632,33000000.0
686,1.0
687,1.0
688,2.0
2,1, 1,21, 0, 9,40.00,50.00,WinterDesignDay
250,-16.995532423516238
251,33258891.428609204
336,0.0
385,19.262628534987698
386,27.74434380684874
387,-18.497458042197476
388,0.0
425,0.0
450,0.0
451,0.0
452,-19.360030059057912
453,0.0
490,0.0
515,0.0
516,0.0
542,0.0
592,0.0
632,33000000.0
686,1.0
687,1.0
688,2.0
2,1, 1,21, 0, 9,50.00,60.00,WinterDesignDay
250,-16.995532423585765
251,33258891.428608708
336,0.0
385,19.262628534987698
386,27.74434380684874
387,-18.497458794012683
388,0.0
425,0.0
450,0.0
451,0.0
452,-19.360030163895903
453,0.0
490,0.0
515,0.0
516,0.0
542,0.0
592,0.0
632,33000000.0
686,1.0
687,1.0
688,2.0
2,1, 1,21, 0,10, 0.00,10.00,WinterDesignDay
250,-16.99553242365437
251,33258891.42860821
336,0.0
385,19.262628534987698
386,27.74434380684874
387,-18.497459536026064
388,0.0
425,0.0
450,0.0
451,0.0
452,-19.360030267366888
453,0.0
490,0.0
515,0.0
516,0.0
542,0.0
592,0.0
632,33000000.0
686,1.0
687,1.0
688,2.0
2,1, 1,21, 0,10,10.00,20.00,WinterDesignDay
250,-16.995532423722075
251,33258891.428607725
336,0.0
385,19.262628534987698
386,27.74434380684874
387,-18.49746026836542
388,0.0
425,0.0
450,0.0
451,0.0
452,-19.360030369488694
453,0.0
490,0.0
515,0.0
516,0.0
542,0.0
592,0.0
632,33000000.0
686,1.0
687,1.0
688,2.0
2,1, 1,21, 0,10,20.00,30.00,WinterDesignDay
250,-16.995532423788884
251,33258891.428607248
336,0.0
385,19.262628534987698
386,27.74434380684874
387,-18.497460991156878
388,0.0
425,0.0
450,0.0
451,0.0
452,-19.360030470278904
453,0.0
490,0.0
515,0.0
516,0.0
542,0.0
592,0.0
632,33000000.0
686,1.0
687,1.0
688,2.0
2,1, 1,21, 0,10,30.00,40.00,WinterDesignDay
250,-16.99553242385481
251,33258891.42860678
336,0.0
385,19.262628534987698
386,27.74434380684874
387,-18.49746170452484
388,0.0
425,0.0
450,0.0
451,0.0
452,-19.36003056975489
453,0.0
490,0.0
515,0.0
516,0.0
542,0.0
592,0.0
632,33000000.0
686,1.0
687,1.0
688,2.0
2,1, 1,21, 0,10,40.00,50.00,WinterDesignDay
250,-16.995532423919876
251,33258891.428606313
336,0.0
385,19.262628534987698
386,27.74434380684874
387,-18.497462408592035
388,0.0
425,0.0
450,0.0
451,0.0
452,-19.360030667933792
453,0.0
490,0.0
515,0.0
516,0.0
542,0.0
592,0.0
632,33000000.0
686,1.0
687,1.0
688,2.0
2,1, 1,21, 0,10,50.00,60.00,WinterDesignDay
250,-16.995532423984077
251,33258891.42860585
336,0.0
385,19.262628534987698
386,27.74434380684874
387,-18.497463103479834
388,0.0
425,0.0
450,0.0
451,0.0
452,-19.360030764832523
453,0.0
490,0.0
515,0.0
516,0.0
542,0.0
592,0.0
632,33000000.0
686,1.0
687,1.0
688,2.0
2,1, 1,21, 0,11, 0.00,10.00,WinterDesignDay
250,-16.995532424047433
251,33258891.428605396
336,0.0
385,19.262628534987698
386,27.74434380684874
387,-18.49746378930793
388,0.0
425,0.0
450,0.0
451,0.0
452,-19.36003086046778
453,0.0
490,0.0
515,0.0
516,0.0
542,0.0
592,0.0
632,33000000.0
686,1.0
687,1.0
688,2.0
2,1, 1,21, 0,11,10.00,20.00,WinterDesignDay
250,-16.995532424109957
251,33258891.42860495
336,0.0
385,19.262628534987698
386,27.74434380684874
387,-18.497464466194497
388,0.0
425,0.0
450,0.0
451,0.0
452,-19.360030954856033
453,0.0
490,0.0
515,0.0
516,0.0
542,0.0
592,0.0
632,33000000.0
686,1.0
687,1.0
688,2.0
2,1, 1,21, 0,11,20.00,30.00,WinterDesignDay
250,-16.995532424171653
251,33258891.428604506
336,0.0
385,19.262628534987698
386,27.74434380684874
387,-18.497465134256142
388,0.0
425,0.0
450,0.0
451,0.0
452,-19.360031048013546
453,0.0
490,0.0
515,0.0
516,0.0
542,0.0
592,0.0
632,33000000.0
686,1.0
687,1.0
688,2.0
2,1, 1,21, 0,11,30.00,40.00,WinterDesignDay
250,-16.99553242423254
251,33258891.42860407
336,0.0
385,19.262628534987698
386,27.74434380684874
387,-18.497465793607823
388,0.0
425,0.0
450,0.0
451,0.0
452,-19.360031139956366
453,0.0
490,0.0
515,0.0
516,0.0
542,0.0
592,0.0
632,33000000.0
686,1.0
687,1.0
688,2.0
2,1, 1,21, 0,11,40.00,50.00,WinterDesignDay
250,-16.995532424292623
251,33258891.42860364
336,0.0
385,19.262628534987698
386,27.74434380684874
387,-18.49746644436306
388,0.0
425,0.0
450,0.0
451,0.0
452,-19.360031230700333
453,0.0
490,0.0
515,0.0
516,0.0
542,0.0
592,0.0
632,33000000.0
686,1.0
687,1.0
688,2.0
2,1, 1,21, 0,11,50.00,60.00,WinterDesignDay
250,-16.995532424351918
251,33258891.428603217
336,0.0
385,19.262628534987698
386,27.74434380684874
387,-18.497467086633964
388,0.0
425,0.0
450,0.0
451,0.0
452,-19.360031320261083
453,0.0
490,0.0
515,0.0
516,0.0
542,0.0
592,0.0
632,33000000.0
686,1.0
687,1.0
688,2.0
2,1, 1,21, 0,12, 0.00,10.00,WinterDesignDay
250,-16.995532424410428
251,33258891.4286028
336,0.0
385,19.262628534987698
386,27.74434380684874
387,-18.497467720530985
388,0.0
425,0.0
450,0.0
451,0.0
452,-19.360031408654045
453,0.0
490,0.0
515,0.0
516,0.0
542,0.0
592,0.0
632,33000000.0
686,1.0
687,1.0
688,2.0
2,1, 1,21, 0,12,10.00,20.00,WinterDesignDay
250,-16.99553242446817
251,33258891.42860239
336,0.0
385,19.262628534987698
386,27.74434380684874
387,-18.497468346163398
388,0.0
425,0.0
450,0.0
451,0.0
452,-19.360031495894447
453,0.0
490,0.0
515,0.0
516,0.0
542,0.0
592,0.0
632,33000000.0
686,1.0
687,1.0
688,2.0
2,1, 1,21, 0,12,20.00,30.00,WinterDesignDay
250,-16.995532424525145
251,33258891.428601973
336,0.0
385,19.262628534987698
386,27.74434380684874
387,-18.497468963639207
388,0.0
425,0.0
450,0.0
451,0.0
452,-19.360031581997315
453,0.0
490,0.0
515,0.0
516,0.0
542,0.0
592,0.0
632,33000000.0
686,1.0
687,1.0
688,2.0
2,1, 1,21, 0,12,30.00,40.00,WinterDesignDay
250,-16.99553242458138
251,33258891.428601578
336,0.0
385,19.262628534987698
386,27.74434380684874
387,-18.497469573064553
388,0.0
425,0.0
450,0.0
451,0.0
452,-19.36003166697748
453,0.0
490,0.0
515,0.0
516,0.0
542,0.0
592,0.0
632,33000000.0
686,1.0
687,1.0
688,2.0
2,1, 1,21, 0,12,40.00,50.00,WinterDesignDay
250,-16.99553242463687
251,33258891.42860118
336,0.0
385,19.262628534987698
386,27.74434380684874
387,-18.49747017454442
388,0.0
425,0.0
450,0.0
451,0.0
452,-19.360031750849586
453,0.0
490,0.0
515,0.0
516,0.0
542,0.0
592,0.0
632,33000000.0
686,1.0
687,1.0
688,2.0
2,1, 1,21, 0,12,50.00,60.00,WinterDesignDay
250,-16.99553242469163
251,33258891.428600784
336,0.0
385,19.262628534987698
386,27.74434380684874
387,-18.4974707681825
388,0.0
425,0.0
450,0.0
451,0.0
452,-19.36003183362808
453,0.0
490,0.0
515,0.0
516,0.0
542,0.0
592,0.0
632,33000000.0
686,1.0
687,1.0
688,2.0
2,1, 1,21, 0,13, 0.00,10.00,WinterDesignDay
250,-16.995532424745665
251,33258891.428600404
336,0.0
385,19.262628534987698
386,27.74434380684874
387,-18.49747135408087
388,0.0
425,0.0
450,0.0
451,0.0
452,-19.360031915327234
453,0.0
490,0.0
515,0.0
516,0.0
542,0.0
592,0.0
632,33000000.0
686,1.0
687,1.0
688,2.0
2,1, 1,21, 0,13,10.00,20.00,WinterDesignDay
250,-16.995532424798988
251,33258891.428600013
336,0.0
385,19.262628534987698
386,27.74434380684874
387,-18.49747193234036
388,0.0
425,0.0
450,0.0
451,0.0
452,-19.360031995961112
453,0.0
490,0.0
515,0.0
516,0.0
542,0.0
592,0.0
632,33000000.0
686,1.0
687,1.0
688,2.0
2,1, 1,21, 0,13,20.00,30.00,WinterDesignDay
250,-16.995532424851618
251,33258891.428599644
336,0.0
385,19.262628534987698
386,27.74434380684874
387,-18.4974725030606
388,0.0
425,0.0
450,0.0
451,0.0
452,-19.360032075543607
453,0.0
490,0.0
515,0.0
516,0.0
542,0.0
592,0.0
632,33000000.0
686,1.0
687,1.0
688,2.0
2,1, 1,21, 0,13,30.00,40.00,WinterDesignDay
250,-16.995532424903555
251,33258891.428599276
336,0.0
385,19.262628534987698
386,27.74434380684874
387,-18.497473066339985
388,0.0
425,0.0
450,0.0
451,0.0
452,-19.360032154088422
453,0.0
490,0.0
515,0.0
516,0.0
542,0.0
592,0.0
632,33000000.0
686,1.0
687,1.0
688,2.0
2,1, 1,21, 0,13,40.00,50.00,WinterDesignDay
250,-16.995532424954796
251,33258891.428598903
336,0.0
385,19.262628534987698
386,27.74434380684874
387,-18.49747362227547
388,0.0
425,0.0
450,0.0
451,0.0
452,-19.360032231609093
453,0.0
490,0.0
515,0.0
516,0.0
542,0.0
592,0.0
632,33000000.0
686,1.0
687,1.0
688,2.0
2,1, 1,21, 0,13,50.00,60.00,WinterDesignDay
250,-16.995532425005372
251,33258891.42859854
336,0.0
385,19.262628534987698
386,27.74434380684874
387,-18.497474170962843
388,0.0
425,0.0
450,0.0
451,0.0
452,-19.360032308118974
453,0.0
490,0.0
515,0.0
516,0.0
542,0.0
592,0.0
632,33000000.0
686,1.0
687,1.0
688,2.0
2,1, 1,21, 0,14, 0.00,10.00,WinterDesignDay
250,-16.995532425055284
251,33258891.428598184
336,0.0
385,19.262628534987698
386,27.74434380684874
387,-18.497474712496548
388,0.0
425,0.0
450,0.0
451,0.0
452,-19.360032383631253
453,0.0
490,0.0
515,0.0
516,0.0
542,0.0
592,0.0
632,33000000.0
686,1.0
687,1.0
688,2.0
2,1, 1,21, 0,14,10.00,20.00,WinterDesignDay
250,-16.995532425104535
251,33258891.428597838
336,0.0
385,19.262628534987698
386,27.74434380684874
387,-18.497475246969902
388,0.0
425,0.0
450,0.0
451,0.0
452,-19.360032458158933
453,0.0
490,0.0
515,0.0
516,0.0
542,0.0
592,0.0
632,33000000.0
686,1.0
687,1.0
688,2.0
2,1, 1,21, 0,14,20.00,30.00,WinterDesignDay
250,-16.99553242515314
251,33258891.428597484
336,0.0
385,19.262628534987698
386,27.74434380684874
387,-18.497475774474992
388,0.0
425,0.0
450,0.0
451,0.0
452,-19.360032531714847
453,0.0
490,0.0
515,0.0
516,0.0
542,0.0
592,0.0
632,33000000.0
686,1.0
687,1.0
688,2.0
2,1, 1,21, 0,14,30.00,40.00,WinterDesignDay
250,-16.995532425201105
251,33258891.428597145
336,0.0
385,19.262628534987698
386,27.74434380684874
387,-18.497476295102658
388,0.0
425,0.0
450,0.0
451,0.0
452,-19.36003260431167
453,0.0
490,0.0
515,0.0
516,0.0
542,0.0
592,0.0
632,33000000.0
686,1.0
687,1.0
688,2.0
2,1, 1,21, 0,14,40.00,50.00,WinterDesignDay
250,-16.995532425248438
251,33258891.428596802
336,0.0
385,19.262628534987698
386,27.74434380684874
387,-18.4974768089426
388,0.0
425,0.0
450,0.0
451,0.0
452,-19.36003267596191
453,0.0
490,0.0
515,0.0
516,0.0
542,0.0
592,0.0
632,33000000.0
686,1.0
687,1.0
688,2.0
2,1, 1,21, 0,14,50.00,60.00,WinterDesignDay
250,-16.995532425295153
251,33258891.428596478
336,0.0
385,19.262628534987698
386,27.74434380684874
387,-18.497477316083256
388,0.0
425,0.0
450,0.0
451,0.0
452,-19.360032746677913
453,0.0
490,0.0
515,0.0
516,0.0
542,0.0
592,0.0
632,33000000.0
686,1.0
687,1.0
688,2.0
2,1, 1,21, 0,15, 0.00,10.00,WinterDesignDay
250,-16.99553242534125
251,33258891.428596146
336,0.0
385,19.262628534987698
386,27.74434380684874
387,-18.497477816611813
388,0.0
425,0.0
450,0.0
451,0.0
452,-19.36003281647186
453,0.0
490,0.0
515,0.0
516,0.0
542,0.0
592,0.0
632,33000000.0
686,1.0
687,1.0
688,2.0
2,1, 1,21, 0,15,10.00,20.00,WinterDesignDay
250,-16.99553242538674
251,33258891.42859582
336,0.0
385,19.262628534987698
386,27.74434380684874
387,-18.497478310614543
388,0.0
425,0.0
450,0.0
451,0.0
452,-19.36003288535578
453,0.0
490,0.0
515,0.0
516,0.0
542,0.0
592,0.0
632,33000000.0
686,1.0
687,1.0
688,2.0
2,1, 1,21, 0,15,20.00,30.00,WinterDesignDay
250,-16.99553242543163
251,33258891.428595494
336,0.0
385,19.262628534987698
386,27.74434380684874
387,-18.497478798176644
388,0.0
425,0.0
450,0.0
451,0.0
452,-19.360032953341523
453,0.0
490,0.0
515,0.0
516,0.0
542,0.0
592,0.0
632,33000000.0
686,1.0
687,1.0
688,2.0
2,1, 1,21, 0,15,30.00,40.00,WinterDesignDay
250,-16.99553242547594
251,33258891.428595185
336,0.0
385,19.262628534987698
386,27.74434380684874
387,-18.497479279381878
388,0.0
425,0.0
450,0.0
451,0.0
452,-19.360033020440813
453,0.0
490,0.0
515,0.0
516,0.0
542,0.0
592,0.0
632,33000000.0
686,1.0
687,1.0
688,2.0
2,1, 1,21, 0,15,40.00,50.00,WinterDesignDay
250,-16.99553242551966
251,33258891.42859487
336,0.0
385,19.262628534987698
386,27.74434380684874
387,-18.497479754313364
388,0.0
425,0.0
450,0.0
451,0.0
452,-19.360033086665204
453,0.0
490,0.0
515,0.0
516,0.0
542,0.0
592,0.0
632,33000000.0
686,1.0
687,1.0
688,2.0