Program Version,EnergyPlus, Version 24.2.0-94a887817b, YMD=2025.01.30 19:35
1,5,Environment Title[],Latitude[deg],Longitude[deg],Time Zone[],Elevation[m]
2,8,Day of Simulation[],Month[],Day of Month[],DST Indicator[1=yes 0=no],Hour[],StartMinute[],EndMinute[],DayType
3,5,Cumulative Day of Simulation[],Month[],Day of Month[],DST Indicator[1=yes 0=no],DayType  ! When Daily Meters Requested
4,2,Cumulative Days of Simulation[],Month[]  ! When Monthly Meters Requested
5,1,Cumulative Days of Simulation[] ! When Run Period Meters Requested
6,1,Calendar Year of Simulation[] ! When Annual Meters Requested
11,9,Electricity:Facility [J] !Monthly [Value,Min,Day,Hour,Minute,Max,Day,Hour,Minute]
23,9,Electricity:Building [J] !Monthly [Value,Min,Day,Hour,Minute,Max,Day,Hour,Minute]
59,9,InteriorLights:Electricity [J] !Monthly [Value,Min,Day,Hour,Minute,Max,Day,Hour,Minute]
521,9,Electricity:HVAC [J] !Monthly [Value,Min,Day,Hour,Minute,Max,Day,Hour,Minute]
637,9,NaturalGas:Facility [J] !Monthly [Value,Min,Day,Hour,Minute,Max,Day,Hour,Minute]
649,9,NaturalGas:HVAC [J] !Monthly [Value,Min,Day,Hour,Minute,Max,Day,Hour,Minute]
13,11,Electricity:Facility [J] !RunPeriod [Value,Min,Month,Day,Hour,Minute,Max,Month,Day,Hour,Minute]
25,11,Electricity:Building [J] !RunPeriod [Value,Min,Month,Day,Hour,Minute,Max,Month,Day,Hour,Minute]
61,11,InteriorLights:Electricity [J] !RunPeriod [Value,Min,Month,Day,Hour,Minute,Max,Month,Day,Hour,Minute]
523,11,Electricity:HVAC [J] !RunPeriod [Value,Min,Month,Day,Hour,Minute,Max,Month,Day,Hour,Minute]
639,11,NaturalGas:Facility [J] !RunPeriod [Value,Min,Month,Day,Hour,Minute,Max,Month,Day,Hour,Minute]
651,11,NaturalGas:HVAC [J] !RunPeriod [Value,Min,Month,Day,Hour,Minute,Max,Month,Day,Hour,Minute]
End of Data Dictionary
1,RUN PERIOD 1,  41.98, -87.92,  -6.00, 201.00
4,31, 1
11,9824929714.927183,408891.4285714286, 5, 6,50,2980835.278691704,16,13,60
23,985879613.6961745,30000.0, 1, 1,10,611362.0389102793, 1, 9,10
59,970200000.0,30000.0, 1, 1,10,600000.0, 1, 8,10
521,8839050101.230986,378891.4285714286, 5, 6,50,2369473.239781425,16,13,60
637,179001387511.90808,28245599.28858021,21,16,10,41250000.0, 1, 1,10
649,179001387511.90808,28245599.28858021,21,16,10,41250000.0, 1, 1,10
4,59, 2
11,9358170567.756193,99999999999999.0, 5, 6,50,3022296.7189548262,22,15,30
23,861794446.692326,99999999999999.0, 1, 1,10,-99999999999999.0, 1, 9,10
59,848160000.0,99999999999999.0, 1, 1,10,-99999999999999.0, 1, 8,10
521,8496376121.063895,99999999999999.0, 5, 6,50,2410934.680044547,22,15,30
637,158382955921.4763,26557303.88727376,23,12,10,-99999999999999.0, 1, 1,10
649,158382955921.4763,26557303.88727376,23,12,10,-99999999999999.0, 1, 1,10
4,90, 3
11,10940300057.834036,311362.03891027934,27,18,10,3132742.6342876498,27,13,30
23,911796169.0269421,99999999999999.0, 1, 1,10,-99999999999999.0, 1, 9,10
59,897480000.0,99999999999999.0, 1, 1,10,-99999999999999.0, 1, 8,10
521,10028503888.807106,0.0,27,13,50,2521380.5953773702,27,13,30
637,162170184918.53027,0.0,27,13,50,-99999999999999.0, 1, 1,10
649,162170184918.53027,0.0,27,13,50,-99999999999999.0, 1, 1,10
4,120, 4
11,9304750399.808434,30000.0,11,19,10,-99999999999999.0,27,13,30
23,944517891.3615583,99999999999999.0, 1, 1,10,-99999999999999.0, 1, 9,10
59,929520000.0,99999999999999.0, 1, 1,10,-99999999999999.0, 1, 8,10
521,8360232508.446915,99999999999999.0,27,13,50,2522155.340545382,14,10,50
637,117810058655.18755,99999999999999.0,27,13,50,-99999999999999.0, 1, 1,10
649,117810058655.18755,99999999999999.0,27,13,50,-99999999999999.0, 1, 1,10
4,151, 5
11,8310172447.048082,99999999999999.0,11,19,10,3138643.6456284467, 3, 9,40
23,986141057.9430497,99999999999999.0, 1, 1,10,627272.7624263,28,13,10
59,970200000.0,99999999999999.0, 1, 1,10,-99999999999999.0, 1, 8,10
521,7324031389.1051445,99999999999999.0,27,13,50,2530905.3969427515,19,13,50
637,85747894374.12352,99999999999999.0,27,13,50,-99999999999999.0, 1, 1,10
649,85747894374.12352,99999999999999.0,27,13,50,-99999999999999.0, 1, 1,10
4,181, 6
11,5864377990.455592,99999999999999.0,11,19,10,3149763.837712043,18,16,50
23,870473692.3248575,99999999999999.0, 1, 1,10,-99999999999999.0,28,13,10
59,856800000.0,99999999999999.0, 1, 1,10,-99999999999999.0, 1, 8,10
521,4993904298.130749,99999999999999.0,27,13,50,2539135.8900305335, 4, 3,30
637,32227373410.46796,99999999999999.0,27,13,50,-99999999999999.0, 1, 1,10
649,32227373410.46796,99999999999999.0,27,13,50,-99999999999999.0, 1, 1,10
4,212, 7
11,5709875169.708572,99999999999999.0,11,19,10,3149912.514190018, 1,13,50
23,986137796.9250158,99999999999999.0, 1, 1,10,-99999999999999.0,28,13,10
59,970200000.0,99999999999999.0, 1, 1,10,-99999999999999.0, 1, 8,10
521,4723737372.783541,99999999999999.0,27,13,50,-99999999999999.0, 4, 3,30
637,8934143597.742348,99999999999999.0,27,13,50,-99999999999999.0, 1, 1,10
649,8934143597.742348,99999999999999.0,27,13,50,-99999999999999.0, 1, 1,10
4,243, 8
11,4329854454.675225,99999999999999.0,11,19,10,-99999999999999.0, 1,13,50
23,949116143.4460472,99999999999999.0, 1, 1,10,627375.634820533,12,14,10
59,933840000.0,99999999999999.0, 1, 1,10,-99999999999999.0, 1, 8,10
521,3380738311.2290864,99999999999999.0,27,13,50,-99999999999999.0, 4, 3,30
637,16481295068.210665,99999999999999.0,27,13,50,-99999999999999.0, 1, 1,10
649,16481295068.210665,99999999999999.0,27,13,50,-99999999999999.0, 1, 1,10
4,273, 9
11,5841465361.738604,99999999999999.0,11,19,10,3154870.134112562,25,12,60
23,907476169.0269421,99999999999999.0, 1, 1,10,-99999999999999.0,12,14,10
59,893160000.0,99999999999999.0, 1, 1,10,-99999999999999.0, 1, 8,10
521,4933989192.711608,99999999999999.0,27,13,50,2543881.0443907757,29,15,60
637,51237294140.42725,99999999999999.0,27,13,50,-99999999999999.0, 1, 1,10
649,51237294140.42725,99999999999999.0,27,13,50,-99999999999999.0, 1, 1,10
4,304,10
11,10215265131.081257,99999999999999.0,11,19,10,-99999999999999.0,25,12,60
23,985879613.6961745,99999999999999.0, 1, 1,10,-99999999999999.0,12,14,10
59,970200000.0,99999999999999.0, 1, 1,10,-99999999999999.0, 1, 8,10
521,9229385517.385107,99999999999999.0,27,13,50,-99999999999999.0,29,15,60
637,125310073136.82893,99999999999999.0,27,13,50,-99999999999999.0, 1, 1,10
649,125310073136.82893,99999999999999.0,27,13,50,-99999999999999.0, 1, 1,10
4,334,11
11,10296090269.965094,99999999999999.0,11,19,10,-99999999999999.0,25,12,60
23,907476169.0269421,99999999999999.0, 1, 1,10,-99999999999999.0,12,14,10
59,893160000.0,99999999999999.0, 1, 1,10,-99999999999999.0, 1, 8,10
521,9388614100.938156,99999999999999.0,27,13,50,-99999999999999.0,29,15,60
637,146123250694.90305,99999999999999.0,27,13,50,-99999999999999.0, 1, 1,10
649,146123250694.90305,99999999999999.0,27,13,50,-99999999999999.0, 1, 1,10
4,365,12
11,10437788511.745363,99999999999999.0,11,19,10,-99999999999999.0,25,12,60
23,948837891.3615583,99999999999999.0, 1, 1,10,-99999999999999.0,12,14,10
59,933840000.0,99999999999999.0, 1, 1,10,-99999999999999.0, 1, 8,10
521,9488950620.383821,99999999999999.0,27,13,50,-99999999999999.0,29,15,60
637,179837888830.02332,99999999999999.0,27,13,50,-99999999999999.0, 1, 1,10
649,179837888830.02332,99999999999999.0,27,13,50,-99999999999999.0, 1, 1,10
5,365
13,100433040076.747,30000.0, 4,11,19,10,3154870.134112562, 9,25,12,60
25,11245526654.524647,30000.0, 1, 1, 1,10,627375.634820533, 8,12,14,10
61,11066760000.0,30000.0, 1, 1, 1,10,600000.0, 1, 1, 8,10
523,89187513422.22052,0.0, 3,27,13,50,2543881.0443907757, 9,29,15,60
639,1263263800259.8406,0.0, 3,27,13,50,41250000.0, 1, 1, 1,10
651,1263263800259.8406,0.0, 3,27,13,50,41250000.0, 1, 1, 1,10
1,RUN PERIOD 2,  41.98, -87.92,  -6.00, 201.00
4,1, 7
11,117692391.45895499,99999999999999.0,11,19,10,-99999999999999.0,25,12,60
23,41361722.33461677,99999999999999.0, 1, 1,10,-99999999999999.0,12,14,10
59,40680000.0,99999999999999.0, 1, 1,10,-99999999999999.0, 1, 8,10
521,76330669.12433825,99999999999999.0,27,13,50,-99999999999999.0,29,15,60
637,0.0,99999999999999.0,27,13,50,-99999999999999.0, 1, 1,10
649,0.0,99999999999999.0,27,13,50,-99999999999999.0, 1, 1,10
5,1
13,117692391.45895499,99999999999999.0, 4,11,19,10,-99999999999999.0, 9,25,12,60
25,41361722.33461677,99999999999999.0, 1, 1, 1,10,-99999999999999.0, 8,12,14,10
61,40680000.0,99999999999999.0, 1, 1, 1,10,-99999999999999.0, 1, 1, 8,10
523,76330669.12433825,99999999999999.0, 3,27,13,50,-99999999999999.0, 9,29,15,60
639,0.0,99999999999999.0, 3,27,13,50,-99999999999999.0, 1, 1, 1,10
651,0.0,99999999999999.0, 3,27,13,50,-99999999999999.0, 1, 1, 1,10
End of Data
 Number of Records Written=          90
