Program Version,EnergyPlus, Version 24.2.0-94a887817b, YMD=2025.02.04 15:40
1,5,Environment Title[],Latitude[deg],Longitude[deg],Time Zone[],Elevation[m]
2,8,Day of Simulation[],Month[],Day of Month[],DST Indicator[1=yes 0=no],Hour[],StartMinute[],EndMinute[],DayType
3,5,Cumulative Day of Simulation[],Month[],Day of Month[],DST Indicator[1=yes 0=no],DayType  ! When Daily Report Variables Requested
4,2,Cumulative Days of Simulation[],Month[]  ! When Monthly Report Variables Requested
5,1,Cumulative Days of Simulation[] ! When Run Period Report Variables Requested
6,1,Calendar Year of Simulation[] ! When Annual Report Variables Requested
250,1,LIVING ZONE,Zone Air Temperature [C] !TimeStep,REPORTSCH
251,1,LIVING ZONE,Zone Air System Sensible Heating Energy [J] !TimeStep,REPORTSCH
336,1,LIVING ZONE,Zone Air System Sensible Cooling Energy [J] !TimeStep,REPORTSCH
385,1,LIVING ZONE,Zone Thermostat Heating Setpoint Temperature [C] !TimeStep,REPORTSCH
386,1,LIVING ZONE,Zone Thermostat Cooling Setpoint Temperature [C] !TimeStep,REPORTSCH
387,1,GARAGE ZONE,Zone Air Temperature [C] !TimeStep,REPORTSCH
388,1,GARAGE ZONE,Zone Air System Sensible Heating Energy [J] !TimeStep,REPORTSCH
425,1,GARAGE ZONE,Zone Air System Sensible Cooling Energy [J] !TimeStep,REPORTSCH
450,1,GARAGE ZONE,Zone Thermostat Heating Setpoint Temperature [C] !TimeStep,REPORTSCH
451,1,GARAGE ZONE,Zone Thermostat Cooling Setpoint Temperature [C] !TimeStep,REPORTSCH
452,1,ATTIC ZONE,Zone Air Temperature [C] !TimeStep,REPORTSCH
453,1,ATTIC ZONE,Zone Air System Sensible Heating Energy [J] !TimeStep,REPORTSCH
490,1,ATTIC ZONE,Zone Air System Sensible Cooling Energy [J] !TimeStep,REPORTSCH
515,1,ATTIC ZONE,Zone Thermostat Heating Setpoint Temperature [C] !TimeStep,REPORTSCH
516,1,ATTIC ZONE,Zone Thermostat Cooling Setpoint Temperature [C] !TimeStep,REPORTSCH
542,1,ACDXCOIL 1,Cooling Coil Total Cooling Energy [J] !TimeStep,REPORTSCH
592,1,HEAT PUMP DX HEATING COIL 1,Heating Coil Heating Energy [J] !TimeStep,REPORTSCH
632,1,SUPP HEATING COIL 1,Heating Coil Heating Energy [J] !TimeStep,REPORTSCH
686,1,TWOSPEED HEAT PUMP 1,Unitary System DX Coil Cycling Ratio [] !TimeStep,REPORTSCH
687,1,TWOSPEED HEAT PUMP 1,Unitary System DX Coil Speed Ratio [] !TimeStep,REPORTSCH
688,1,TWOSPEED HEAT PUMP 1,Unitary System DX Coil Speed Level [] !TimeStep,REPORTSCH
End of Data Dictionary
1,RUN PERIOD 1,  41.98, -87.92,  -6.00, 201.00
2,21, 1,21, 0, 1, 0.00,10.00,Monday
250,1.3450421593717006
251,36956291.98262926
336,0.0
385,22.97945854069897
386,28.79005174568412
387,-0.9004936274807761
388,0.0
425,0.0
450,0.0
451,0.0
452,-1.9255902349239118
453,0.0
490,0.0
515,0.0
516,0.0
542,0.0
592,4839743.9850796405
632,31862630.94070559
686,1.0
687,1.0
688,2.0
2,21, 1,21, 0, 1,10.00,20.00,Monday
250,1.345565002115082
251,36957465.292486325
336,0.0
385,22.97945854069897
386,28.79005174568412
387,-0.9089757635093222
388,0.0
425,0.0
450,0.0
451,0.0
452,-1.9076025847535718
453,0.0
490,0.0
515,0.0
516,0.0
542,0.0
592,4823801.676011796
632,31875053.640114345
686,1.0
687,1.0
688,2.0
2,21, 1,21, 0, 1,20.00,30.00,Monday
250,1.3446327484129665
251,36959615.297089845
336,0.0
385,22.97945854069897
386,28.79005174568412
387,-0.918654659470604
388,0.0
425,0.0
450,0.0
451,0.0
452,-1.9043754842834115
453,0.0
490,0.0
515,0.0
516,0.0
542,0.0
592,4807858.162905221
632,31892363.840433985
686,1.0
687,1.0
688,2.0
2,21, 1,21, 0, 1,30.00,40.00,Monday
250,1.3440827840767973
251,36961511.44169192
336,0.0
385,22.97945854069897
386,28.79005174568412
387,-0.9297367387634721
388,0.0
425,0.0
450,0.0
451,0.0
452,-1.9170522186316952
453,0.0
490,0.0
515,0.0
516,0.0
542,0.0
592,4791913.445623511
632,31910410.489403088
686,1.0
687,1.0
688,2.0
2,21, 1,21, 0, 1,40.00,50.00,Monday
250,1.3435424775438267
251,36963402.70166204
336,0.0
385,22.97945854069897
386,28.79005174568412
387,-0.942380590655696
388,0.0
425,0.0
450,0.0
451,0.0
452,-1.944052503142305
453,0.0
490,0.0
515,0.0
516,0.0
542,0.0
592,4775967.524030241
632,31928252.857734475
686,1.0
687,1.0
688,2.0
2,21, 1,21, 0, 1,50.00,60.00,Monday
250,1.3429681826310467
251,36965317.07124877
336,0.0
385,22.97945854069897
386,28.79005174568412
387,-0.9567753660269568
388,0.0
425,0.0
450,0.0
451,0.0
452,-1.9837945843813953
453,0.0
490,0.0
515,0.0
516,0.0
542,0.0
592,4760020.397988958
632,31946096.041202866
686,1.0
687,1.0
688,2.0
2,21, 1,21, 0, 2, 0.00,10.00,Monday
250,1.3424123305454787
251,36967221.72838748
336,0.0
385,22.97945854069897
386,28.79005174568412
387,-0.9722612470494614
388,0.0
425,0.0
450,0.0
451,0.0
452,-2.0302702597166773
453,0.0
490,0.0
515,0.0
516,0.0
542,0.0
592,4760020.397988958
632,31948010.61506225
686,1.0
687,1.0
688,2.0
2,21, 1,21, 0, 2,10.00,20.00,Monday
250,1.3417822278248868
251,36967712.051198944
336,0.0
385,22.97945854069897
386,28.79005174568412
387,-0.9879202010858215
388,0.0
425,0.0
450,0.0
451,0.0
452,-2.0727955248952576
453,0.0
490,0.0
515,0.0
516,0.0
542,0.0
592,4760020.397988958
632,31948460.95780797
686,1.0
687,1.0
688,2.0
2,21, 1,21, 0, 2,20.00,30.00,Monday
250,1.3411388067432517
251,36968015.12532696
336,0.0
385,22.97945854069897
386,28.79005174568412
387,-1.0032097878499378
388,0.0
425,0.0
450,0.0
451,0.0
452,-2.1041695212239104
453,0.0
490,0.0
515,0.0
516,0.0
542,0.0
592,4760020.397988958
632,31948756.86132406
686,1.0
687,1.0
688,2.0
2,21, 1,21, 0, 2,30.00,40.00,Monday
250,1.3405120333881921
251,36968357.27076616
336,0.0
385,22.97945854069897
386,28.79005174568412
387,-1.0178097031875821
388,0.0
425,0.0
450,0.0
451,0.0
452,-2.123551352726614
453,0.0
490,0.0
515,0.0
516,0.0
542,0.0
592,4760020.397988958
632,31949107.970361967
686,1.0
687,1.0
688,2.0
2,21, 1,21, 0, 2,40.00,50.00,Monday
250,1.33989616843664
251,36968693.41124506
336,0.0
385,22.97945854069897
386,28.79005174568412
387,-1.0315771806769642
388,0.0
425,0.0
450,0.0
451,0.0
452,-2.1337492023699984
453,0.0
490,0.0
515,0.0
516,0.0
542,0.0
592,4760020.397988958
632,31949449.98421649
686,1.0
687,1.0
688,2.0
2,21, 1,21, 0, 2,50.00,60.00,Monday
250,1.3392913894977652
251,36969018.920700975
336,0.0
385,22.97945854069897
386,28.79005174568412
387,-1.0444723439739005
388,0.0
425,0.0
450,0.0
451,0.0
452,-2.1378736477474662
453,0.0
490,0.0
515,0.0
516,0.0
542,0.0
592,4760020.397988958
632,31949781.462720715
686,1.0
687,1.0
688,2.0
2,21, 1,21, 0, 3, 0.00,10.00,Monday
250,1.4140209962727803
251,36928782.02693045
336,0.0
385,22.97945854069897
386,28.79005174568412
387,-1.046137206899531
388,0.0
425,0.0
450,0.0
451,0.0
452,-2.1305146177981973
453,0.0
490,0.0
515,0.0
516,0.0
542,0.0
592,4762558.894114006
632,31947568.402760364
686,1.0
687,1.0
688,2.0
2,21, 1,21, 0, 3,10.00,20.00,Monday
250,1.4963110277998162
251,36885851.75205743
336,0.0
385,22.97945854069897
386,28.79005174568412
387,-1.0353241379417546
388,0.0
425,0.0
450,0.0
451,0.0
452,-2.105806702360894
453,0.0
490,0.0
515,0.0
516,0.0
542,0.0
592,4764988.4357309695
632,31906281.003791254
686,1.0
687,1.0
688,2.0
2,21, 1,21, 0, 3,20.00,30.00,Monday
250,1.57581332584506
251,36844612.327425264
336,0.0
385,22.97945854069897
386,28.79005174568412
387,-1.0164839177857539
388,0.0
425,0.0
450,0.0
451,0.0
452,-2.062235363117388
453,0.0
490,0.0
515,0.0
516,0.0
542,0.0
592,4767308.250738335
632,31861222.53001539
686,1.0
687,1.0
688,2.0
2,21, 1,21, 0, 3,30.00,40.00,Monday
250,1.655719315818573
251,36803116.80674414
336,0.0
385,22.97945854069897
386,28.79005174568412
387,-0.9934128074034754
388,0.0
425,0.0
450,0.0
451,0.0
452,-2.002846679509173
453,0.0
490,0.0
515,0.0
516,0.0
542,0.0
592,4769517.689516205
632,31817736.738828868
686,1.0
687,1.0
688,2.0
2,21, 1,21, 0, 3,40.00,50.00,Monday
250,1.73580716817064
251,36761529.94099662
336,0.0
385,22.97945854069897
386,28.79005174568412
387,-0.9674126146217544
388,0.0
425,0.0
450,0.0
451,0.0
452,-1.932088864802748
453,0.0
490,0.0
515,0.0
516,0.0
542,0.0
592,4771616.115684973
632,31774151.18593433
686,1.0
687,1.0
688,2.0
2,21, 1,21, 0, 3,50.00,60.00,Monday
250,1.8158372379686958
251,36719985.077582695
336,0.0
385,22.97945854069897
386,28.79005174568412
387,-0.9383062536388587
388,0.0
425,0.0
450,0.0
451,0.0
452,-1.8535958904058785
453,0.0
490,0.0
515,0.0
516,0.0
542,0.0
592,4773602.736238396
632,31730590.407577828
686,1.0
687,1.0
688,2.0
2,21, 1,21, 0, 4, 0.00,10.00,Monday
250,1.8208805970786663
251,36718831.97651132
336,0.0
385,22.97945854069897
386,28.79005174568412
387,-0.916614366162969
388,0.0
425,0.0
450,0.0
451,0.0
452,-1.7776226344014918
453,0.0
490,0.0
515,0.0
516,0.0
542,0.0
592,4773428.98237163
632,31689227.738164477
686,1.0
687,1.0
688,2.0
2,21, 1,21, 0, 4,10.00,20.00,Monday
250,1.8184892735811067
251,36720301.386110686
336,0.0
385,22.97945854069897
386,28.79005174568412
387,-0.904800929000286
388,0.0
425,0.0
450,0.0
451,0.0
452,-1.7131563883701817
453,0.0
490,0.0
515,0.0
516,0.0
542,0.0
592,4773255.169447958
632,31686866.900530484
686,1.0
687,1.0
688,2.0
2,21, 1,21, 0, 4,20.00,30.00,Monday
250,1.8190923253859723
251,36719972.829665996
336,0.0
385,22.97945854069897
386,28.79005174568412
387,-0.8992777960199517
388,0.0
425,0.0
450,0.0
451,0.0
452,-1.6638525225764502
453,0.0
490,0.0
515,0.0
516,0.0
542,0.0
592,4773081.297437258
632,31688324.88733422
686,1.0
687,1.0
688,2.0
2,21, 1,21, 0, 4,30.00,40.00,Monday
250,1.8195058650341445
251,36719791.97867006
336,0.0
385,22.97945854069897
386,28.79005174568412
387,-0.8962918693438549
388,0.0
425,0.0
450,0.0
451,0.0
452,-1.628148089435125
453,0.0
490,0.0
515,0.0
516,0.0
542,0.0
592,4772907.366309401
632,31688215.9027655
686,1.0
687,1.0
688,2.0
2,21, 1,21, 0, 4,40.00,50.00,Monday
250,1.8196609630561327
251,36719750.24429473
336,0.0
385,22.97945854069897
386,28.79005174568412
387,-0.8942576963772976
388,0.0
425,0.0
450,0.0
451,0.0
452,-1.602538445912349
453,0.0
490,0.0
515,0.0
516,0.0
542,0.0
592,4772733.376034233
632,31688208.97052378
686,1.0
687,1.0
688,2.0
2,21, 1,21, 0, 4,50.00,60.00,Monday
250,1.8198290772270533
251,36719697.08228473
336,0.0
385,22.97945854069897
386,28.79005174568412
387,-0.8929979739647156
388,0.0
425,0.0
450,0.0
451,0.0
452,-1.5837918258322516
453,0.0
490,0.0
515,0.0
516,0.0
542,0.0
592,4772559.326581575
632,31688336.868140172
686,1.0
687,1.0
688,2.0
2,21, 1,21, 0, 5, 0.00,10.00,Monday
250,1.8199983999168743
251,36719643.20910175
336,0.0
385,22.97945854069897
386,28.79005174568412
387,-0.892526218557921
388,0.0
425,0.0
450,0.0
451,0.0
452,-1.5691720230241006
453,0.0
490,0.0
515,0.0
516,0.0
542,0.0
592,4759720.85868958
632,31701122.11381217
686,1.0
687,1.0
688,2.0
2,21, 1,21, 0, 5,10.00,20.00,Monday
250,1.8202319898372146
251,36720686.660314724
336,0.0
385,22.97945854069897
386,28.79005174568412
387,-0.8927134095311313
388,0.0
425,0.0
450,0.0
451,0.0
452,-1.5564040664927532
453,0.0
490,0.0
515,0.0
516,0.0
542,0.0
592,4746877.262331866
632,31715043.77773437
686,1.0
687,1.0
688,2.0
2,21, 1,21, 0, 5,20.00,30.00,Monday
250,1.820485819933937
251,36721871.11227893
336,0.0
385,22.97945854069897
386,28.79005174568412
387,-0.8933570381923674
388,0.0
425,0.0
450,0.0
451,0.0
452,-1.5441419687740088
453,0.0
490,0.0
515,0.0
516,0.0
542,0.0
592,4734028.534436011
632,31729087.86359409
686,1.0
687,1.0
688,2.0
2,21, 1,21, 0, 5,30.00,40.00,Monday
250,1.8207236427296472
251,36723027.356478505
336,0.0
385,22.97945854069897
386,28.79005174568412
387,-0.8942719139668937
388,0.0
425,0.0
450,0.0
451,0.0
452,-1.5319668617587314
453,0.0
490,0.0
515,0.0
516,0.0
542,0.0
592,4721174.671927155
632,31743089.353159882
686,1.0
687,1.0
688,2.0
2,21, 1,21, 0, 5,40.00,50.00,Monday
250,1.820958904679429
251,36724185.57916052
336,0.0
385,22.97945854069897
386,28.79005174568412
387,-0.8953271277366296
388,0.0
425,0.0
450,0.0
451,0.0
452,-1.5199365740498796
453,0.0
490,0.0
515,0.0
516,0.0
542,0.0
592,4708315.671727969
632,31757105.20114065
686,1.0
687,1.0
688,2.0
2,21, 1,21, 0, 5,50.00,60.00,Monday
250,1.8211952692527362
251,36725347.33811021
336,0.0
385,22.97945854069897
386,28.79005174568412
387,-0.8964417390240824
388,0.0
425,0.0
450,0.0
451,0.0
452,-1.5081933290811695
453,0.0
490,0.0
515,0.0
516,0.0
542,0.0
592,4695451.530758674
632,31771131.69944945
686,1.0
687,1.0
688,2.0
2,21, 1,21, 0, 6, 0.00,10.00,Monday
250,1.8214454149195192
251,36726502.23674495
336,0.0
385,22.97945854069897
386,28.79005174568412
387,-0.8976963021878658
388,0.0
425,0.0
450,0.0
451,0.0
452,-1.49741263582936
453,0.0
490,0.0
515,0.0
516,0.0
542,0.0
592,4695264.08225586
632,31772481.474673275
686,1.0
687,1.0
688,2.0
2,21, 1,21, 0, 6,10.00,20.00,Monday
250,1.8216325368505446
251,36726558.21008397
336,0.0
385,22.97945854069897
386,28.79005174568412
387,-0.8991688554187155
388,0.0
425,0.0
450,0.0
451,0.0
452,-1.488407184237064
453,0.0
490,0.0
515,0.0
516,0.0
542,0.0
592,4695076.569900009
632,31772691.011099935
686,1.0
687,1.0
688,2.0
2,21, 1,21, 0, 6,20.00,30.00,Monday
250,1.8218078289330628
251,36726468.93184528
336,0.0
385,22.97945854069897
386,28.79005174568412
387,-0.9008511102174492
388,0.0
425,0.0
450,0.0
451,0.0
452,-1.4815139074210888
453,0.0
490,0.0
515,0.0
516,0.0
542,0.0
592,4694888.993658494
632,31772782.936572384
686,1.0
687,1.0
688,2.0
2,21, 1,21, 0, 6,30.00,40.00,Monday
250,1.8219968224977177
251,36726409.65282851
336,0.0
385,22.97945854069897
386,28.79005174568412
387,-0.9027004536040567
388,0.0
425,0.0
450,0.0
451,0.0
452,-1.4765256135697187
453,0.0
490,0.0
515,0.0
516,0.0
542,0.0
592,4694701.353498662
632,31772918.678596042
686,1.0
687,1.0
688,2.0
2,21, 1,21, 0, 6,40.00,50.00,Monday
250,1.8221843425002497
251,36726351.08756952
336,0.0
385,22.97945854069897
386,28.79005174568412
387,-0.9046852505697408
388,0.0
425,0.0
450,0.0
451,0.0
452,-1.4729921020189043
453,0.0
490,0.0
515,0.0
516,0.0
542,0.0
592,4694513.649387832
632,31773047.02378008
686,1.0
687,1.0
688,2.0
2,21, 1,21, 0, 6,50.00,60.00,Monday
250,1.822356202704955
251,36726297.34169311
336,0.0
385,22.97945854069897
386,28.79005174568412
387,-0.9067887708337039
388,0.0
425,0.0
450,0.0
451,0.0
452,-1.470494061307659
453,0.0
490,0.0
515,0.0
516,0.0
542,0.0
592,4694325.881293308
632,31773172.61040146
686,1.0
687,1.0
688,2.0
2,21, 1,21, 0, 7, 0.00,10.00,Monday
250,1.8170919880792877
251,36729171.8872226
336,0.0
385,22.97945854069897
386,28.79005174568412
387,-0.9114568991585345
388,0.0
425,0.0
450,0.0
451,0.0
452,-1.4738569685483334
453,0.0
490,0.0
515,0.0
516,0.0
542,0.0
592,4723573.583255435
632,31743871.117146716
686,1.0
687,1.0
688,2.0
2,21, 1,21, 0, 7,10.00,20.00,Monday
250,1.8167306884725705
251,36726791.95968666
336,0.0
385,22.97945854069897
386,28.79005174568412
387,-0.9208389668876616
388,0.0
425,0.0
450,0.0
451,0.0
452,-1.492501242367332
453,0.0
490,0.0
515,0.0
516,0.0
542,0.0
592,4752837.186047653
632,31714868.731702376
686,1.0
687,1.0
688,2.0
2,21, 1,21, 0, 7,20.00,30.00,Monday
250,1.8171214640985165
251,36723657.26899842
336,0.0
385,22.97945854069897
386,28.79005174568412
387,-0.9351147419188109
388,0.0
425,0.0
450,0.0
451,0.0
452,-1.531848584756679
453,0.0
490,0.0
515,0.0
516,0.0
542,0.0
592,4782116.702651945
632,31682859.611584075
686,1.0
687,1.0
688,2.0
2,21, 1,21, 0, 7,30.00,40.00,Monday
250,1.8172931879688714
251,36720725.3692842
336,0.0
385,22.97945854069897
386,28.79005174568412
387,-0.9532903718360911
388,0.0
425,0.0
450,0.0
451,0.0
452,-1.589703753576031
453,0.0
490,0.0
515,0.0
516,0.0
542,0.0
592,4811412.146064445
632,31650514.278877504
686,1.0
687,1.0
688,2.0
2,21, 1,21, 0, 7,40.00,50.00,Monday
250,1.8174655142658527
251,36717791.354262896
336,0.0
385,22.97945854069897
386,28.79005174568412
387,-0.9742946756250129
388,0.0
425,0.0
450,0.0
451,0.0
452,-1.659795697411598
453,0.0
490,0.0
515,0.0
516,0.0
542,0.0
592,4840723.52929546
632,31618269.19788931
686,1.0
687,1.0
688,2.0
2,21, 1,21, 0, 7,50.00,60.00,Monday
250,1.8176583932088155
251,36714836.3764004
336,0.0
385,22.97945854069897
386,28.79005174568412
387,-0.9974174771287558
388,0.0
425,0.0
450,0.0
451,0.0
452,-1.7363520112791735
453,0.0
490,0.0
515,0.0
516,0.0
542,0.0
592,4870050.865369484
632,31585997.943938352
686,1.0
687,1.0
688,2.0
2,21, 1,21, 0, 8, 0.00,10.00,Monday
250,2.0193259123552783
251,36603398.07676099
336,0.0
385,22.97945854069897
386,28.79005174568412
387,-0.9935917715268042
388,0.0
425,0.0
450,0.0
451,0.0
452,-1.795435691784991
453,0.0
490,0.0
515,0.0
516,0.0
542,0.0
592,4889730.300311495
632,31563361.8625341
686,1.0
687,1.0
688,2.0
2,21, 1,21, 0, 8,10.00,20.00,Monday
250,2.2212844918704593
251,36496472.78049383
336,0.0
385,22.97945854069897
386,28.79005174568412
387,-0.9524913395050507
388,0.0
425,0.0
450,0.0
451,0.0
452,-1.7872086445058193
453,0.0
490,0.0
515,0.0
516,0.0
542,0.0
592,4909380.719869504
632,31436948.278637893
686,1.0
687,1.0
688,2.0
2,21, 1,21, 0, 8,20.00,30.00,Monday
250,2.4123096237419075
251,36396056.207485385
336,0.0
385,22.97945854069897
386,28.79005174568412
387,-0.8821129622610402
388,0.0
425,0.0
450,0.0
451,0.0
452,-1.680837315653113
453,0.0
490,0.0
515,0.0
516,0.0
542,0.0
592,4929009.6156952735
632,31311022.436799575
686,1.0
687,1.0
688,2.0
2,21, 1,21, 0, 8,30.00,40.00,Monday
250,2.6057526963159936
251,36294183.56912931
336,0.0
385,22.97945854069897
386,28.79005174568412
387,-0.7904692467026349
388,0.0
425,0.0
450,0.0
451,0.0
452,-1.4854980280181111
453,0.0
490,0.0
515,0.0
516,0.0
542,0.0
592,4952863.646772657
632,31186604.423735797
686,1.0
687,1.0
688,2.0
2,21, 1,21, 0, 8,40.00,50.00,Monday
250,2.800785583355841
251,36191087.93495438
336,0.0
385,22.97945854069897
386,28.79005174568412
387,-0.6867246304740365
388,0.0
425,0.0
450,0.0
451,0.0
452,-1.2077674776695615
453,0.0
490,0.0
515,0.0
516,0.0
542,0.0
592,4977062.298687916
632,31060171.929137792
686,1.0
687,1.0
688,2.0
2,21, 1,21, 0, 8,50.00,60.00,Monday
250,2.998977343315733
251,36087122.50249764
336,0.0
385,22.97945854069897
386,28.79005174568412
387,-0.5896070178385979
388,0.0
425,0.0
450,0.0
451,0.0
452,-0.8923382184652281
453,0.0
490,0.0
515,0.0
516,0.0
542,0.0
592,5001395.306277512
632,30883931.255214408
686,1.0
687,1.0
688,2.0
2,21, 1,21, 0, 9, 0.00,10.00,Monday
250,3.2586503072757003
251,35950996.20847214
336,0.0
385,22.97945854069897
386,28.79005174568412
387,-0.4499412598097138
388,0.0
425,0.0
450,0.0
451,0.0
452,-0.41132327575500494
453,0.0
490,0.0
515,0.0
516,0.0
542,0.0
592,5029363.153609448
632,30737122.165964693
686,1.0
687,1.0
688,2.0
2,21, 1,21, 0, 9,10.00,20.00,Monday
250,3.5179683483804602
251,35814264.0834225
336,0.0
385,22.97945854069897
386,28.79005174568412
387,-0.29800770994163245
388,0.0
425,0.0
450,0.0
451,0.0
452,0.11312654591551587
453,0.0
490,0.0
515,0.0
516,0.0
542,0.0
592,5057356.862312016
632,30571975.6189598
686,1.0
687,1.0
688,2.0
2,21, 1,21, 0, 9,20.00,30.00,Monday
250,3.777468870549548
251,35677409.41145361
336,0.0
385,22.97945854069897
386,28.79005174568412
387,-0.13795118653873323
388,0.0
425,0.0
450,0.0
451,0.0
452,0.6779148309558711
453,0.0
490,0.0
515,0.0
516,0.0
542,0.0
592,5085392.284952975
632,30407171.292908672
686,1.0
687,1.0
688,2.0
2,21, 1,21, 0, 9,30.00,40.00,Monday
250,4.036551052585395
251,35540781.09157465
336,0.0
385,22.97945854069897
386,28.79005174568412
387,0.03163809453949728
388,0.0
425,0.0
450,0.0
451,0.0
452,1.2727066437778474
453,0.0
490,0.0
515,0.0
516,0.0
542,0.0
592,5113485.892141593
632,30242326.46533127
686,1.0
687,1.0
688,2.0
2,21, 1,21, 0, 9,40.00,50.00,Monday
250,4.297604859917543
251,35402234.23930714
336,0.0
385,22.97945854069899
386,28.790051745684146
387,0.17641183547136258
388,0.0
425,0.0
450,0.0
451,0.0
452,1.7757097931650863
453,0.0
490,0.0
515,0.0
516,0.0
542,0.0
592,5141654.529350725
632,30050039.720425203
686,1.0000000000000009
687,1.0000000000000009
688,2.0000000000000018
2,21, 1,21, 0, 9,50.00,60.00,Monday
250,4.556990916042869
251,35264875.3990515
336,0.0
385,22.97945854069897
386,28.79005174568412
387,0.32845275887674696
388,0.0
425,0.0
450,0.0
451,0.0
452,2.31737283960122
453,0.0
490,0.0
515,0.0
516,0.0
542,0.0
592,5169915.672059796
632,29910801.43193475
686,1.0
687,1.0
688,2.0
2,21, 1,21, 0,10, 0.00,10.00,Monday
250,4.999172528150944
251,35030359.87919517
336,0.0
385,22.97945854069897
386,28.79005174568412
387,0.5187170473685212
388,0.0
425,0.0
450,0.0
451,0.0
452,2.8780475398401864
453,0.0
490,0.0
515,0.0
516,0.0
542,0.0
592,5241404.10703412
632,29612296.32506723
686,1.0
687,1.0
688,2.0
2,21, 1,21, 0,10,10.00,20.00,Monday
250,5.444675316474906
251,34794567.8745666
336,0.0
385,22.97945854069897
386,28.790051745684117
387,0.8099261551177948
388,0.0
425,0.0
450,0.0
451,0.0
452,3.633207860604445
453,0.0
490,0.0
515,0.0
516,0.0
542,0.0
592,5315291.857316207
632,29302946.79547264
686,1.0
687,1.0
688,2.0
2,21, 1,21, 0,10,20.00,30.00,Monday
250,5.89337367379083
251,34555876.44238135
336,0.0
385,22.979458540698964
386,28.79005174568411
387,1.0906796694834129
388,0.0
425,0.0
450,0.0
451,0.0
452,4.323573636180095
453,0.0
490,0.0
515,0.0
516,0.0
542,0.0
592,5391793.298050372
632,28988356.400755405
686,0.9999999999999996
687,0.9999999999999996
688,1.9999999999999991
2,21, 1,21, 0,10,30.00,40.00,Monday
250,6.343440030178078
251,34316321.130929664
336,0.0
385,22.979458540698978
386,28.79005174568413
387,1.3727334350974
388,0.0
425,0.0
450,0.0
451,0.0
452,5.023302926616516
453,0.0
490,0.0
515,0.0
516,0.0
542,0.0
592,5471132.199313744
632,28669753.267424785
686,1.0000000000000004
687,1.0000000000000004
688,2.000000000000001
2,21, 1,21, 0,10,40.00,50.00,Monday
250,6.795304111269238
251,34075660.27847412
336,0.0
385,22.97945854069899
386,28.790051745684146
387,1.6630942693034574
388,0.0
425,0.0
450,0.0
451,0.0
452,5.787361956422671
453,0.0
490,0.0
515,0.0
516,0.0
542,0.0
592,5553542.3757593315
632,28347060.874505565
686,1.0000000000000009
687,1.0000000000000009
688,2.0000000000000018
2,21, 1,21, 0,10,50.00,60.00,Monday
250,7.247339184386202
251,33834764.836136796
336,0.0
385,22.97945854069899
386,28.790051745684146
387,1.9635009562262251
388,0.0
425,0.0
450,0.0
451,0.0
452,6.617116475763667
453,0.0
490,0.0
515,0.0
516,0.0
542,0.0
592,5639267.778995938
632,28020518.38906298
686,1.0000000000000009
687,1.0000000000000009
688,2.0000000000000018
2,21, 1,21, 0,11, 0.00,10.00,Monday
250,7.531292731939763
251,33683664.74537781
336,0.0
385,22.97945854069897
386,28.79005174568412
387,2.2501588267396353
388,0.0
425,0.0
450,0.0
451,0.0
452,7.4724969726637145
453,0.0
490,0.0
515,0.0
516,0.0
542,0.0
592,5689519.861596226
632,27788001.572610866
686,1.0
687,1.0
688,2.0
2,21, 1,21, 0,11,10.00,20.00,Monday
250,7.811437209309171
251,33534496.464485966
336,0.0
385,22.97945854069897
386,28.790051745684117
387,2.5200001762185122
388,0.0
425,0.0
450,0.0
451,0.0
452,8.323233666196398
453,0.0
490,0.0
515,0.0
516,0.0
542,0.0
592,5740969.350869595
632,27586591.959613994
686,1.0
687,1.0
688,2.0
2,21, 1,21, 0,11,20.00,30.00,Monday
250,8.09151734910202
251,33385321.334146
336,0.0
385,22.979458540698964
386,28.79005174568411
387,2.7921744768588646
388,0.0
425,0.0
450,0.0
451,0.0
452,9.17005188978816
453,0.0
490,0.0
515,0.0
516,0.0
542,0.0
592,5793671.095282218
632,27384727.41555696
686,0.9999999999999996
687,0.9999999999999996
688,1.9999999999999991
2,21, 1,21, 0,11,30.00,40.00,Monday
250,8.369676957070329
251,33237128.362465397
336,0.0
385,22.979458540698978
386,28.79005174568413
387,3.0695005702585876
388,0.0
425,0.0
450,0.0
451,0.0
452,9.992916452720234
453,0.0
490,0.0
515,0.0
516,0.0
542,0.0
592,5847681.4279665835
632,27182184.8033083
686,1.0000000000000004
687,1.0000000000000004
688,2.000000000000001
2,21, 1,21, 0,11,40.00,50.00,Monday
250,8.646897350752662
251,33089389.45935256
336,0.0
385,22.97945854069899
386,28.790051745684146
387,3.3485794801878193
388,0.0
425,0.0
450,0.0
451,0.0
452,10.738150244991031
453,0.0
490,0.0
515,0.0
516,0.0
542,0.0
592,5903058.082199926
632,26978910.58236196
686,1.0000000000000009
687,1.0000000000000009
688,2.0000000000000018
2,21, 1,21, 0,11,50.00,60.00,Monday
250,8.922902048371492
251,32942252.447456513
336,0.0
385,22.97945854069899
386,28.790051745684146
387,3.625557359441608
388,0.0
425,0.0
450,0.0
451,0.0
452,11.373004085211246
453,0.0
490,0.0
515,0.0
516,0.0
542,0.0
592,5959860.237244541
632,26774762.172856186
686,1.0000000000000009
687,1.0000000000000009
688,2.0000000000000018
2,21, 1,21, 0,12, 0.00,10.00,Monday
250,9.187635384485406
251,32801003.98231112
336,0.0
385,22.97945854069897
386,28.79005174568412
387,3.86542038293236
388,0.0
425,0.0
450,0.0
451,0.0
452,11.87242611196223
453,0.0
490,0.0
515,0.0
516,0.0
542,0.0
592,5991096.197635709
632,26627310.005827002
686,1.0
687,1.0
688,2.0
2,21, 1,21, 0,12,10.00,20.00,Monday
250,9.444758186611455
251,32667280.662337907
336,0.0
385,22.97945854069897
386,28.79005174568412
387,4.157737428669108
388,0.0
425,0.0
450,0.0
451,0.0
452,12.436404436792138
453,0.0
490,0.0
515,0.0
516,0.0
542,0.0
592,7572016.881221028
632,24909791.5051366
686,1.0
687,1.0
688,2.0
2,21, 1,21, 0,12,20.00,30.00,Monday
250,9.706358530650647
251,32529539.082010575
336,0.0
385,22.97945854069897
386,28.79005174568412
387,4.42682692828722
388,0.0
425,0.0
450,0.0
451,0.0
452,12.952365733985104
453,0.0
490,0.0
515,0.0
516,0.0
542,0.0
592,7609409.155487606
632,24735747.65077956
686,1.0
687,1.0
688,2.0
2,21, 1,21, 0,12,30.00,40.00,Monday
250,9.966738059685937
251,32392463.480624177
336,0.0
385,22.97945854069897
386,28.79005174568412
387,4.685596181554674
388,0.0
425,0.0
450,0.0
451,0.0
452,13.443216097112696
453,0.0
490,0.0
515,0.0
516,0.0
542,0.0
592,7646583.592010481
632,24561166.348992735
686,1.0
687,1.0
688,2.0
2,21, 1,21, 0,12,40.00,50.00,Monday
250,10.226820547095198
251,32255547.045481525
336,0.0
385,22.97945854069897
386,28.79005174568412
387,4.939975534864188
388,0.0
425,0.0
450,0.0
451,0.0
452,13.884753837097712
453,0.0
490,0.0
515,0.0
516,0.0
542,0.0
592,7683540.190789656
632,24387205.81836568
686,1.0
687,1.0
688,2.0
2,21, 1,21, 0,12,50.00,60.00,Monday
250,10.486768243142837
251,32118702.62056451
336,0.0
385,22.97945854069897
386,28.79005174568412
387,5.188878630395712
388,0.0
425,0.0
450,0.0
451,0.0
452,14.252781391108918
453,0.0
490,0.0
515,0.0
516,0.0
542,0.0
592,7720278.951825123
632,24213584.832180224
686,1.0
687,1.0
688,2.0
2,21, 1,21, 0,13, 0.00,10.00,Monday
250,10.667208003725124
251,32021815.92788941
336,0.0
385,22.97945854069897
386,28.79005174568412
387,5.421207787728707
388,0.0
425,0.0
450,0.0
451,0.0
452,14.544071940933723
453,0.0
490,0.0
515,0.0
516,0.0
542,0.0
592,7745410.487127082
632,24103677.28685316
686,1.0
687,1.0
688,2.0
2,21, 1,21, 0,13,10.00,20.00,Monday
250,10.845037387736388
251,31929417.63138721
336,0.0
385,22.97945854069897
386,28.79005174568412
387,5.639901169851229
388,0.0
425,0.0
450,0.0
451,0.0
452,14.773188607173863
453,0.0
490,0.0
515,0.0
516,0.0
542,0.0
592,7770439.060057996
632,23996072.135706645
686,1.0
687,1.0
688,2.0
2,21, 1,21, 0,13,20.00,30.00,Monday
250,11.026363288078645
251,31835584.14894878
336,0.0
385,22.97945854069897
386,28.79005174568412
387,5.844700093356746
388,0.0
425,0.0
450,0.0
451,0.0
452,14.956274027962312
453,0.0
490,0.0
515,0.0
516,0.0
542,0.0
592,7795364.67061786
632,23879212.736554854
686,1.0
687,1.0
688,2.0
2,21, 1,21, 0,13,30.00,40.00,Monday
250,11.207082592900667
251,31742112.171753135
336,0.0
385,22.97945854069897
386,28.79005174568412
387,6.039625784328277
388,0.0
425,0.0
450,0.0
451,0.0
452,15.105270986659617
453,0.0
490,0.0
515,0.0
516,0.0
542,0.0
592,7820187.318806678
632,23760603.2116598
686,1.0
687,1.0
688,2.0
2,21, 1,21, 0,13,40.00,50.00,Monday
250,11.387372408936768
251,31648903.34418575
336,0.0
385,22.97945854069897
386,28.79005174568412
387,6.228426410087567
388,0.0
425,0.0
450,0.0
451,0.0
452,15.22448818218007
453,0.0
490,0.0
515,0.0
516,0.0
542,0.0
592,7844907.004624449
632,23642455.51948806
686,1.0
687,1.0
688,2.0
2,21, 1,21, 0,13,50.00,60.00,Monday
250,11.56761511659919
251,31555752.56237906
336,0.0
385,22.97945854069897
386,28.79005174568412
387,6.412406300069974
388,0.0
425,0.0
450,0.0
451,0.0
452,15.317658340638978
453,0.0
490,0.0
515,0.0
516,0.0
542,0.0
592,7869523.728071173
632,23524675.45373019
686,1.0
687,1.0
688,2.0
2,21, 1,21, 0,14, 0.00,10.00,Monday
250,11.766607514939954
251,31452506.829682082
336,0.0
385,22.97945854069897
386,28.79005174568412
387,6.594391047784117
388,0.0
425,0.0
450,0.0
451,0.0
452,15.373423526915191
453,0.0
490,0.0
515,0.0
516,0.0
542,0.0
592,7896260.907308882
632,23404832.514586385
686,1.0
687,1.0
688,2.0
2,21, 1,21, 0,14,10.00,20.00,Monday
250,11.962982592819543
251,31350342.674269345
336,0.0
385,22.97945854069897
386,28.79005174568412
387,6.774505383907555
388,0.0
425,0.0
450,0.0
451,0.0
452,15.37349563443461
453,0.0
490,0.0
515,0.0
516,0.0
542,0.0
592,7922875.552815757
632,23274653.266459357
686,1.0
687,1.0
688,2.0
2,21, 1,21, 0,14,20.00,30.00,Monday
250,12.15817656689583
251,31248771.27889385
336,0.0
385,22.97945854069897
386,28.79005174568412
387,6.95059782544915
388,0.0
425,0.0
450,0.0
451,0.0
452,15.317442854512384
453,0.0
490,0.0
515,0.0
516,0.0
542,0.0
592,7949367.664591794
632,23145964.80615126
686,1.0
687,1.0
688,2.0
2,21, 1,21, 0,14,30.00,40.00,Monday
250,12.352605860998636
251,31147643.41490494
336,0.0
385,22.97945854069897
386,28.79005174568412
387,7.116730485498489
388,0.0
425,0.0
450,0.0
451,0.0
452,15.194776092250624
453,0.0
490,0.0
515,0.0
516,0.0
542,0.0
592,7975737.242637003
632,23018067.442306325
686,1.0
687,1.0
688,2.0
2,21, 1,21, 0,14,40.00,50.00,Monday
250,12.546284398445845
251,31046943.398918036
336,0.0
385,22.97945854069897
386,28.79005174568412
387,7.269210724800127
388,0.0
425,0.0
450,0.0
451,0.0
452,14.985809752798692
453,0.0
490,0.0
515,0.0
516,0.0
542,0.0
592,8001984.286951372
632,22890728.04394372
686,1.0
687,1.0
688,2.0
2,21, 1,21, 0,14,50.00,60.00,Monday
250,12.739354943505356
251,30946592.536508676
336,0.0
385,22.97945854069897
386,28.79005174568412
387,7.408324475559011
388,0.0
425,0.0
450,0.0
451,0.0
452,14.693650502876057
453,0.0
490,0.0
515,0.0
516,0.0
542,0.0
592,8028108.797534912
632,22763937.54582299
686,1.0
687,1.0
688,2.0
2,21, 1,21, 0,15, 0.00,10.00,Monday
250,12.994724795048766
251,30813365.087527573
336,0.0
385,22.97945854069897
386,28.79005174568412
387,7.529085886141312
388,0.0
425,0.0
450,0.0
451,0.0
452,14.397698853761879
453,0.0
490,0.0
515,0.0
516,0.0
542,0.0
592,8062750.870287225
632,22565807.867572248
686,1.0
687,1.0