Program Version,EnergyPlus, Version 24.2.0-94a887817b, YMD=2025.02.04 15:39
1,5,Environment Title[],Latitude[deg],Longitude[deg],Time Zone[],Elevation[m]
2,8,Day of Simulation[],Month[],Day of Month[],DST Indicator[1=yes 0=no],Hour[],StartMinute[],EndMinute[],DayType
3,5,Cumulative Day of Simulation[],Month[],Day of Month[],DST Indicator[1=yes 0=no],DayType  ! When Daily Meters Requested
4,2,Cumulative Days of Simulation[],Month[]  ! When Monthly Meters Requested
5,1,Cumulative Days of Simulation[] ! When Run Period Meters Requested
6,1,Calendar Year of Simulation[] ! When Annual Meters Requested
11,9,Electricity:Facility [J] !Monthly [Value,Min,Day,Hour,Minute,Max,Day,Hour,Minute]
23,9,Electricity:Building [J] !Monthly [Value,Min,Day,Hour,Minute,Max,Day,Hour,Minute]
59,9,InteriorLights:Electricity [J] !Monthly [Value,Min,Day,Hour,Minute,Max,Day,Hour,Minute]
521,9,Electricity:HVAC [J] !Monthly [Value,Min,Day,Hour,Minute,Max,Day,Hour,Minute]
637,9,NaturalGas:Facility [J] !Monthly [Value,Min,Day,Hour,Minute,Max,Day,Hour,Minute]
649,9,NaturalGas:HVAC [J] !Monthly [Value,Min,Day,Hour,Minute,Max,Day,Hour,Minute]
13,11,Electricity:Facility [J] !RunPeriod [Value,Min,Month,Day,Hour,Minute,Max,Month,Day,Hour,Minute]
25,11,Electricity:Building [J] !RunPeriod [Value,Min,Month,Day,Hour,Minute,Max,Month,Day,Hour,Minute]
61,11,InteriorLights:Electricity [J] !RunPeriod [Value,Min,Month,Day,Hour,Minute,Max,Month,Day,Hour,Minute]
523,11,Electricity:HVAC [J] !RunPeriod [Value,Min,Month,Day,Hour,Minute,Max,Month,Day,Hour,Minute]
639,11,NaturalGas:Facility [J] !RunPeriod [Value,Min,Month,Day,Hour,Minute,Max,Month,Day,Hour,Minute]
651,11,NaturalGas:HVAC [J] !RunPeriod [Value,Min,Month,Day,Hour,Minute,Max,Month,Day,Hour,Minute]
End of Data Dictionary
1,RUN PERIOD 1,  41.98, -87.92,  -6.00, 201.00
4,31, 1
11,9832872796.808102,408891.4285714286, 5, 6,50,2986591.135127153,16,13,60
23,993822695.5770848,30000.0, 1, 1,10,617117.8953457281, 1, 9,10
59,970200000.0,30000.0, 1, 1,10,600000.0, 1, 8,10
521,8839050101.230986,378891.4285714286, 5, 6,50,2369473.239781425,16,13,60
637,179106935962.08963,28299264.305195395,21,16,10,41250000.0, 1, 1,10
649,179106935962.08963,28299264.305195395,21,16,10,41250000.0, 1, 1,10
4,59, 2
11,9365077595.478746,99999999999999.0, 5, 6,50,3028052.575390275,22,15,30
23,868701474.4148604,99999999999999.0, 1, 1,10,-99999999999999.0, 1, 9,10
59,848160000.0,99999999999999.0, 1, 1,10,-99999999999999.0, 1, 8,10
521,8496376121.063895,99999999999999.0, 5, 6,50,2410934.680044547,22,15,30
637,158514665889.51248,26609142.79774518,23,12,10,-99999999999999.0, 1, 1,10
649,158514665889.51248,26609142.79774518,23,12,10,-99999999999999.0, 1, 1,10
4,90, 3
11,10989511291.366741,99999999999999.0, 5, 6,50,3246014.212936159,27,15,30
23,919048548.1356016,99999999999999.0, 1, 1,10,-99999999999999.0, 1, 9,10
59,897480000.0,99999999999999.0, 1, 1,10,-99999999999999.0, 1, 8,10
521,10070462743.231125,0.0,27,15,40,2628896.317590431,27,15,30
637,162784732605.76447,0.0,27,15,40,-99999999999999.0, 1, 1,10
649,162784732605.76447,0.0,27,15,40,-99999999999999.0, 1, 1,10
4,120, 4
11,9588990649.652666,30000.0,11,19,10,3246075.238300047,11,12,30
23,952115621.8563435,99999999999999.0, 1, 1,10,-99999999999999.0, 1, 9,10
59,929520000.0,99999999999999.0, 1, 1,10,-99999999999999.0, 1, 8,10
521,8636875027.79631,99999999999999.0,27,15,40,2628957.3429543185,11,12,30
637,120863284547.20515,99999999999999.0,27,15,40,-99999999999999.0, 1, 1,10
649,120863284547.20515,99999999999999.0,27,15,40,-99999999999999.0, 1, 1,10
4,151, 5
11,9142113971.267733,99999999999999.0,11,19,10,-99999999999999.0,11,12,30
23,994110363.1734654,99999999999999.0, 1, 1,10,633039.9793165626,28,13,10
59,970200000.0,99999999999999.0, 1, 1,10,-99999999999999.0, 1, 8,10
521,8148003608.094266,99999999999999.0,27,15,40,-99999999999999.0,11,12,30
637,93946079202.24039,99999999999999.0,27,15,40,-99999999999999.0, 1, 1,10
649,93946079202.24039,99999999999999.0,27,15,40,-99999999999999.0, 1, 1,10
4,181, 6
11,6754912174.639571,99999999999999.0,11,19,10,-99999999999999.0,11,12,30
23,877380704.7592164,99999999999999.0, 1, 1,10,-99999999999999.0,28,13,10
59,856800000.0,99999999999999.0, 1, 1,10,-99999999999999.0, 1, 8,10
521,5877531469.880358,99999999999999.0,27,15,40,-99999999999999.0,11,12,30
637,42906786764.33811,99999999999999.0,27,15,40,-99999999999999.0, 1, 1,10
649,42906786764.33811,99999999999999.0,27,15,40,-99999999999999.0, 1, 1,10
4,212, 7
11,6269359903.094533,99999999999999.0,11,19,10,-99999999999999.0,11,12,30
23,994080835.0005602,99999999999999.0, 1, 1,10,-99999999999999.0,28,13,10
59,970200000.0,99999999999999.0, 1, 1,10,-99999999999999.0, 1, 8,10
521,5275279068.093978,99999999999999.0,27,15,40,2629304.9360731803,30, 8,10
637,15922786238.216146,99999999999999.0,27,15,40,-99999999999999.0, 1, 1,10
649,15922786238.216146,99999999999999.0,27,15,40,-99999999999999.0, 1, 1,10
4,243, 8
11,5489526053.800704,99999999999999.0,11,19,10,3247395.0024044197, 7,11,50
23,956713884.6384487,99999999999999.0, 1, 1,10,633140.2577089282,12,14,10
59,933840000.0,99999999999999.0, 1, 1,10,-99999999999999.0, 1, 8,10
521,4532812169.162255,99999999999999.0,27,15,40,2630277.107058692, 7,11,50
637,29352025661.569817,99999999999999.0,27,15,40,-99999999999999.0, 1, 1,10
649,29352025661.569817,99999999999999.0,27,15,40,-99999999999999.0, 1, 1,10
4,273, 9
11,7267621270.452255,99999999999999.0,11,19,10,3247667.6854879074,25,14,50
23,914728548.135602,99999999999999.0, 1, 1,10,-99999999999999.0,12,14,10
59,893160000.0,99999999999999.0, 1, 1,10,-99999999999999.0, 1, 8,10
521,6352892722.316679,99999999999999.0,27,15,40,2630549.7901421795,25,14,50
637,65451305779.64195,99999999999999.0,27,15,40,-99999999999999.0, 1, 1,10
649,65451305779.64195,99999999999999.0,27,15,40,-99999999999999.0, 1, 1,10
4,304,10
11,10584561784.242062,99999999999999.0,11,19,10,-99999999999999.0,25,14,50
23,993840526.2009873,99999999999999.0, 1, 1,10,634948.5192482974,22,16,40
59,970200000.0,99999999999999.0, 1, 1,10,-99999999999999.0, 1, 8,10
521,9590721258.04106,99999999999999.0,27,15,40,-99999999999999.0,25,14,50
637,128875082786.92628,99999999999999.0,27,15,40,-99999999999999.0, 1, 1,10
649,128875082786.92628,99999999999999.0,27,15,40,-99999999999999.0, 1, 1,10
4,334,11
11,10479483874.505497,99999999999999.0,11,19,10,-99999999999999.0,25,14,50
23,914728548.1356016,99999999999999.0, 1, 1,10,-99999999999999.0,22,16,40
59,893160000.0,99999999999999.0, 1, 1,10,-99999999999999.0, 1, 8,10
521,9564755326.369884,99999999999999.0,27,15,40,-99999999999999.0,25,14,50
637,147944936583.0576,99999999999999.0,27,15,40,-99999999999999.0, 1, 1,10
649,147944936583.0576,99999999999999.0,27,15,40,-99999999999999.0, 1, 1,10
4,365,12
11,10445386242.240173,99999999999999.0,11,19,10,-99999999999999.0,25,14,50
23,956435621.8563433,99999999999999.0, 1, 1,10,-99999999999999.0,22,16,40
59,933840000.0,99999999999999.0, 1, 1,10,-99999999999999.0, 1, 8,10
521,9488950620.383821,99999999999999.0,27,15,40,-99999999999999.0,25,14,50
637,179952805105.42242,99999999999999.0,27,15,40,-99999999999999.0, 1, 1,10
649,179952805105.42242,99999999999999.0,27,15,40,-99999999999999.0, 1, 1,10
5,365
13,106209417607.55522,30000.0, 4,11,19,10,3247667.6854879074, 9,25,14,50
25,11335707371.88373,30000.0, 1, 1, 1,10,634948.5192482974,10,22,16,40
61,11066760000.0,30000.0, 1, 1, 1,10,600000.0, 1, 1, 8,10
523,94873710235.66925,0.0, 3,27,15,40,2630549.7901421795, 9,25,14,50
639,1325621427125.9844,0.0, 3,27,15,40,41250000.0, 1, 1, 1,10
651,1325621427125.9844,0.0, 3,27,15,40,41250000.0, 1, 1, 1,10
1,RUN PERIOD 2,  41.98, -87.92,  -6.00, 201.00
4,1, 7
11,111791437.83169219,99999999999999.0,11,19,10,-99999999999999.0,25,14,50
23,41707073.72074367,99999999999999.0, 1, 1,10,-99999999999999.0,22,16,40
59,40680000.0,99999999999999.0, 1, 1,10,-99999999999999.0, 1, 8,10
521,70084364.11094849,99999999999999.0,27,15,40,-99999999999999.0,25,14,50
637,0.0,99999999999999.0,27,15,40,-99999999999999.0, 1, 1,10
649,0.0,99999999999999.0,27,15,40,-99999999999999.0, 1, 1,10
5,1
13,111791437.83169219,99999999999999.0, 4,11,19,10,-99999999999999.0, 9,25,14,50
25,41707073.72074367,99999999999999.0, 1, 1, 1,10,-99999999999999.0,10,22,16,40
61,40680000.0,99999999999999.0, 1, 1, 1,10,-99999999999999.0, 1, 1, 8,10
523,70084364.11094849,99999999999999.0, 3,27,15,40,-99999999999999.0, 9,25,14,50
639,0.0,99999999999999.0, 3,27,15,40,-99999999999999.0, 1, 1, 1,10
651,0.0,99999999999999.0, 3,27,15,40,-99999999999999.0, 1, 1, 1,10
End of Data
 Number of Records Written=          90
