Program Version,EnergyPlus, Version 24.1.0-9d7789a3ac, YMD=2025.04.05 15:39
1,5,Environment Title[],Latitude[deg],Longitude[deg],Time Zone[],Elevation[m]
2,8,Day of Simulation[],Month[],Day of Month[],DST Indicator[1=yes 0=no],Hour[],StartMinute[],EndMinute[],DayType
3,5,Cumulative Day of Simulation[],Month[],Day of Month[],DST Indicator[1=yes 0=no],DayType  ! When Daily Report Variables Requested
4,2,Cumulative Days of Simulation[],Month[]  ! When Monthly Report Variables Requested
5,1,Cumulative Days of Simulation[] ! When Run Period Report Variables Requested
6,1,Calendar Year of Simulation[] ! When Annual Report Variables Requested
250,1,LIVING ZONE,Zone Air Temperature [C] !TimeStep,REPORTSCH
251,1,LIVING ZONE,Zone Air System Sensible Heating Energy [J] !TimeStep,REPORTSCH
336,1,LIVING ZONE,Zone Air System Sensible Cooling Energy [J] !TimeStep,REPORTSCH
385,1,LIVING ZONE,Zone Thermostat Heating Setpoint Temperature [C] !TimeStep,REPORTSCH
386,1,LIVING ZONE,Zone Thermostat Cooling Setpoint Temperature [C] !TimeStep,REPORTSCH
387,1,GARAGE ZONE,Zone Air Temperature [C] !TimeStep,REPORTSCH
388,1,GARAGE ZONE,Zone Air System Sensible Heating Energy [J] !TimeStep,REPORTSCH
425,1,GARAGE ZONE,Zone Air System Sensible Cooling Energy [J] !TimeStep,REPORTSCH
450,1,GARAGE ZONE,Zone Thermostat Heating Setpoint Temperature [C] !TimeStep,REPORTSCH
451,1,GARAGE ZONE,Zone Thermostat Cooling Setpoint Temperature [C] !TimeStep,REPORTSCH
452,1,ATTIC ZONE,Zone Air Temperature [C] !TimeStep,REPORTSCH
453,1,ATTIC ZONE,Zone Air System Sensible Heating Energy [J] !TimeStep,REPORTSCH
490,1,ATTIC ZONE,Zone Air System Sensible Cooling Energy [J] !TimeStep,REPORTSCH
515,1,ATTIC ZONE,Zone Thermostat Heating Setpoint Temperature [C] !TimeStep,REPORTSCH
516,1,ATTIC ZONE,Zone Thermostat Cooling Setpoint Temperature [C] !TimeStep,REPORTSCH
542,1,ACDXCOIL 1,Cooling Coil Total Cooling Energy [J] !TimeStep,REPORTSCH
592,1,HEAT PUMP DX HEATING COIL 1,Heating Coil Heating Energy [J] !TimeStep,REPORTSCH
632,1,SUPP HEATING COIL 1,Heating Coil Heating Energy [J] !TimeStep,REPORTSCH
686,1,TWOSPEED HEAT PUMP 1,Unitary System DX Coil Cycling Ratio [] !TimeStep,REPORTSCH
687,1,TWOSPEED HEAT PUMP 1,Unitary System DX Coil Speed Ratio [] !TimeStep,REPORTSCH
688,1,TWOSPEED HEAT PUMP 1,Unitary System DX Coil Speed Level [] !TimeStep
End of Data Dictionary
1,RUN PERIOD 1,  41.98, -87.92,  -6.00, 201.00
2,21, 1,21, 0, 1, 0.00,10.00,Monday
250,22.88041170676873
251,6300435.998296164
336,0.0
385,22.98
386,27.18
387,0.6444883174348177
388,0.0
425,0.0
450,0.0
451,0.0
452,-1.6000598186818968
453,0.0
490,0.0
515,0.0
516,0.0
542,0.0
592,4824222.7318109935
632,1481206.3987965381
686,1.0
687,0.9595685279834719
688,2.0
2,21, 1,21, 0, 1,10.00,20.00,Monday
250,22.973087900474123
251,5682911.704050912
336,0.0
385,22.98
386,27.18
387,0.6122604258518815
388,0.0
425,0.0
450,0.0
451,0.0
452,-1.5884669420710538
453,0.0
490,0.0
515,0.0
516,0.0
542,0.0
592,4861953.101600749
632,580058.7299683975
686,1.0
687,1.0
688,2.0
2,21, 1,21, 0, 1,20.00,30.00,Monday
250,22.00260855290372
251,4222686.833722478
336,0.0
385,21.646666666666682
386,27.180000000000025
387,0.5879471132488038
388,0.0
425,0.0
450,0.0
451,0.0
452,-1.5818818667984325
453,0.0
490,0.0
515,0.0
516,0.0
542,0.0
592,1616115.3438942453
632,2579743.6996999886
686,0.39546265504843686
687,0.1666666666666668
688,0.6666666666666672
2,21, 1,21, 0, 1,30.00,40.00,Monday
250,22.8809157095178
251,6360264.054263353
336,0.0
385,22.98
386,27.18
387,0.5629235505517173
388,0.0
425,0.0
450,0.0
451,0.0
452,-1.5769468256780543
453,0.0
490,0.0
515,0.0
516,0.0
542,0.0
592,4831005.779990135
632,1531667.4027931357
686,1.0
687,1.0
688,2.0
2,21, 1,21, 0, 1,40.00,50.00,Monday
250,22.973071007693818
251,5749126.768656849
336,0.0
385,22.98
386,27.18
387,0.5337514143586036
388,0.0
425,0.0
450,0.0
451,0.0
452,-1.5732542432482226
453,0.0
490,0.0
515,0.0
516,0.0
542,0.0
592,4814481.458986158
632,693802.5537938614
686,1.0
687,1.0
688,2.0
2,21, 1,21, 0, 1,50.00,60.00,Monday
250,21.995982446949306
251,4291512.159964608
336,0.0
385,21.646666666666636
386,27.179999999999964
387,0.5110320848131646
388,0.0
425,0.0
450,0.0
451,0.0
452,-1.572157850962483
453,0.0
490,0.0
515,0.0
516,0.0
542,0.0
592,1667220.0580089206
632,2587825.206555749
686,0.41454564151728573
687,0.16666666666666644
688,0.6666666666666657
2,21, 1,21, 0, 2, 0.00,10.00,Monday
250,22.8804639765522
251,6417036.480503665
336,0.0
385,22.98
386,27.18
387,0.48718285579240866
388,0.0
425,0.0
450,0.0
451,0.0
452,-1.5730660991271272
453,0.0
490,0.0
515,0.0
516,0.0
542,0.0
592,4799356.618321557
632,1621888.9915705968
686,1.0
687,1.0
688,2.0
2,21, 1,21, 0, 2,10.00,20.00,Monday
250,22.97305827038547
251,5783082.686445927
336,0.0
385,22.98
386,27.18
387,0.4589046695956576
388,0.0
425,0.0
450,0.0
451,0.0
452,-1.5774970853760348
453,0.0
490,0.0
515,0.0
516,0.0
542,0.0
592,4798660.635559248
632,743620.0990839509
686,1.0
687,1.0
688,2.0
2,21, 1,21, 0, 2,20.00,30.00,Monday
250,21.993101085574516
251,4319240.447468705
336,0.0
385,21.646666666666682
386,27.180000000000025
387,0.4365302847186964
388,0.0
425,0.0
450,0.0
451,0.0
452,-1.585197600342633
453,0.0
490,0.0
515,0.0
516,0.0
542,0.0
592,1691507.033296056
632,2587974.6309556556
686,0.4214662764808532
687,0.1666666666666668
688,0.6666666666666672
2,21, 1,21, 0, 2,30.00,40.00,Monday
250,22.880319982356298
251,6445678.43693214
336,0.0
385,22.98
386,27.18
387,0.41267502565136804
388,0.0
425,0.0
450,0.0
451,0.0
452,-1.596475149833968
453,0.0
490,0.0
515,0.0
516,0.0
542,0.0
592,4799356.225568378
632,1651333.266071808
686,1.0
687,1.0
688,2.0
2,21, 1,21, 0, 2,40.00,50.00,Monday
250,22.97306114325425
251,5805236.035571044
336,0.0
385,22.98
386,27.18
387,0.38403095364643547
388,0.0
425,0.0
450,0.0
451,0.0
452,-1.612704375705397
453,0.0
490,0.0
515,0.0
516,0.0
542,0.0
592,4798660.78198036
632,765781.4404725573
686,1.0
687,1.0
688,2.0
2,21, 1,21, 0, 2,50.00,60.00,Monday
250,21.990630363019488
251,4342920.192897744
336,0.0
385,21.646666666666636
386,27.179999999999964
387,0.36122559036864843
388,0.0
425,0.0
450,0.0
451,0.0
452,-1.6283159335397626
453,0.0
490,0.0
515,0.0
516,0.0
542,0.0
592,1712288.0500820805
632,2588102.128197923
686,0.4273871553575699
687,0.16666666666666644
688,0.6666666666666657
2,21, 1,21, 0, 3, 0.00,10.00,Monday
250,22.88021654769043
251,6480315.812130219
336,0.0
385,22.98
386,27.18
387,0.33733298479112406
388,0.0
425,0.0
450,0.0
451,0.0
452,-1.6445132423288369
453,0.0
490,0.0
515,0.0
516,0.0
542,0.0
592,4799355.834889159
632,1686655.0947377072
686,1.0
687,1.0
688,2.0
2,21, 1,21, 0, 3,10.00,20.00,Monday
250,22.97306873768733
251,5844448.491483199
336,0.0
385,22.98
386,27.18
387,0.30948763308079963
388,0.0
425,0.0
450,0.0
451,0.0
452,-1.6593461943107155
453,0.0
490,0.0
515,0.0
516,0.0
542,0.0
592,4798660.853670272
632,804997.8416170139
686,1.0
687,1.0
688,2.0
2,21, 1,21, 0, 3,20.00,30.00,Monday
250,21.98499693477116
251,4396934.716314384
336,0.0
385,21.646666666666682
386,27.180000000000025
387,0.2884920780775275
388,0.0
425,0.0
450,0.0
451,0.0
452,-1.6641256009301086
453,0.0
490,0.0
515,0.0
516,0.0
542,0.0
592,1760287.642701082
632,2588110.278970073
686,0.4393909060042259
687,0.17117913752673294
688,0.833333333333334
2,21, 1,21, 0, 3,30.00,40.00,Monday
250,22.879813233730047
251,6533242.106847817
336,0.0
385,22.98
386,27.18
387,0.2670769078266756
388,0.0
425,0.0
450,0.0
451,0.0
452,-1.6643294520765912
453,0.0
490,0.0
515,0.0
516,0.0
542,0.0
592,4799355.139812999
632,1741088.5261642113
686,1.0
687,1.0
688,2.0
2,21, 1,21, 0, 3,40.00,50.00,Monday
250,22.973057046319983
251,5887955.768705413
336,0.0
385,22.98
386,27.18
387,0.24255590429737106
388,0.0
425,0.0
450,0.0
451,0.0
452,-1.6599723689795889
453,0.0
490,0.0
515,0.0
516,0.0
542,0.0
592,4798661.124718024
632,848543.5302501388
686,1.0
687,1.0
688,2.0
2,21, 1,21, 0, 3,50.00,60.00,Monday
250,21.979681540334326
251,4445916.938849686
336,0.0
385,21.646666666666636
386,27.179999999999964
387,0.22435826581176233
388,0.0
425,0.0
450,0.0
451,0.0
452,-1.652845689510408
453,0.0
490,0.0
515,0.0
516,0.0
542,0.0
592,1805025.3928293246
632,2588163.4343445674
686,0.4439759782913133
687,0.19322148872494438
688,0.8333333333333321
2,21, 1,21, 0, 4, 0.00,10.00,Monday
250,22.87949157779186
251,6639443.010932859
336,0.0
385,22.98
386,27.18
387,0.20150025062616578
388,0.0
425,0.0
450,0.0
451,0.0
452,-1.6446827712862317
453,0.0
490,0.0
515,0.0
516,0.0
542,0.0
592,4794751.10444563
632,1853319.2713782126
686,1.0
687,1.0
688,2.0
2,21, 1,21, 0, 4,10.00,20.00,Monday
250,22.973063896462374
251,6044777.4594488805
336,0.0
385,22.98
386,27.18
387,0.1700682671989009
388,0.0
425,0.0
450,0.0
451,0.0
452,-1.636467712303774
453,0.0
490,0.0
515,0.0
516,0.0
542,0.0
592,4789001.723921138
632,1015054.3254957007
686,1.0
687,1.0
688,2.0
2,21, 1,21, 0, 4,20.00,30.00,Monday
250,21.953826036378555
251,4684254.95898439
336,0.0
385,21.646666666666682
386,27.180000000000025
387,0.14231579855539384
388,0.0
425,0.0
450,0.0
451,0.0
452,-1.6338344873960984
453,0.0
490,0.0
515,0.0
516,0.0
542,0.0
592,2022114.1579490318
632,2589833.279950615
686,0.46721242735227136
687,0.30275329321498257
688,0.833333333333334
2,21, 1,21, 0, 4,30.00,40.00,Monday
250,22.87724442070506
251,6870290.1121597085
336,0.0
385,22.98
386,27.18
387,0.11117906539449729
388,0.0
425,0.0
450,0.0
451,0.0
452,-1.635230960417418
453,0.0
490,0.0
515,0.0
516,0.0
542,0.0
592,4780030.303919936
632,2105687.6202531485
686,1.0
687,1.0
688,2.0
2,21, 1,21, 0, 4,40.00,50.00,Monday
250,22.972949884623127
251,6245426.396977797
336,0.0
385,22.98
386,27.18
387,0.07231827914647322
388,0.0
425,0.0
450,0.0
451,0.0
452,-1.6422793755971181
453,0.0
490,0.0
515,0.0
516,0.0
542,0.0
592,4773361.920442432
632,1231594.9095988243
686,1.0
687,1.0
688,2.0
2,21, 1,21, 0, 4,50.00,60.00,Monday
250,21.928022752077986
251,4914685.394796323
336,0.0
385,21.646666666666636
386,27.179999999999964
387,0.040289142550309694
388,0.0
425,0.0
450,0.0
451,0.0
452,-1.6521817947629898
453,0.0
490,0.0
515,0.0
516,0.0
542,0.0
592,2139062.5563871814
632,2694784.61142627
686,0.49147971963544745
687,0.33333333333333287
688,0.9999999999999987
2,21, 1,21, 0, 5, 0.00,10.00,Monday
250,22.87488659908709
251,7000962.191538676
336,0.0
385,22.98
386,27.18
387,0.01416530885734127
388,0.0
425,0.0
450,0.0
451,0.0
452,-1.6606931531793387
453,0.0
490,0.0
515,0.0
516,0.0
542,0.0
592,4763565.35682369
632,2259581.5446448065
686,1.0
687,1.0
688,2.0
2,21, 1,21, 0, 5,10.00,20.00,Monday
250,22.972805734660756
251,6247801.118029486
336,0.0
385,22.98
386,27.18
387,-0.008183806796370995
388,0.0
425,0.0
450,0.0
451,0.0
452,-1.6644962956904117
453,0.0
490,0.0
515,0.0
516,0.0
542,0.0
592,4755939.751235822
632,1251658.3076020237
686,1.0
687,1.0
688,2.0
2,21, 1,21, 0, 5,20.00,30.00,Monday
250,21.93716881970364
251,4828897.711234077
336,0.0
385,21.646666666666682
386,27.180000000000025
387,-0.019199779416953895
388,0.0
425,0.0
450,0.0
451,0.0
452,-1.6576615868537292
453,0.0
490,0.0
515,0.0
516,0.0
542,0.0
592,2099572.7506254604
632,2650173.1279085022
686,0.4824244844208094
687,0.3333333333333336
688,0.833333333333334
2,21, 1,21, 0, 5,30.00,40.00,Monday
250,22.87580897291876
251,6918378.743744206
336,0.0
385,22.98
386,27.18
387,-0.027421855240892648
388,0.0
425,0.0
450,0.0
451,0.0
452,-1.6424467869084243
453,0.0
490,0.0
515,0.0
516,0.0
542,0.0
592,4743357.075373479
632,2194815.8532587267
686,1.0
687,1.0
688,2.0
2,21, 1,21, 0, 5,40.00,50.00,Monday
250,22.97286624584469
251,6173161.724697584
336,0.0
385,22.98
386,27.18
387,-0.03389885652488419
388,0.0
425,0.0
450,0.0
451,0.0
452,-1.6165571481806824
453,0.0
490,0.0
515,0.0
516,0.0
542,0.0
592,4734953.545745665
632,1197892.4077899647
686,1.0
687,1.0
688,2.0
2,21, 1,21, 0, 5,50.00,60.00,Monday
250,21.94741995971011
251,4741785.505957617
336,0.0
385,21.646666666666636
386,27.179999999999964
387,-0.036354191025339426
388,0.0
425,0.0
450,0.0
451,0.0
452,-1.589665121012661
453,0.0
490,0.0
515,0.0
516,0.0
542,0.0
592,2060606.0858646957
632,2603467.423047281
686,0.4739421418510201
687,0.33333333333333287
688,0.8333333333333321
2,21, 1,21, 0, 6, 0.00,10.00,Monday
250,22.8768940209267
251,6909739.600224502
336,0.0
385,22.98
386,27.18
387,-0.045461132624531164
388,0.0
425,0.0
450,0.0
451,0.0
452,-1.5635275145177037
453,0.0
490,0.0
515,0.0
516,0.0
542,0.0
592,4723986.757007593
632,2202899.750771635
686,1.0
687,1.0
688,2.0
2,21, 1,21, 0, 6,10.00,20.00,Monday
250,22.972951264606188
251,6250656.237128897
336,0.0
385,22.98
386,27.18
387,-0.06408195849202646
388,0.0
425,0.0
450,0.0
451,0.0
452,-1.5427284110685422
453,0.0
490,0.0
515,0.0
516,0.0
542,0.0
592,4719050.516383499
632,1291159.303040847
686,1.0
687,1.0
688,2.0
2,21, 1,21, 0, 6,20.00,30.00,Monday
250,21.92918054967643
251,4895866.695632082
336,0.0
385,21.646666666666682
386,27.180000000000025
387,-0.0846177829256611
388,0.0
425,0.0
450,0.0
451,0.0
452,-1.5412690971257617
453,0.0
490,0.0
515,0.0
516,0.0
542,0.0
592,2110836.9890782265
632,2704203.657589927
686,0.49013747656921736
687,0.3333333333333336
688,0.833333333333334
2,21, 1,21, 0, 6,30.00,40.00,Monday
250,22.87526067178566
251,7063446.901795089
336,0.0
385,22.98
386,27.18
387,-0.10982123510845199
388,0.0
425,0.0
450,0.0
451,0.0
452,-1.5506569674729662
453,0.0
490,0.0
515,0.0
516,0.0
542,0.0
592,4711642.797184034
632,2373759.1318943575
686,1.0
687,1.0
688,2.0
2,21, 1,21, 0, 6,40.00,50.00,Monday
250,22.972862393460062
251,6385427.611703491
336,0.0
385,22.98
386,27.18
387,-0.14338393420499995
388,0.0
425,0.0
450,0.0
451,0.0
452,-1.5727537130773221
453,0.0
490,0.0
515,0.0
516,0.0
542,0.0
592,4705760.644594215
632,1439407.48908801
686,1.0
687,1.0
688,2.0
2,21, 1,21, 0, 6,50.00,60.00,Monday
250,21.922094886180876
251,5043090.393602379
336,0.0
385,21.646666666666636
386,27.179999999999964
387,-0.17219764282138866
388,0.0
425,0.0
450,0.0
451,0.0
452,-1.599754010529935
453,0.0
490,0.0
515,0.0
516,0.0
542,0.0
592,2188145.1454052976
632,2767963.1362259267
686,0.5081307241627973
687,0.35065334839975426
688,1.166666666666665
2,21, 1,21, 0, 7, 0.00,10.00,Monday
250,22.874695401570268
251,7217104.208206301
336,0.0
385,22.98
386,27.18
387,-0.2083119577336935
388,0.0
425,0.0
450,0.0
451,0.0
452,-1.6462459361479822
453,0.0
490,0.0
515,0.0
516,0.0
542,0.0
592,4724394.555857577
632,2516528.590876093
686,1.0
687,1.0
688,2.0
2,21, 1,21, 0, 7,10.00,20.00,Monday
250,22.97283617601148
251,6485485.46934305
336,0.0
385,22.98
386,27.18
387,-0.260002685149862
388,0.0
425,0.0
450,0.0
451,0.0
452,-1.7357900764219285
453,0.0
490,0.0
515,0.0
516,0.0
542,0.0
592,4743674.758317518
632,1501607.7003612644
686,1.0
687,1.0
688,2.0
2,21, 1,21, 0, 7,20.00,30.00,Monday
250,21.918586419964416
251,5112488.278751897
336,0.0
385,21.646666666666682
386,27.180000000000025
387,-0.309166445570026
388,0.0
425,0.0
450,0.0
451,0.0
452,-1.8529884945332178
453,0.0
490,0.0
515,0.0
516,0.0
542,0.0
592,2248650.2103387155
632,2775868.3869151003
686,0.5116749962283136
687,0.36527828284948094
688,1.1666666666666674
2,21, 1,21, 0, 7,30.00,40.00,Monday
250,22.874394565981422
251,7255291.343881391
336,0.0
385,22.98
386,27.18
387,-0.36856375904398575
388,0.0
425,0.0
450,0.0
451,0.0
452,-2.0113486788979533
453,0.0
490,0.0
515,0.0
516,0.0
542,0.0
592,4786162.794117466
632,2493802.3763148733
686,1.0
687,1.0
688,2.0
2,21, 1,21, 0, 7,40.00,50.00,Monday
250,22.972819460480522
251,6520292.587224134
336,0.0
385,22.98
386,27.18
387,-0.4478938429005163
388,0.0
425,0.0
450,0.0
451,0.0
452,-2.2322147149979936
453,0.0
490,0.0
515,0.0
516,0.0
542,0.0
592,4803249.552814522
632,1476868.931760066
686,1.0
687,1.0
688,2.0
2,21, 1,21, 0, 7,50.00,60.00,Monday
250,21.91662499464256
251,5150007.480472656
336,0.0
385,21.646666666666636
386,27.179999999999964
387,-0.517504312533171
388,0.0
425,0.0
450,0.0
451,0.0
452,-2.441211183108923
453,0.0
490,0.0
515,0.0
516,0.0
542,0.0
592,2289648.6882349467
632,2772206.51327789
686,0.5134857441087579
687,0.3709137329768212
688,1.166666666666665
2,21, 1,21, 0, 8, 0.00,10.00,Monday
250,22.874267968174305
251,6919599.621185843
336,0.0
385,22.98
386,27.18
387,-0.587623660593559
388,0.0
425,0.0
450,0.0
451,0.0
452,-2.663522165190672
453,0.0
490,0.0
515,0.0
516,0.0
542,0.0
592,4834968.310450261
632,2109750.2727185707
686,1.0
687,1.0
688,2.0
2,21, 1,21, 0, 8,10.00,20.00,Monday
250,22.97280817163552
251,6095764.452461164
336,0.0
385,22.98
386,27.18
387,-0.6582833741664883
388,0.0
425,0.0
450,0.0
451,0.0
452,-2.839201168722459
453,0.0
490,0.0
515,0.0
516,0.0
542,0.0
592,4842983.048014998
632,1012609.9891023554
686,1.0
687,1.0
688,2.0
2,21, 1,21, 0, 8,20.00,30.00,Monday
250,21.956338306776967
251,4654031.7991317455
336,0.0
385,21.646666666666682
386,27.180000000000025
387,-0.6985223736266636
388,0.0
425,0.0
450,0.0
451,0.0
452,-2.8408296400825264
453,0.0
490,0.0
515,0.0
516,0.0
542,0.0
592,2006967.190603782
632,2579118.0535467057
686,0.462614681829327
687,0.2819050571169035
688,0.833333333333334
2,21, 1,21, 0, 8,30.00,40.00,Monday
250,22.877723429643932
251,6728895.096402933
336,0.0
385,22.98
386,27.18
387,-0.7281934865426665
388,0.0
425,0.0
450,0.0
451,0.0
452,-2.7415733182200377
453,0.0
490,0.0
515,0.0
516,0.0
542,0.0
592,4866461.214959037
632,1877058.0180498897
686,1.0
687,1.0
688,2.0
2,21, 1,21, 0, 8,40.00,50.00,Monday
250,22.972987289630854
251,5939472.940512526
336,0.0
385,22.98
386,27.18
387,-0.7463916963405295
388,0.0
425,0.0
450,0.0
451,0.0
452,-2.5038985057486833
453,0.0
490,0.0
515,0.0
516,0.0
542,0.0
592,4874514.51389111
632,824398.170795288
686,1.0
687,1.0
688,2.0
2,21, 1,21, 0, 8,50.00,60.00,Monday
250,21.984386608841167
251,4396332.067455692
336,0.0
385,21.646666666666636
386,27.179999999999964
387,-0.7409350067212189
388,0.0
425,0.0
450,0.0
451,0.0
452,-2.204494048096895
453,0.0
490,0.0
515,0.0
516,0.0
542,0.0
592,1776093.4392124815
632,2573636.058227362
686,0.437428781464001
687,0.16666666666666644
688,0.6666666666666657
2,21, 1,21, 0, 9, 0.00,10.00,Monday
250,22.879956866772808
251,6176629.637832891
336,0.0
385,22.98
386,27.18
387,-0.7150181123074428
388,0.0
425,0.0
450,0.0
451,0.0
452,-1.8040498591319905
453,0.0
490,0.0
515,0.0
516,0.0
542,0.0
592,4769509.2177894395
632,1417752.846887719
686,1.0
687,0.9009672608309278
688,2.0
2,21, 1,21, 0, 9,10.00,20.00,Monday
250,22.000574906449504
251,3524924.678973888
336,0.0
385,21.98
386,27.18
387,-0.658911784365954
388,0.0
425,0.0
450,0.0
451,0.0
452,-1.1935591574086755
453,0.0
490,0.0
515,0.0
516,0.0
542,0.0
592,2789915.0599560803
632,531008.162746352
686,0.5930302739699856
687,0.5
688,1.5
2,21, 1,21, 0, 9,20.00,30.00,Monday
250,22.37837911460698
251,4150110.250640437
336,0.0
385,22.313333333333325
386,27.179999999999993
387,-0.5991982494064837
388,0.0
425,0.0
450,0.0
451,0.0
452,-0.680457817474883
453,0.0
490,0.0
515,0.0
516,0.0
542,0.0
592,2983133.3641541237
632,1179518.8384188314
686,0.6666666666666664
687,0.44107624690821723
688,1.3333333333333328
2,21, 1,21, 0, 9,30.00,40.00,Monday
250,22.006689325443844
251,4097574.5327963647
336,0.0
385,21.780000000000012
386,27.18000000000001
387,-0.5313863713708351
388,0.0
425,0.0
450,0.0
451,0.0
452,-0.14341191642937964
453,0.0
490,0.0
515,0.0
516,0.0
542,0.0
592,2014054.0089078026
632,2126609.6112194234
686,0.43003848080018203
687,0.3427910934514048
688,1.0000000000000007
2,21, 1,21, 0, 9,40.00,50.00,Monday
250,22.237473122170663
251,5537965.993697207
336,0.0
385,22.31333333333335
386,27.18000000000002
387,-0.46376273438865556
388,0.0
425,0.0
450,0.0
451,0.0
452,0.4307275028468735
453,0.0
490,0.0
515,0.0
516,0.0
542,0.0
592,2995696.4636459495
632,2652011.771715769
686,0.7044730549850517
687,0.3333333333333336
688,1.3333333333333344
2,21, 1,21, 0, 9,50.00,60.00,Monday
250,22.428668182763392
251,4126544.1704509426
336,0.0
385,22.31333333333335
386,27.18000000000002
387,-0.3581607087122075
388,0.0
425,0.0
450,0.0
451,0.0
452,1.1551858395015806
453,0.0
490,0.0
515,0.0
516,0.0
542,0.0
592,3327810.449748592
632,761201.1961854674
686,0.6666666666666672
687,0.6666666666666672
688,1.3333333333333344
2,21, 1,21, 0,10, 0.00,10.00,Monday
250,22.02707722099702
251,3928332.4678153037
336,0.0
385,21.780000000000005
386,27.18
387,-0.2817562360818583
388,0.0
425,0.0
450,0.0
451,0.0
452,1.6226143174080379
453,0.0
490,0.0
515,0.0
516,0.0
542,0.0
592,1870891.6819119717
632,2105042.0942785665
686,0.415375615248885
687,0.2560400296749774
688,1.0
2,21, 1,21, 0,10,10.00,20.00,Monday
250,22.23535911607846
251,5337200.588035605
336,0.0
385,22.313333333333325
386,27.179999999999993
387,-0.19404341027758154
388,0.0
425,0.0
450,0.0
451,0.0
452,2.129388546983924
453,0.0
490,0.0
515,0.0
516,0.0
542,0.0
592,2886800.5376742217
632,2575083.321112049
686,0.660846809236924
687,0.3333333333333332
688,1.3333333333333328
2,21, 1,21, 0,10,20.00,30.00,Monday
250,21.976663502510757
251,4982059.902221888
336,0.0
385,21.98
386,27.18
387,-0.09630601965599873
388,0.0
425,0.0
450,0.0
451,0.0
452,2.664882310846085
453,0.0
490,0.0
515,0.0
516,0.0
542,0.0
592,2982302.366690145
632,2074154.1711095434
686,0.6184315492013559
687,0.5
688,1.25
2,21, 1,21, 0,10,30.00,40.00,Monday
250,22.23535971485308
251,5229386.939043194
336,0.0
385,22.313333333333343
386,27.180000000000014
387,0.013843993249618835
388,0.0
425,0.0
450,0.0
451,0.0
452,3.2508246367198463
453,0.0
490,0.0
515,0.0
516,0.0
542,0.0
592,2863597.836607506
632,2497685.646415609
686,0.6443116438434393
687,0.3333333333333336
688,1.333333333333334
2,21, 1,21, 0,10,40.00,50.00,Monday
250,21.994798991529393
251,4693896.292587908
336,0.0
385,21.98
386,27.18
387,0.13456450262563463
388,0.0
425,0.0
450,0.0
451,0.0
452,3.8973377539770366
453,0.0
490,0.0
515,0.0
516,0.0
542,0.0
592,2927607.52950338
632,1835169.3566039822
686,0.5945726677217913
687,0.4965292970480161
688,1.25
2,21, 1,21, 0,10,50.00,60.00,Monday
250,22.23231044953997
251,4932429.169915942
336,0.0
385,22.31333333333335
386,27.18000000000002
387,0.27572490229133484
388,0.0
425,0.0
450,0.0
451,0.0
452,4.629778645231923
453,0.0
490,0.0
515,0.0
516,0.0
542,0.0
592,2685838.2771109366
632,2399333.0701359496
686,0.5872286676118985
687,0.3333333333333336
688,1.3333333333333344
2,21, 1,21, 0,11, 0.00,10.00,Monday
250,22.00676279547442
251,4459549.87024922
336,0.0
385,21.98
386,27.18
387,0.4308923267090332
388,0.0
425,0.0
450,0.0
451,0.0
452,5.421613137218016
453,0.0
490,0.0
515,0.0
516,0.0
542,0.0
592,2746978.4459314668
632,1785127.218899015
686,0.5752092545398624
687,0.39857676804008657
688,1.25
2,21, 1,21, 0,11,10.00,20.00,Monday
250,22.134803574409812
251,4287884.427144532
336,0.0
385,21.98
386,27.18
387,0.6714966288693558
388,0.0
425,0.0
450,0.0
451,0.0
452,6.484507067834521
453,0.0
490,0.0
515,0.0
516,0.0
542,0.0
592,2387017.940247828
632,1944113.9701359784
686,0.5336518783536837
687,0.25
688,1.0
2,21, 1,21, 0,11,20.00,30.00,Monday
250,22.141944169448863
251,4164945.7341772057
336,0.0
385,21.98
386,27.18
387,0.8943349211412837
388,0.0
425,0.0
450,0.0
451,0.0
452,7.44535334546168
453,0.0
490,0.0
515,0.0
516,0.0
542,0.0
592,2281563.811067699
632,1934677.1116426792
686,0.5038444213336851
687,0.25
688,1.0
2,21, 1,21, 0,11,30.00,40.00,Monday
250,22.14586186652015
251,4085447.843973176
336,0.0
385,21.98
386,27.18
387,1.114734279405824
388,0.0
425,0.0
450,0.0
451,0.0
452,8.386099604390242
453,0.0
490,0.0
515,0.0
516,0.0
542,0.0
592,2220725.898922919
632,1920920.2744517627
686,0.4858650335712391
687,0.25
688,1.0
2,21, 1,21, 0,11,40.00,50.00,Monday
250,21.564055576449373
251,4721842.446401548
336,0.0
385,21.646666666666682
386,27.18000000000002
387,1.2929502968743536
388,0.0
425,0.0
450,0.0
451,0.0
452,9.130231739600937
453,0.0
490,0.0
515,0.0
516,0.0
542,0.0
592,3470325.6085185697
632,1393668.6501255387
686,0.6666666666666672
687,0.6289587106582386
688,1.3333333333333344
2,21, 1,21, 0,11,50.00,60.00,Monday
250,22.330942229700327
251,5780031.9555851035
336,0.0
385,22.180000000000003
386,27.18
387,1.475695640216425
388,0.0
425,0.0
450,0.0
451,0.0
452,9.80975697861222
453,0.0
490,0.0
515,0.0
516,0.0
542,0.0
592,2567208.675532379
632,3389386.4689817172
686,0.5158273531043311
687,0.4
688,1.2000000000000002
2,21, 1,21, 0,12, 0.00,10.00,Monday
250,22.50250412644833
251,3165041.915908029
336,0.0
385,22.313333333333333
386,27.18
387,1.6733454475642757
388,0.0
425,0.0
450,0.0
451,0.0
452,10.436934070023366
453,0.0
490,0.0
515,0.0
516,0.0
542,0.0
592,2972889.1309594167
632,154463.94372872164
686,0.6467767139060769
687,0.3333333333333333
688,1.0
2,21, 1,21, 0,12,10.00,20.00,Monday
250,22.202680027763403
251,3304002.746174733
336,0.0
385,21.780000000000005
386,27.18
387,1.8658011463782647
388,0.0
425,0.0
450,0.0
451,0.0
452,10.93926425553077
453,0.0
490,0.0
515,0.0
516,0.0
542,0.0
592,1354954.3531834027
632,2049666.7475752789
686,0.2751637618027491
687,0.2
688,0.6000000000000001
2,21, 1,21, 0,12,20.00,30.00,Monday
250,22.007202776810132
251,4051862.5277136317
336,0.0
385,21.98
386,27.18
387,2.0527667754090664
388,0.0
425,0.0
450,0.0
451,0.0
452,11.334858755263967
453,0.0
490,0.0
515,0.0
516,0.0
542,0.0
592,2520882.3923935904
632,1614380.4057046173
686,0.5382937813929047
687,0.2976011549011441
688,1.25
2,21, 1,21, 0,12,30.00,40.00,Monday
250,22.225631491421503
251,4325903.928902026
336,0.0
385,22.31333333333335
386,27.18000000000002
387,2.2313562471286326
388,0.0
425,0.0
450,0.0
451,0.0
452,11.619375614861545
453,0.0
490,0.0
515,0.0
516,0.0
542,0.0
592,2362308.762716264
632,2150699.3279891275
686,0.4847040967979381
687,0.3333333333333336
688,1.3333333333333344
2,21, 1,21, 0,12,40.00,50.00,Monday
250,22.024484565926677
251,4024690.185608378
336,0.0
385,21.98
386,27.18
387,2.387011435805343
388,0.0
425,0.0
450,0.0
451,0.0
452,11.748867508849823
453,0.0
490,0.0
515,0.0
516,0.0
542,0.0
592,2451792.426964063
632,1653267.443991585
686,0.5363990609325351
687,0.25
688,1.0
2,21, 1,21, 0,12,50.00,60.00,Monday
250,22.224638620912653
251,4258337.52983414
336,0.0
385,22.31333333333335
386,27.18000000000002
387,2.5244376444104626
388,0.0
425,0.0
450,0.0
451,0.0
452,11.750050422952478
453,0.0
490,0.0
515,0.0
516,0.0
542,0.0
592,2310816.3664138084
632,2141457.773319034
686,0.4697508348158528
687,0.3333333333333336
688,1.3333333333333344
2,21, 1,21, 0,13, 0.00,10.00,Monday
250,22.029348116056045
251,3957189.0426695417
336,0.0
385,21.98
386,27.18
387,2.6399508169113277
388,0.0
425,0.0
450,0.0
451,0.0
452,11.674178073216048
453,0.0
490,0.0
515,0.0
516,0.0
542,0.0
592,2384824.9796777894
632,1656013.0710520733
686,0.5188252205456638
687,0.25
688,1.0
2,21, 1,21, 0,13,10.00,20.00,Monday
250,22.223711124038026
251,4175268.0176008455
336,0.0
385,22.313333333333325
386,27.179999999999993
387,2.742413504558041
388,0.0
425,0.0
450,0.0
451,0.0
452,11.591650410296296
453,0.0
490,0.0
515,0.0
516,0.0
542,0.0
592,2251286.74535645
632,2124249.1005529463
686,0.4552197784248503
687,0.3333333333333332
688,1.3333333333333328
2,21, 1,21, 0,13,20.00,30.00,Monday
250,22.034995590788036
251,3847273.3015545807
336,0.0
385,21.98
386,27.18
387,2.831512738437895
388,0.0
425,0.0
450,0.0
451,0.0
452,11.533470229016709
453,0.0
490,0.0
515,0.0
516,0.0
542,0.0
592,2291914.51342539
632,1642786.0501418144
686,0.49581490656765975
687,0.25
688,1.0
2,21, 1,21, 0,13,30.00,40.00,Monday
250,22.222334634970284
251,4067104.9196974174
336,0.0
385,22.313333333333343
386,27.180000000000014
387,2.9155335572163277
388,0.0
425,0.0
450,0.0
451,0.0
452,11.498298444875594
453,0.0
490,0.0
515,0.0
516,0.0
542,0.0
592,2180331.2933145748
632,2093614.8445069718
686,0.43768409178419765
687,0.3333333333333336
688,1.333333333333334
2,21, 1,21, 0,13,40.00,50.00,Monday
250,22.036726494764906
251,3778550.9210867393
336,0.0
385,21.98
386,27.18
387,2.993847479170814
388,0.0
425,0.0
450,0.0
451,0.0
452,11.47939194233099
453,0.0
490,0.0
515,0.0
516,0.0
542,0.0
592,2245723.5318803373
632,1621779.0280396233
686,0.4847277470451751
687,0.25
688,1.0
2,21, 1,21, 0,13,50.00,60.00,Monday
250,22.221200895612693
251,3968148.811703453
336,0.0
385,22.31333333333335
386,27.18000000000002
387,3.0706975919759394
388,0.0
425,0.0
450,0.0
451,0.0
452,11.467141716107237
453,0.0
490,0.0
515,0.0
516,0.0
542,0.0
592,2116715.870308142
632,2064291.5586137446
686,0.42200022997615744
687,0.3333333333333336
688,1.3333333333333344
2,21, 1,21, 0,14, 0.00,10.00,Monday
250,22.04608955879777
251,3627943.9738828233
336,0.0
385,21.98
386,27.18
387,3.145544274575718
388,0.0
425,0.0
450,0.0
451,0.0
452,11.425839266817718
453,0.0
490,0.0
515,0.0
516,0.0
542,0.0
592,2105019.7505376027
632,1619755.153138257
686,0.4476956278533937
687,0.25
688,1.0
2,21, 1,21, 0,14,10.00,20.00,Monday
250,21.57013461210255
251,4295621.176345646
336,0.0
385,21.646666666666658
386,27.179999999999993
387,3.2189192830630553
388,0.0
425,0.0
450,0.0
451,0.0
452,11.321432860198948
453,0.0
490,0.0
515,0.0
516,0.0
542,0.0
592,3242667.174239142
632,1199938.4353484663
686,0.6666666666666664
687,0.44036244008751607
688,1.3333333333333328
2,21, 1,21, 0,14,20.00,30.00,Monday
250,21.984415918163364
251,3243478.164793004
336,0.0
385,21.780000000000005
386,27.18
387,3.284439001128607
388,0.0
425,0.0
450,0.0
451,0.0
452,11.154059349689106
453,0.0
490,0.0
515,0.0
516,0.0
542,0.0
592,2190215.7914923555
632,1086715.9207438144
686,0.42114108346429846
687,0.3750013094969618
688,1.0
2,21, 1,21, 0,14,30.00,40.00,Monday
250,22.88557978899295
251,4170770.699442829
336,0.0
385,22.980000000000008
386,27.180000000000007
387,3.3429329285413294
388,0.0
425,0.0
450,0.0
451,0.0
452,10.893501100266201
453,0.0
490,0.0
515,0.0
516,0.0
542,0.0
592,4206734.966308596
632,0.0
686,0.9018100017602632
687,0.4711820161462757
688,1.5000000000000007
2,21, 1,21, 0,14,40.00,50.00,Monday
250,22.11272502924922
251,2056090.7374095314
336,0.0
385,21.98
386,27.18
387,3.3991366005311594
388,0.0
425,0.0
450,0.0
451,0.0
452,10.448187044977402
453,0.0
490,0.0
515,0.0
516,0.0
542,0.0
592,1970153.550971154
632,0.0
686,0.5
687,0.014509729473695738
688,1.0
2,21, 1,21, 0,14,50.00,60.00,Monday
250,22.01674521280752
251,3559879.6785655543
336,0.0
385,21.98
386,27.18
387,3.4123817118733695
388,0.0
425,0.0
450,0.0
451,0.0
452,10.000739050077375
453,0.0
490,0.0
515,0.0
516,0.0
542,0.0
592,2125615.0958217727
632,1541794.2455569224
686,0.4468225285543963
687,0.25