Program Version,EnergyPlus, Version 24.2.0-94a887817b, YMD=2025.02.11 00:15
1,5,Environment Title[],Latitude[deg],Longitude[deg],Time Zone[],Elevation[m]
2,8,Day of Simulation[],Month[],Day of Month[],DST Indicator[1=yes 0=no],Hour[],StartMinute[],EndMinute[],DayType
3,5,Cumulative Day of Simulation[],Month[],Day of Month[],DST Indicator[1=yes 0=no],DayType  ! When Daily Report Variables Requested
4,2,Cumulative Days of Simulation[],Month[]  ! When Monthly Report Variables Requested
5,1,Cumulative Days of Simulation[] ! When Run Period Report Variables Requested
6,1,Calendar Year of Simulation[] ! When Annual Report Variables Requested
250,1,LIVING ZONE,Zone Air Temperature [C] !TimeStep,REPORTSCH
251,1,LIVING ZONE,Zone Air System Sensible Heating Energy [J] !TimeStep,REPORTSCH
336,1,LIVING ZONE,Zone Air System Sensible Cooling Energy [J] !TimeStep,REPORTSCH
385,1,LIVING ZONE,Zone Thermostat Heating Setpoint Temperature [C] !TimeStep,REPORTSCH
386,1,LIVING ZONE,Zone Thermostat Cooling Setpoint Temperature [C] !TimeStep,REPORTSCH
387,1,GARAGE ZONE,Zone Air Temperature [C] !TimeStep,REPORTSCH
388,1,GARAGE ZONE,Zone Air System Sensible Heating Energy [J] !TimeStep,REPORTSCH
425,1,GARAGE ZONE,Zone Air System Sensible Cooling Energy [J] !TimeStep,REPORTSCH
450,1,GARAGE ZONE,Zone Thermostat Heating Setpoint Temperature [C] !TimeStep,REPORTSCH
451,1,GARAGE ZONE,Zone Thermostat Cooling Setpoint Temperature [C] !TimeStep,REPORTSCH
452,1,ATTIC ZONE,Zone Air Temperature [C] !TimeStep,REPORTSCH
453,1,ATTIC ZONE,Zone Air System Sensible Heating Energy [J] !TimeStep,REPORTSCH
490,1,ATTIC ZONE,Zone Air System Sensible Cooling Energy [J] !TimeStep,REPORTSCH
515,1,ATTIC ZONE,Zone Thermostat Heating Setpoint Temperature [C] !TimeStep,REPORTSCH
516,1,ATTIC ZONE,Zone Thermostat Cooling Setpoint Temperature [C] !TimeStep,REPORTSCH
542,1,ACDXCOIL 1,Cooling Coil Total Cooling Energy [J] !TimeStep,REPORTSCH
592,1,HEAT PUMP DX HEATING COIL 1,Heating Coil Heating Energy [J] !TimeStep,REPORTSCH
632,1,SUPP HEATING COIL 1,Heating Coil Heating Energy [J] !TimeStep,REPORTSCH
686,1,TWOSPEED HEAT PUMP 1,Unitary System DX Coil Cycling Ratio [] !TimeStep,REPORTSCH
687,1,TWOSPEED HEAT PUMP 1,Unitary System DX Coil Speed Ratio [] !TimeStep,REPORTSCH
688,1,TWOSPEED HEAT PUMP 1,Unitary System DX Coil Speed Level [] !TimeStep,REPORTSCH
End of Data Dictionary
1,RUN PERIOD 1,  41.98, -87.92,  -6.00, 201.00
2,21, 1,21, 0, 1, 0.00,10.00,Monday
250,23.31501666155073
251,6093533.368851231
336,0.0
385,23.096666666666668
386,26.019999999999996
387,0.6352139551166947
388,0.0
425,0.0
450,0.0
451,0.0
452,-1.6027819027355306
453,0.0
490,0.0
515,0.0
516,0.0
542,0.0
592,2663212.374018427
632,3338641.0442630183
686,0.5637704696597179
687,0.5
688,1.1666666666666667
2,21, 1,21, 0, 1,10.00,20.00,Monday
250,23.725968531599914
251,5962679.086535276
336,0.0
385,23.763333333333332
386,26.019999999999996
387,0.6090987122820933
388,0.0
425,0.0
450,0.0
451,0.0
452,-1.592354489375901
453,0.0
490,0.0
515,0.0
516,0.0
542,0.0
592,3490615.903138462
632,2418927.4608102064
686,0.738041512925022
687,0.6666666666666667
688,1.6666666666666667
2,21, 1,21, 0, 1,20.00,30.00,Monday
250,23.96309104037364
251,7191807.73704536
336,0.0
385,24.43
386,26.02
387,0.5785137301541099
388,0.0
425,0.0
450,0.0
451,0.0
452,-1.581960427138513
453,0.0
490,0.0
515,0.0
516,0.0
542,0.0
592,4847023.668204423
632,2884542.374304346
686,1.0
687,1.0
688,2.0
2,21, 1,21, 0, 1,30.00,40.00,Monday
250,24.385700785561202
251,8305853.908441266
336,0.0
385,24.43
386,26.02
387,0.5519931763807742
388,0.0
425,0.0
450,0.0
451,0.0
452,-1.5755523525565454
453,0.0
490,0.0
515,0.0
516,0.0
542,0.0
592,4828658.377228092
632,3340646.0244735074
686,1.0
687,1.0
688,2.0
2,21, 1,21, 0, 1,40.00,50.00,Monday
250,23.311711949608515
251,6158092.885876053
336,0.0
385,23.096666666666636
386,26.01999999999996
387,0.5299332612821706
388,0.0
425,0.0
450,0.0
451,0.0
452,-1.5727266175265084
453,0.0
490,0.0
515,0.0
516,0.0
542,0.0
592,2642306.7982683307
632,3425077.857901563
686,0.5676999366385117
687,0.49999999999999933
688,1.166666666666665
2,21, 1,21, 0, 1,50.00,60.00,Monday
250,23.727250992772937
251,6034210.793529936
336,0.0
385,23.763333333333353
386,26.020000000000017
387,0.50653488595184
388,0.0
425,0.0
450,0.0
451,0.0
452,-1.570978838609672
453,0.0
490,0.0
515,0.0
516,0.0
542,0.0
592,3466692.5030178754
632,2508468.3669837615
686,0.74425738815012
687,0.6666666666666672
688,1.6666666666666679
2,21, 1,21, 0, 2, 0.00,10.00,Monday
250,23.964805850561476
251,7245046.427402775
336,0.0
385,24.43
386,26.02
387,0.4782780721400254
388,0.0
425,0.0
450,0.0
451,0.0
452,-1.5709412782996852
453,0.0
490,0.0
515,0.0
516,0.0
542,0.0
592,4799542.257865095
632,2984119.8291067774
686,1.0
687,1.0
688,2.0
2,21, 1,21, 0, 2,10.00,20.00,Monday
250,24.385892117280704
251,8345884.778313182
336,0.0
385,24.43
386,26.02
387,0.45315516378843207
388,0.0
425,0.0
450,0.0
451,0.0
452,-1.5744122866220653
453,0.0
490,0.0
515,0.0
516,0.0
542,0.0
592,4797025.276005209
632,3411888.474540732
686,1.0
687,1.0
688,2.0
2,21, 1,21, 0, 2,20.00,30.00,Monday
250,23.310455953838368
251,6182675.095249212
336,0.0
385,23.096666666666685
386,26.020000000000017
387,0.43164956290497525
388,0.0
425,0.0
450,0.0
451,0.0
452,-1.581849439435872
453,0.0
490,0.0
515,0.0
516,0.0
542,0.0
592,2638604.038438226
632,3453747.274692854
686,0.5691377905978751
687,0.5000000000000004
688,1.1666666666666674
2,21, 1,21, 0, 2,30.00,40.00,Monday
250,23.72738659696173
251,6046648.090627837
336,0.0
385,23.763333333333353
386,26.020000000000017
387,0.40841812141456674
388,0.0
425,0.0
450,0.0
451,0.0
452,-1.5928027209027018
453,0.0
490,0.0
515,0.0
516,0.0
542,0.0
592,3469542.2038735296
632,2517439.4761662744
686,0.745080249280127
687,0.6666666666666672
688,1.6666666666666679
2,21, 1,21, 0, 2,40.00,50.00,Monday
250,23.96520772373191
251,7255576.53165783
336,0.0
385,24.43
386,26.02
387,0.3798840516779916
388,0.0
425,0.0
450,0.0
451,0.0
452,-1.6086098709483576
453,0.0
490,0.0
515,0.0
516,0.0
542,0.0
592,4799541.704095868
632,2994681.057553844
686,1.0
687,1.0
688,2.0
2,21, 1,21, 0, 2,50.00,60.00,Monday
250,24.385937005510094
251,8354979.748534642
336,0.0
385,24.43
386,26.02
387,0.3542443988690914
388,0.0
425,0.0
450,0.0
451,0.0
452,-1.6250824677283608
453,0.0
490,0.0
515,0.0
516,0.0
542,0.0
592,4797025.27600521
632,3420893.0858377945
686,1.0
687,1.0
688,2.0
2,21, 1,21, 0, 3, 0.00,10.00,Monday
250,23.309487361813435
251,6201188.807781837
336,0.0
385,23.096666666666668
386,26.019999999999996
387,0.33263898998079644
388,0.0
425,0.0
450,0.0
451,0.0
452,-1.6396061275246598
453,0.0
490,0.0
515,0.0
516,0.0
542,0.0
592,2641878.889566177
632,3469306.8512755786
686,0.5700831430421786
687,0.5
688,1.1666666666666667
2,21, 1,21, 0, 3,10.00,20.00,Monday
250,23.727896266904573
251,6078304.446964773
336,0.0
385,23.763333333333332
386,26.019999999999996
387,0.31002099842777003
388,0.0
425,0.0
450,0.0
451,0.0
452,-1.6513842858020302
453,0.0
490,0.0
515,0.0
516,0.0
542,0.0
592,3477840.396559689
632,2538472.5035679834
686,0.7474774764972965
687,0.6666666666666667
688,1.6666666666666667
2,21, 1,21, 0, 3,20.00,30.00,Monday
250,23.966102223562988
251,7296780.958958604
336,0.0
385,24.43
386,26.02
387,0.28320639629864086
388,0.0
425,0.0
450,0.0
451,0.0
452,-1.65909191475409
453,0.0
490,0.0
515,0.0
516,0.0
542,0.0
592,4799539.886117617
632,3035570.0157356686
686,1.0
687,1.0
688,2.0
2,21, 1,21, 0, 3,30.00,40.00,Monday
250,24.386055075610095
251,8407143.365741214
336,0.0
385,24.43
386,26.02
387,0.26033873397384794
388,0.0
425,0.0
450,0.0
451,0.0
452,-1.659543960285836
453,0.0
490,0.0
515,0.0
516,0.0
542,0.0
592,4797025.27600521
632,3472833.998080518
686,1.0
687,1.0
688,2.0
2,21, 1,21, 0, 3,40.00,50.00,Monday
250,23.306870938714503
251,6250977.964637751
336,0.0
385,23.096666666666636
386,26.01999999999996
387,0.24196677621338494
388,0.0
425,0.0
450,0.0
451,0.0
452,-1.6550000005503225
453,0.0
490,0.0
515,0.0
516,0.0
542,0.0
592,2650596.257138098
632,3511241.8920899127
686,0.5725995999536373
687,0.49999999999999933
688,1.166666666666665
2,21, 1,21, 0, 3,50.00,60.00,Monday
250,23.728706517369275
251,6131055.600836497
336,0.0
385,23.763333333333353
386,26.020000000000017
387,0.22312534489662908
388,0.0
425,0.0
450,0.0
451,0.0
452,-1.6473936492964152
453,0.0
490,0.0
515,0.0
516,0.0
542,0.0
592,3491944.74764691
632,2573335.220442646
686,0.7515516695742749
687,0.6666666666666672
688,1.6666666666666679
2,21, 1,21, 0, 4, 0.00,10.00,Monday
250,23.967708170965736
251,7412358.246556779
336,0.0
385,24.43
386,26.02
387,0.196480038202191
388,0.0
425,0.0
450,0.0
451,0.0
452,-1.6372943227844237
453,0.0
490,0.0
515,0.0
516,0.0
542,0.0
592,4794905.80136389
632,3155224.993149333
686,1.0
687,1.0
688,2.0
2,21, 1,21, 0, 4,10.00,20.00,Monday
250,24.386297798955784
251,8592022.920028731
336,0.0
385,24.43
386,26.02
387,0.16822718529461925
388,0.0
425,0.0
450,0.0
451,0.0
452,-1.6300260076826762
453,0.0
490,0.0
515,0.0
516,0.0
542,0.0
592,4787110.239197659
632,3667222.645370131
686,1.0
687,1.0
688,2.0
2,21, 1,21, 0, 4,20.00,30.00,Monday
250,23.29349822759118
251,6504020.007022996
336,0.0
385,23.096666666666685
386,26.020000000000017
387,0.14078717595143797
388,0.0
425,0.0
450,0.0
451,0.0
452,-1.6275469572447134
453,0.0
490,0.0
515,0.0
516,0.0
542,0.0
592,2687086.3190920544
632,3732204.4466662826
686,0.5856268319044524
687,0.5000000000000004
688,1.1666666666666674
2,21, 1,21, 0, 4,30.00,40.00,Monday
250,23.734426899408106
251,6477125.299941182
336,0.0
385,23.763333333333353
386,26.020000000000017
387,0.10991805313267657
388,0.0
425,0.0
450,0.0
451,0.0
452,-1.6289467490903107
453,0.0
490,0.0
515,0.0
516,0.0
542,0.0
592,3574426.958046184
632,2809970.83796769
686,0.7799779650172968
687,0.6666666666666672
688,1.6666666666666679
2,21, 1,21, 0, 4,40.00,50.00,Monday
250,23.97446912939735
251,7727660.139551126
336,0.0
385,24.43
386,26.02
387,0.07064294105836603
388,0.0
425,0.0
450,0.0
451,0.0
452,-1.635708530856161
453,0.0
490,0.0
515,0.0
516,0.0
542,0.0
592,4774797.8914394295
632,3484201.919031776
686,1.0
687,1.0
688,2.0
2,21, 1,21, 0, 4,50.00,60.00,Monday
250,24.387089540501346
251,8916586.084913416
336,0.0
385,24.43
386,26.02
387,0.034241972799411685
388,0.0
425,0.0
450,0.0
451,0.0
452,-1.6457450053444824
453,0.0
490,0.0
515,0.0
516,0.0
542,0.0
592,4765435.086161589
632,4011700.043177003
686,1.0
687,1.0
688,2.0
2,21, 1,21, 0, 5, 0.00,10.00,Monday
250,23.282472898405317
251,6713587.348483965
336,0.0
385,23.096666666666668
386,26.019999999999996
387,0.011446905641073452
388,0.0
425,0.0
450,0.0
451,0.0
452,-1.6533366065691
453,0.0
490,0.0
515,0.0
516,0.0
542,0.0
592,2712545.14114073
632,3919942.855316146
686,0.5966928135005934
687,0.5
688,1.1666666666666667
2,21, 1,21, 0, 5,10.00,20.00,Monday
250,23.73584928770273
251,6583478.560411229
336,0.0
385,23.763333333333332
386,26.019999999999996
387,-0.0059342963667137275
388,0.0
425,0.0
450,0.0
451,0.0
452,-1.6557822170289462
453,0.0
490,0.0
515,0.0
516,0.0
542,0.0
592,3587569.0392213096
632,2896163.4820161927
686,0.7887894340463637
687,0.6666666666666667
688,1.6666666666666667
2,21, 1,21, 0, 5,20.00,30.00,Monday
250,23.976178610890145
251,7703497.442680487
336,0.0
385,24.43
386,26.02
387,-0.021169830746655415
388,0.0
425,0.0
450,0.0
451,0.0
452,-1.6496449749288664
453,0.0
490,0.0
515,0.0
516,0.0
542,0.0
592,4750544.449015452
632,3482127.638862849
686,1.0
687,1.0
688,2.0
2,21, 1,21, 0, 5,30.00,40.00,Monday
250,24.38721969421618
251,8779379.942222336
336,0.0
385,24.43
386,26.02
387,-0.03054736099941474
388,0.0
425,0.0
450,0.0
451,0.0
452,-1.6344845586409666
453,0.0
490,0.0
515,0.0
516,0.0
542,0.0
592,4740495.740094985
632,3898977.4940033313
686,1.0
687,1.0
688,2.0
2,21, 1,21, 0, 5,40.00,50.00,Monday
250,23.289848783017156
251,6574499.43643183
336,0.0
385,23.096666666666636
386,26.01999999999996
387,-0.03473221346706358
388,0.0
425,0.0
450,0.0
451,0.0
452,-1.612613651937232
453,0.0
490,0.0
515,0.0
516,0.0
542,0.0
592,2674947.928740567
632,3815901.6827254808
686,0.5900580888089327
687,0.49999999999999933
688,1.166666666666665
2,21, 1,21, 0, 5,50.00,60.00,Monday
250,23.733568430129914
251,6434039.313953251
336,0.0
385,23.763333333333353
386,26.020000000000017
387,-0.036920661330095556
388,0.0
425,0.0
450,0.0
451,0.0
452,-1.5840725305270096
453,0.0
490,0.0
515,0.0
516,0.0
542,0.0
592,3525824.407201631
632,2819419.6781883654
686,0.7767554634171793
687,0.6666666666666672
688,1.6666666666666679
2,21, 1,21, 0, 6, 0.00,10.00,Monday
250,23.97417866574561
251,7657838.24930909
336,0.0
385,24.43
386,26.02
387,-0.0461462493063335
388,0.0
425,0.0
450,0.0
451,0.0
452,-1.5519190311336888
453,0.0
490,0.0
515,0.0
516,0.0
542,0.0
592,4724115.23717484
632,3466118.096236033
686,1.0
687,1.0
688,2.0
2,21, 1,21, 0, 6,10.00,20.00,Monday
250,24.387047598093773
251,8816937.526724637
336,0.0
385,24.43
386,26.02
387,-0.0629590783680296
388,0.0
425,0.0
450,0.0
451,0.0
452,-1.534379277655212
453,0.0
490,0.0
515,0.0
516,0.0
542,0.0
592,4717184.630480875
632,3960387.774268641
686,1.0
687,1.0
688,2.0
2,21, 1,21, 0, 6,20.00,30.00,Monday
250,23.28325602934521
251,6699043.068421456
336,0.0
385,23.096666666666685
386,26.020000000000017
387,-0.08378544276686152
388,0.0
425,0.0
450,0.0
451,0.0
452,-1.5337024491803812
453,0.0
490,0.0
515,0.0
516,0.0
542,0.0
592,2686382.826297271
632,3931171.158863557
686,0.5968484435820938
687,0.5000000000000004
688,1.1666666666666674
2,21, 1,21, 0, 6,30.00,40.00,Monday
250,23.737492984668236
251,6661389.873076963
336,0.0
385,23.763333333333353
386,26.020000000000017
387,-0.10900267028588505
388,0.0
425,0.0
450,0.0
451,0.0
452,-1.5431858502477163
453,0.0
490,0.0
515,0.0
516,0.0
542,0.0
592,3577995.004095878
632,2976125.416890149
686,0.7961071468130669
687,0.6666666666666672
688,1.6666666666666679
2,21, 1,21, 0, 6,40.00,50.00,Monday
250,23.978412600525957
251,7866489.382011622
336,0.0
385,24.43
386,26.02
387,-0.14297240487976434
388,0.0
425,0.0
450,0.0
451,0.0
452,-1.5648961113367716
453,0.0
490,0.0
515,0.0
516,0.0
542,0.0
592,4707147.779209883
632,3687326.5165274106
686,1.0
687,1.0
688,2.0
2,21, 1,21, 0, 6,50.00,60.00,Monday
250,24.38752939640836
251,9030297.508002138
336,0.0
385,24.43
386,26.02
387,-0.1756258066713131
388,0.0
425,0.0
450,0.0
451,0.0
452,-1.5931185959753398
453,0.0
490,0.0
515,0.0
516,0.0
542,0.0
592,4698633.733564452
632,4191200.1207567127
686,1.0
687,1.0
688,2.0
2,21, 1,21, 0, 7, 0.00,10.00,Monday
250,23.272824115407968
251,6896354.875903586
336,0.0
385,23.096666666666668
386,26.019999999999996
387,-0.20949387050712093
388,0.0
425,0.0
450,0.0
451,0.0
452,-1.6382652360948933
453,0.0
490,0.0
515,0.0
516,0.0
542,0.0
592,2724434.50111779
632,4093972.454977893
686,0.6068696262893414
687,0.5
688,1.1666666666666667
2,21, 1,21, 0, 7,10.00,20.00,Monday
250,23.740126735342535
251,6843483.295659876
336,0.0
385,23.763333333333332
386,26.019999999999996
387,-0.2528345383232407
388,0.0
425,0.0
450,0.0
451,0.0
452,-1.7187601095707676
453,0.0
490,0.0
515,0.0
516,0.0
542,0.0
592,3651922.241704791
632,3071555.6091378424
686,0.8106483888591869
687,0.6666666666666667
688,1.6666666666666667
2,21, 1,21, 0, 7,20.00,30.00,Monday
250,23.981049314130445
251,7986717.581943488
336,0.0
385,24.43
386,26.02
387,-0.3145045648775278
388,0.0
425,0.0
450,0.0
451,0.0
452,-1.8554310878492561
453,0.0
490,0.0
515,0.0
516,0.0
542,0.0
592,4765897.435016341
632,3745060.1552720396
686,1.0
687,1.0
688,2.0
2,21, 1,21, 0, 7,30.00,40.00,Monday
250,24.387781403589557
251,9108907.840474784
336,0.0
385,24.43
386,26.02
387,-0.3772648816940861
388,0.0
425,0.0
450,0.0
451,0.0
452,-2.017378402945937
453,0.0
490,0.0
515,0.0
516,0.0
542,0.0
592,4781101.268487237
632,4186618.6938089803
686,1.0
687,1.0
688,2.0
2,21, 1,21, 0, 7,40.00,50.00,Monday
250,23.269791848534723
251,6952392.792340904
336,0.0
385,23.096666666666636
386,26.01999999999996
387,-0.4389519564794879
388,0.0
425,0.0
450,0.0
451,0.0
452,-2.197698563720247
453,0.0
490,0.0
515,0.0
516,0.0
542,0.0
592,2774753.306835678
632,4100943.405593955
686,0.6081087719902613
687,0.49999999999999933
688,1.166666666666665
2,21, 1,21, 0, 7,50.00,60.00,Monday
250,23.740664863136463
251,6902700.997077761
336,0.0
385,23.763333333333353
386,26.020000000000017
387,-0.5114925558952725
388,0.0
425,0.0
450,0.0
451,0.0
452,-2.4173259275654404
453,0.0
490,0.0
515,0.0
516,0.0
542,0.0
592,3722234.9496779
632,3057799.864033507
686,0.8138296717290006
687,0.6666666666666672
688,1.6666666666666679
2,21, 1,21, 0, 8, 0.00,10.00,Monday
250,23.981762623351923
251,7690136.581090193
336,0.0
385,24.43
386,26.02
387,-0.5974388164367362
388,0.0
425,0.0
450,0.0
451,0.0
452,-2.681495111498219
453,0.0
490,0.0
515,0.0
516,0.0
542,0.0
592,4834565.316116662
632,3378822.4806009317
686,1.0
687,1.0
688,2.0
2,21, 1,21, 0, 8,10.00,20.00,Monday
250,24.38783587053095
251,8724739.530908559
336,0.0
385,24.43
386,26.02
387,-0.6593720739579694
388,0.0
425,0.0
450,0.0
451,0.0
452,-2.8278501498256654
453,0.0
490,0.0
515,0.0
516,0.0
542,0.0
592,4839846.964497665
632,3743474.239975334
686,1.0
687,1.0
688,2.0
2,21, 1,21, 0, 8,20.00,30.00,Monday
250,23.29310557003317
251,6511416.147713278
336,0.0
385,23.096666666666685
386,26.020000000000017
387,-0.6971050506967916
388,0.0
425,0.0
450,0.0
451,0.0
452,-2.8258025279602745
453,0.0
490,0.0
515,0.0
516,0.0
542,0.0
592,2724617.1619731663
632,3702255.195237116
686,0.5854579030537395
687,0.5000000000000004
688,1.1666666666666674
2,21, 1,21, 0, 8,30.00,40.00,Monday
250,23.731688043366184
251,6345604.562536497
336,0.0
385,23.763333333333353
386,26.020000000000017
387,-0.725733614450427
388,0.0
425,0.0
450,0.0
451,0.0
452,-2.727575660545494
453,0.0
490,0.0
515,0.0
516,0.0
542,0.0
592,3592377.000971116
632,2673444.058944862
686,0.76735270201615
687,0.6666666666666672
688,1.6666666666666679
2,21, 1,21, 0, 8,40.00,50.00,Monday
250,23.971921802128104
251,7436533.979504729
336,0.0
385,24.43
386,26.02
387,-0.7444642969077695
388,0.0
425,0.0
450,0.0
451,0.0
452,-2.492569131261534
453,0.0
490,0.0
515,0.0
516,0.0
542,0.0
592,4876765.313222176
632,3093685.1641192837
686,1.0
687,1.0
688,2.0
2,21, 1,21, 0, 8,50.00,60.00,Monday
250,24.386736813486003
251,8438740.487535652
336,0.0
385,24.43
386,26.02
387,-0.7421960933839855
388,0.0
425,0.0
450,0.0
451,0.0
452,-2.1775598984503532
453,0.0
490,0.0
515,0.0
516,0.0
542,0.0
592,4881868.245072941
632,3417985.640672078
686,1.0
687,1.0
688,2.0
2,21, 1,21, 0, 9, 0.00,10.00,Monday
250,23.3247300089364
251,5913022.385554354
336,0.0
385,23.096666666666668
386,26.019999999999996
387,-0.7159039767381334
388,0.0
425,0.0
450,0.0
451,0.0
452,-1.7983478005496414
453,0.0
490,0.0
515,0.0
516,0.0
542,0.0
592,2646184.8639422846
632,3171860.887235423
686,0.5554178668853935
687,0.5
688,1.1666666666666667
2,21, 1,21, 0, 9,10.00,20.00,Monday
250,23.720961914052033
251,5673650.0900238585
336,0.0
385,23.763333333333332
386,26.019999999999996
387,-0.6703909274956944
388,0.0
425,0.0
450,0.0
451,0.0
452,-1.3169739176568187
453,0.0
490,0.0
515,0.0
516,0.0
542,0.0
592,3444473.820296279
632,2200085.0345227085
686,0.7137716459557858
687,0.6666666666666667
688,1.6666666666666667
2,21, 1,21, 0, 9,20.00,30.00,Monday
250,23.75242575617612
251,7030361.268258531
336,0.0
385,23.763333333333325
386,26.01999999999999
387,-0.5904247939633901
388,0.0
425,0.0
450,0.0
451,0.0
452,-0.611214202925617
453,0.0
490,0.0
515,0.0
516,0.0
542,0.0
592,3015432.236159605
632,3883701.21430654
686,0.719694963050236
687,0.3333333333333332
688,1.3333333333333328
2,21, 1,21, 0, 9,30.00,40.00,Monday
250,23.753660066431074
251,6990123.496925815
336,0.0
385,23.763333333333343
386,26.02000000000001
387,-0.5037219592788411
388,0.0
425,0.0
450,0.0
451,0.0
452,0.037073534508555744
453,0.0
490,0.0
515,0.0
516,0.0
542,0.0
592,3032970.829475534
632,3822215.1951249763
686,0.7214483761685926
687,0.3333333333333332
688,1.3333333333333335
2,21, 1,21, 0, 9,40.00,50.00,Monday
250,23.75306365387766
251,6966627.100932419
336,0.0
385,23.763333333333353
386,26.020000000000017
387,-0.4230550803323996
388,0.0
425,0.0
450,0.0
451,0.0
452,0.6519586418315313
453,0.0
490,0.0
515,0.0
516,0.0
542,0.0
592,3023355.6679659877
632,3810633.4544515745
686,0.715571293155882
687,0.3333333333333336
688,1.3333333333333344
2,21, 1,21, 0, 9,50.00,60.00,Monday
250,24.363929334616927
251,7655910.3935810905
336,0.0
385,24.43
386,26.02
387,-0.35137851513508495
388,0.0
425,0.0
450,0.0
451,0.0
452,1.1585730485099672
453,0.0
490,0.0
515,0.0
516,0.0
542,0.0
592,4987886.41021877
632,2586178.8303027363
686,1.0
687,1.0
688,2.0
2,21, 1,21, 0,10, 0.00,10.00,Monday
250,23.336656901720357
251,5667396.229442823
336,0.0
385,23.096666666666668
386,26.019999999999996
387,-0.27916175045401337
388,0.0
425,0.0
450,0.0
451,0.0
452,1.6217102283398634
453,0.0
490,0.0
515,0.0
516,0.0
542,0.0
592,2660374.580785054
632,2908904.192637898
686,0.5423810435536913
687,0.4967560684331881
688,1.1666666666666667
2,21, 1,21, 0,10,10.00,20.00,Monday
250,23.715669582763343
251,5354800.534564588
336,0.0
385,23.763333333333332
386,26.019999999999996
387,-0.19278635012153264
388,0.0
425,0.0
450,0.0
451,0.0
452,2.130372580801545
453,0.0
490,0.0
515,0.0
516,0.0
542,0.0
592,3453503.182028078
632,1896176.4139241646
686,0.6896616283185222
687,0.6666666666666667
688,1.6666666666666667
2,21, 1,21, 0,10,20.00,30.00,Monday
250,23.746339801465496
251,6706791.248979638
336,0.0
385,23.763333333333325
386,26.01999999999999
387,-0.05811154508694796
388,0.0
425,0.0
450,0.0
451,0.0
452,2.8198807654326306
453,0.0
490,0.0
515,0.0
516,0.0
542,0.0
592,2863781.551005822
632,3747399.4591088323
686,0.6522617899153951
687,0.3333333333333332
688,1.3333333333333328
2,21, 1,21, 0,10,30.00,40.00,Monday
250,23.746464728193562
251,6618885.312889345
336,0.0
385,23.763333333333343
386,26.02000000000001
387,0.07271501803911179
388,0.0
425,0.0
450,0.0
451,0.0
452,3.4504664160471847
453,0.0
490,0.0
515,0.0
516,0.0
542,0.0
592,2856789.9730880754
632,3667604.3810655684
686,0.6452747789326259
687,0.3333333333333332
688,1.3333333333333335
2,21, 1,21, 0,10,40.00,50.00,Monday
250,23.74458764324204
251,6509851.403418732
336,0.0
385,23.763333333333353
386,26.020000000000017
387,0.2113042070243496
388,0.0
425,0.0
450,0.0
451,0.0
452,4.1272826842779615
453,0.0
490,0.0
515,0.0
516,0.0
542,0.0
592,2800692.505357432
632,3625601.660798084
686,0.6251412916959828
687,0.3333333333333336
688,1.3333333333333344
2,21, 1,21, 0,10,50.00,60.00,Monday
250,23.742626760911275
251,6398978.102895853
336,0.0
385,23.763333333333353
386,26.020000000000017
387,0.367738013305177
388,0.0
425,0.0
450,0.0
451,0.0
452,4.884807004911028
453,0.0
490,0.0
515,0.0
516,0.0
542,0.0
592,2741743.8977733385
632,3584948.099704334
686,0.6045032910385473
687,0.3333333333333336
688,1.3333333333333344
2,21, 1,21, 0,11, 0.00,10.00,Monday
250,23.740710175487767
251,6289496.556411275
336,0.0
385,23.763333333333332
386,26.019999999999996
387,0.5377707527278823
388,0.0
425,0.0
450,0.0
451,0.0
452,5.706539262330835
453,0.0
490,0.0
515,0.0
516,0.0
542,0.0
592,2678369.2672167523
632,3549728.65207376
686,0.5849755634729283
687,0.3333333333333333
688,1.3333333333333335
2,21, 1,21, 0,11,10.00,20.00,Monday
250,23.738765175413473
251,6177368.856291535
336,0.0
385,23.763333333333332
386,26.019999999999996
387,0.7185916354916742
388,0.0
425,0.0
450,0.0
451,0.0
452,6.573615009306181
453,0.0
490,0.0
515,0.0
516,0.0
542,0.0
592,2613737.8322273185
632,3513240.1082586343
686,0.5652525318027478
687,0.33333333333333337
688,1.3333333333333333
2,21, 1,21, 0,11,20.00,30.00,Monday
250,23.546340558482772
251,5310407.125861137
336,0.0
385,23.43
386,26.02
387,0.8680959411656817
388,0.0
425,0.0
450,0.0
451,0.0
452,7.347281267583949
453,0.0
490,0.0
515,0.0
516,0.0
542,0.0
592,3885616.9948645486
632,1264504.754884925
686,0.75
687,0.7175693822666849
688,1.5
2,21, 1,21, 0,11,30.00,40.00,Monday
250,23.49841434303183
251,5867060.577601317
336,0.0
385,23.43
386,26.02
387,1.1005587700163462
388,0.0
425,0.0
450,0.0
451,0.0
452,8.372342066100263
453,0.0
490,0.0
515,0.0
516,0.0
542,0.0
592,3076981.360805209
632,2704413.675567409
686,0.6175406063510562
687,0.5
688,1.25
2,21, 1,21, 0,11,40.00,50.00,Monday
250,23.50186515072119
251,5693124.985984728
336,0.0
385,23.43
386,26.02
387,1.3288394025602719
388,0.0
425,0.0
450,0.0
451,0.0
452,9.245852867665345
453,0.0
490,0.0
515,0.0
516,0.0
542,0.0
592,3085687.4228826715
632,2525787.777545375
686,0.6169861170868696
687,0.5
688,1.25
2,21, 1,21, 0,11,50.00,60.00,Monday
250,23.767283984450614
251,4495862.756608317
336,0.0
385,23.763333333333353
386,26.020000000000017
387,1.5062714289679393
388,0.0
425,0.0
450,0.0
451,0.0
452,9.894965010394435
453,0.0
490,0.0
515,0.0
516,0.0
542,0.0
592,3397421.6251370064
632,1092922.058229563
686,0.6666666666666672
687,0.5755979871226932
688,1.3333333333333344
2,21, 1,21, 0,12, 0.00,10.00,Monday
250,23.396557197277055
251,4560521.114563226
336,0.0
385,23.23
386,26.020000000000003
387,1.6827667871087595
388,0.0
425,0.0
450,0.0
451,0.0
452,10.461249002557434
453,0.0
490,0.0
515,0.0
516,0.0
542,0.0
592,2365924.6109642796
632,2242516.417300162
686,0.4633008931165614
687,0.4
688,1.0
2,21, 1,21, 0,12,10.00,20.00,Monday
250,23.691859888719627
251,6147711.376162829
336,0.0
385,23.763333333333332
386,26.019999999999996
387,1.8695405967965368
388,0.0
425,0.0
450,0.0
451,0.0
452,10.954356921681164
453,0.0
490,0.0
515,0.0
516,0.0
542,0.0
592,3564999.55979113
632,2651593.6506854426
686,0.8019847936198745
687,0.33333333333333337
688,1.3333333333333333
2,21, 1,21, 0,12,20.00,30.00,Monday
250,23.824085271036992
251,4512745.431743393
336,0.0
385,23.763333333333325
386,26.01999999999999
387,2.122272927320046
388,0.0
425,0.0
450,0.0
451,0.0
452,11.453008929383726
453,0.0
490,0.0
515,0.0
516,0.0
542,0.0
592,3547445.3555280203
632,922920.0369767165
686,0.6666666666666664
687,0.6666666666666664
688,1.3333333333333328
2,21, 1,21, 0,12,30.00,40.00,Monday
250,23.419457600761742
251,4380635.811685674
336,0.0
385,23.22999999999999
386,26.019999999999992
387,2.2665589941631583
388,0.0
425,0.0
450,0.0
451,0.0
452,11.66455874441677
453,0.0
490,0.0
515,0.0
516,0.0
542,0.0
592,2319492.8035388067
632,2103691.0154740107
686,0.4486369000771053
687,0.3999999999999997
688,0.9999999999999993
2,21, 1,21, 0,12,40.00,50.00,Monday
250,23.69054259021731
251,5986256.839187531
336,0.0
385,23.76333333333335
386,26.020000000000017
387,2.402495235328641
388,0.0
425,0.0
450,0.0
451,0.0
452,11.764471933486735
453,0.0
490,0.0
515,0.0
516,0.0
542,0.0
592,3462221.3415608606
632,2601504.9825675483
686,0.771353741105862
687,0.3333333333333336
688,1.3333333333333344
2,21, 1,21, 0,12,50.00,60.00,Monday
250,23.832272314832046
251,4432175.714953929
336,0.0
385,23.763333333333353
386,26.020000000000017
387,2.572897262681411
388,0.0
425,0.0
450,0.0
451,0.0
452,11.762459517860933
453,0.0
490,0.0
515,0.0
516,0.0
542,0.0
592,3562201.741799791
632,827784.2345589506
686,0.6666666666666672
687,0.6666666666666672
688,1.3333333333333344
2,21, 1,21, 0,13, 0.00,10.00,Monday
250,23.426381532857594
251,4311551.873936346
336,0.0
385,23.23
386,26.020000000000003
387,2.663513365470025
388,0.0
425,0.0
450,0.0
451,0.0
452,11.670914624936932
453,0.0
490,0.0
515,0.0
516,0.0
542,0.0
592,2301377.4732950446
632,2051530.3545559796
686,0.4426810438230751
687,0.4
688,1.0
2,21, 1,21, 0,13,10.00,20.00,Monday
250,23.689382468368542
251,5855391.874259852
336,0.0
385,23.763333333333332
386,26.019999999999996
387,2.7479158288052474
388,0.0
425,0.0
450,0.0
451,0.0
452,11.578940561091374
453,0.0
490,0.0
515,0.0
516,0.0
542,0.0
592,3379040.1588675436
632,2560576.3285767627
686,0.7497138379889718
687,0.33333333333333337
688,1.3333333333333333
2,21, 1,21, 0,13,20.00,30.00,Monday
250,23.84701161437061
251,4304125.334684738
336,0.0
385,23.763333333333325
386,26.01999999999999
387,2.856337617523913
388,0.0
425,0.0
450,0.0
451,0.0
452,11.491623536213366
453,0.0
490,0.0
515,0.0
516,0.0
542,0.0
592,3554691.3010860663
632,707434.0228280143
686,0.6666666666666664
687,0.6666666666666664
688,1.3333333333333328
2,21, 1,21, 0,13,30.00,40.00,Monday
250,23.443552117942414
251,4159090.104659406
336,0.0
385,23.22999999999999
386,26.019999999999992
387,2.9218015231841976
388,0.0
425,0.0
450,0.0
451,0.0
452,11.464422447272732
453,0.0
490,0.0
515,0.0
516,0.0
542,0.0
592,2198358.3825725336
632,2002162.2577779146
686,0.4315204115545466
687,0.3626037857641893
688,0.9999999999999993
2,21, 1,21, 0,13,40.00,50.00,Monday
250,23.68744361354343
251,5638179.864651927
336,0.0
385,23.76333333333335
386,26.020000000000017
387,2.989321265229539
388,0.0
425,0.0
450,0.0
451,0.0
452,11.4481959791717
453,0.0
490,0.0
515,0.0
516,0.0
542,0.0
592,3228205.473966836
632,2506963.0786003186
686,0.7122135157091921
687,0.3333333333333336
688,1.3333333333333344
2,21, 1,21, 0,13,50.00,60.00,Monday
250,23.864392800709798
251,4158443.303074039
336,0.0
385,23.763333333333353
386,26.020000000000017
387,3.081898676637031
388,0.0
425,0.0
450,0.0
451,0.0
452,11.43382029830001
453,0.0
490,0.0
515,0.0
516,0.0
542,0.0
592,3547173.065614733
632,569534.991397395
686,0.6666666666666672
687,0.6666666666666672
688,1.3333333333333344
2,21, 1,21, 0,14, 0.00,10.00,Monday
250,23.460636234433927
251,4017581.1320696077
336,0.0
385,23.23
386,26.020000000000003
387,3.143716657375231
388,0.0
425,0.0
450,0.0
451,0.0
452,11.393496195122346
453,0.0
490,0.0
515,0.0
516,0.0
542,0.0
592,2060350.6732969463
632,2001724.5744574838
686,0.4215550139079764
687,0.29402617516662183
688,1.0
2,21, 1,21, 0,14,10.00,20.00,Monday
250,23.68563974002401
251,5453929.599590363
336,0.0
385,23.763333333333332
386,26.019999999999996
387,3.2076809287797703
388,0.0
425,0.0
450,0.0
451,0.0
452,11.289444488434842
453,0.0
490,0.0
515,0.0
516,0.0
542,0.0
592,3107409.2109981654
632,2455873.4758775425
686,0.6774029197576348
687,0.33333333333333337
688,1.3333333333333333
2,21, 1,21, 0,14,20.00,30.00,Monday
250,23.413123933903734
251,5128255.452029605
336,0.0
385,23.43
386,26.02
387,3.2687599037129993
388,0.0
425,0.0
450,0.0
451,0.0
452,11.12105490164479
453,0.0
490,0.0
515,0.0
516,0.0
542,0.0
592,3162322.9144076053
632,2041609.7042502095
686,0.6249554051440556
687,0.5
688,1.25
2,21, 1,21, 0,14,30.00,40.00,Monday