Program Version,EnergyPlus, Version 24.2.0-94a887817b, YMD=2025.02.12 11:46
1,5,Environment Title[],Latitude[deg],Longitude[deg],Time Zone[],Elevation[m]
2,8,Day of Simulation[],Month[],Day of Month[],DST Indicator[1=yes 0=no],Hour[],StartMinute[],EndMinute[],DayType
3,5,Cumulative Day of Simulation[],Month[],Day of Month[],DST Indicator[1=yes 0=no],DayType  ! When Daily Meters Requested
4,2,Cumulative Days of Simulation[],Month[]  ! When Monthly Meters Requested
5,1,Cumulative Days of Simulation[] ! When Run Period Meters Requested
6,1,Calendar Year of Simulation[] ! When Annual Meters Requested
11,9,Electricity:Facility [J] !Monthly [Value,Min,Day,Hour,Minute,Max,Day,Hour,Minute]
23,9,Electricity:Building [J] !Monthly [Value,Min,Day,Hour,Minute,Max,Day,Hour,Minute]
59,9,InteriorLights:Electricity [J] !Monthly [Value,Min,Day,Hour,Minute,Max,Day,Hour,Minute]
521,9,Electricity:HVAC [J] !Monthly [Value,Min,Day,Hour,Minute,Max,Day,Hour,Minute]
637,9,NaturalGas:Facility [J] !Monthly [Value,Min,Day,Hour,Minute,Max,Day,Hour,Minute]
649,9,NaturalGas:HVAC [J] !Monthly [Value,Min,Day,Hour,Minute,Max,Day,Hour,Minute]
13,11,Electricity:Facility [J] !RunPeriod [Value,Min,Month,Day,Hour,Minute,Max,Month,Day,Hour,Minute]
25,11,Electricity:Building [J] !RunPeriod [Value,Min,Month,Day,Hour,Minute,Max,Month,Day,Hour,Minute]
61,11,InteriorLights:Electricity [J] !RunPeriod [Value,Min,Month,Day,Hour,Minute,Max,Month,Day,Hour,Minute]
523,11,Electricity:HVAC [J] !RunPeriod [Value,Min,Month,Day,Hour,Minute,Max,Month,Day,Hour,Minute]
639,11,NaturalGas:Facility [J] !RunPeriod [Value,Min,Month,Day,Hour,Minute,Max,Month,Day,Hour,Minute]
651,11,NaturalGas:HVAC [J] !RunPeriod [Value,Min,Month,Day,Hour,Minute,Max,Month,Day,Hour,Minute]
End of Data Dictionary
1,RUN PERIOD 1,  41.98, -87.92,  -6.00, 201.00
4,31, 1
11,9560619237.55217,556362.7530898849,31,21,20,3554590.11603055,23,14,10
23,1921387801.306685,110491.304932472,11,20,60,1059074.7718690513,31,14,10
59,973799728.6726805,30111.30886433645, 1, 1,10,602226.177286729, 1, 8,10
521,7639231436.245505,0.0,11,14,50,2578343.3771823416,27,19,50
637,17181005560.45815,0.0, 1, 8,30,20809075.099238984,31, 7,40
649,17181005560.45815,0.0, 1, 8,30,20809075.099238984,31, 7,40
4,59, 2
11,8103936710.211862,498428.4129749484,13,19,20,-99999999999999.0,23,14,10
23,1694727723.452756,99999999999999.0,11,20,60,-99999999999999.0,31,14,10
59,851306924.2125486,99999999999999.0, 1, 1,10,-99999999999999.0, 1, 8,10
521,6409208986.759105,99999999999999.0,11,14,50,2614078.2479472393, 5, 2,20
637,13951804221.019455,99999999999999.0, 1, 8,30,21699799.72876019, 3, 8,20
649,13951804221.019455,99999999999999.0, 1, 8,30,21699799.72876019, 3, 8,20
4,90, 3
11,8321114655.09075,347030.08181350987,31,22,20,-99999999999999.0,23,14,10
23,1787653074.7492273,97814.79888192688,31,16,60,1068465.6575471014,18, 9,60
59,900809915.9855248,99999999999999.0, 1, 1,10,-99999999999999.0, 1, 8,10
521,6533461580.34155,99999999999999.0,11,14,50,-99999999999999.0, 5, 2,20
637,10390481499.403059,99999999999999.0, 1, 8,30,-99999999999999.0, 3, 8,20
649,10390481499.403059,99999999999999.0, 1, 8,30,-99999999999999.0, 3, 8,20
4,120, 4
11,5759510300.947837,30111.30886433645,12,19,10,-99999999999999.0,23,14,10
23,1714819769.935383,30111.30886433645,11,19,10,-99999999999999.0,18, 9,60
59,932968793.8526386,99999999999999.0, 1, 1,10,-99999999999999.0, 1, 8,10
521,4044690531.012464,99999999999999.0,11,14,50,-99999999999999.0, 5, 2,20
637,4062662988.6939883,99999999999999.0, 1, 8,30,-99999999999999.0, 3, 8,20
649,4062662988.6939883,99999999999999.0, 1, 8,30,-99999999999999.0, 3, 8,20
4,151, 5
11,4520899070.912975,99999999999999.0,12,19,10,-99999999999999.0,23,14,10
23,1683193978.3230116,99999999999999.0,11,19,10,-99999999999999.0,18, 9,60
59,973799728.6726847,99999999999999.0, 1, 1,10,-99999999999999.0, 1, 8,10
521,2837705092.5899906,99999999999999.0,11,14,50,-99999999999999.0, 5, 2,20
637,1226925054.5469773,99999999999999.0, 1, 8,30,-99999999999999.0, 3, 8,20
649,1226925054.5469773,99999999999999.0, 1, 8,30,-99999999999999.0, 3, 8,20
4,181, 6
11,3749329382.664758,99999999999999.0,12,19,10,-99999999999999.0,23,14,10
23,1412032591.1775982,99999999999999.0,11,19,10,-99999999999999.0,18, 9,60
59,859978981.165484,99999999999999.0, 1, 1,10,-99999999999999.0, 1, 8,10
521,2337296791.487202,99999999999999.0,11,14,50,-99999999999999.0, 5, 2,20
637,170660542.1859973,99999999999999.0, 1, 8,30,-99999999999999.0, 3, 8,20
649,170660542.1859973,99999999999999.0, 1, 8,30,-99999999999999.0, 3, 8,20
4,212, 7
11,4190993214.768316,99999999999999.0,12,19,10,-99999999999999.0,23,14,10
23,1512428864.098349,99999999999999.0,11,19,10,-99999999999999.0,18, 9,60
59,973799728.6726805,99999999999999.0, 1, 1,10,-99999999999999.0, 1, 8,10
521,2678564350.6700234,99999999999999.0,11,14,50,-99999999999999.0, 5, 2,20
637,30410083.46094101,99999999999999.0, 1, 8,30,-99999999999999.0, 3, 8,20
649,30410083.46094101,99999999999999.0, 1, 8,30,-99999999999999.0, 3, 8,20
4,243, 8
11,3879997034.2860703,99999999999999.0,12,19,10,-99999999999999.0,23,14,10
23,1482563848.560267,99999999999999.0,11,19,10,-99999999999999.0,18, 9,60
59,937304822.3291099,99999999999999.0, 1, 1,10,-99999999999999.0, 1, 8,10
521,2397433185.7258472,99999999999999.0,11,14,50,-99999999999999.0, 5, 2,20
637,92995658.09584303,99999999999999.0, 1, 8,30,-99999999999999.0, 3, 8,20
649,92995658.09584303,99999999999999.0, 1, 8,30,-99999999999999.0, 3, 8,20
4,273, 9
11,3631067676.427428,99999999999999.0,12,19,10,-99999999999999.0,23,14,10
23,1496623967.2806487,99999999999999.0,11,19,10,-99999999999999.0,18, 9,60
59,896473887.5090613,99999999999999.0, 1, 1,10,-99999999999999.0, 1, 8,10
521,2134443709.1467865,99999999999999.0,11,14,50,-99999999999999.0, 5, 2,20
637,264205378.37304252,99999999999999.0, 1, 8,30,-99999999999999.0, 3, 8,20
649,264205378.37304252,99999999999999.0, 1, 8,30,-99999999999999.0, 3, 8,20
4,304,10
11,4886127070.091201,99999999999999.0,12,19,10,-99999999999999.0,23,14,10
23,1743300615.3535843,99999999999999.0,11,19,10,-99999999999999.0,18, 9,60
59,973799728.6726805,99999999999999.0, 1, 1,10,-99999999999999.0, 1, 8,10
521,3142826454.7376227,99999999999999.0,11,14,50,-99999999999999.0, 5, 2,20
637,2308585462.065327,99999999999999.0, 1, 8,30,-99999999999999.0, 3, 8,20
649,2308585462.065327,99999999999999.0, 1, 8,30,-99999999999999.0, 3, 8,20
4,334,11
11,7252152068.279468,99999999999999.0,12,19,10,-99999999999999.0,23,14,10
23,1723761755.7459722,99999999999999.0,11,19,10,-99999999999999.0,18, 9,60
59,896473887.5090576,99999999999999.0, 1, 1,10,-99999999999999.0, 1, 8,10
521,5528390312.533496,99999999999999.0,11,14,50,-99999999999999.0, 5, 2,20
637,8694599118.05067,99999999999999.0, 1, 8,30,-99999999999999.0, 3, 8,20
649,8694599118.05067,99999999999999.0, 1, 8,30,-99999999999999.0, 3, 8,20
4,365,12
11,8564460991.511453,99999999999999.0,12,19,10,3565537.6737602483,18,11,60
23,1817828280.0475771,99999999999999.0,11,19,10,-99999999999999.0,18, 9,60
59,937304822.3291032,99999999999999.0, 1, 1,10,-99999999999999.0, 1, 8,10
521,6746632711.463899,99999999999999.0,11,14,50,-99999999999999.0, 5, 2,20
637,10310913059.87568,99999999999999.0, 1, 8,30,-99999999999999.0, 3, 8,20
649,10310913059.87568,99999999999999.0, 1, 8,30,-99999999999999.0, 3, 8,20
5,365
13,72420207412.74252,30111.30886433645, 4,12,19,10,3565537.6737602483,12,18,11,60
25,19990322270.032764,30111.30886433645, 4,11,19,10,1068465.6575471014, 3,18, 9,60
61,11107820949.586432,30111.30886433645, 1, 1, 1,10,602226.177286729, 1, 1, 8,10
523,52429885142.71352,0.0, 1,11,14,50,2614078.2479472393, 2, 5, 2,20
639,68685248626.22892,0.0, 1, 1, 8,30,21699799.72876019, 2, 3, 8,20
651,68685248626.22892,0.0, 1, 1, 8,30,21699799.72876019, 2, 3, 8,20
1,RUN PERIOD 2,  41.98, -87.92,  -6.00, 201.00
4,1, 7
11,126653038.21791123,99999999999999.0,12,19,10,-99999999999999.0,18,11,60
23,63851239.62208747,99999999999999.0,11,19,10,-99999999999999.0,18, 9,60
59,40830934.8200401,99999999999999.0, 1, 1,10,-99999999999999.0, 1, 8,10
521,62801798.595823646,99999999999999.0,11,14,50,-99999999999999.0, 5, 2,20
637,981327.3590828003,99999999999999.0, 1, 8,30,-99999999999999.0, 3, 8,20
649,981327.3590828003,99999999999999.0, 1, 8,30,-99999999999999.0, 3, 8,20
5,1
13,126653038.21791123,99999999999999.0, 4,12,19,10,-99999999999999.0,12,18,11,60
25,63851239.62208747,99999999999999.0, 4,11,19,10,-99999999999999.0, 3,18, 9,60
61,40830934.8200401,99999999999999.0, 1, 1, 1,10,-99999999999999.0, 1, 1, 8,10
523,62801798.595823646,99999999999999.0, 1,11,14,50,-99999999999999.0, 2, 5, 2,20
639,981327.3590828003,99999999999999.0, 1, 1, 8,30,-99999999999999.0, 2, 3, 8,20
651,981327.3590828003,99999999999999.0, 1, 1, 8,30,-99999999999999.0, 2, 3, 8,20
End of Data
 Number of Records Written=          90
