Program Version,EnergyPlus, Version 24.2.0-94a887817b, YMD=2025.02.12 11:46
1,5,Environment Title[],Latitude[deg],Longitude[deg],Time Zone[],Elevation[m]
2,8,Day of Simulation[],Month[],Day of Month[],DST Indicator[1=yes 0=no],Hour[],StartMinute[],EndMinute[],DayType
3,5,Cumulative Day of Simulation[],Month[],Day of Month[],DST Indicator[1=yes 0=no],DayType  ! When Daily Report Variables Requested
4,2,Cumulative Days of Simulation[],Month[]  ! When Monthly Report Variables Requested
5,1,Cumulative Days of Simulation[] ! When Run Period Report Variables Requested
6,1,Calendar Year of Simulation[] ! When Annual Report Variables Requested
250,1,LIVING ZONE,Zone Air Temperature [C] !TimeStep,REPORTSCH
251,1,LIVING ZONE,Zone Air System Sensible Heating Energy [J] !TimeStep,REPORTSCH
336,1,LIVING ZONE,Zone Air System Sensible Cooling Energy [J] !TimeStep,REPORTSCH
385,1,LIVING ZONE,Zone Thermostat Heating Setpoint Temperature [C] !TimeStep,REPORTSCH
386,1,LIVING ZONE,Zone Thermostat Cooling Setpoint Temperature [C] !TimeStep,REPORTSCH
387,1,GARAGE ZONE,Zone Air Temperature [C] !TimeStep,REPORTSCH
388,1,GARAGE ZONE,Zone Air System Sensible Heating Energy [J] !TimeStep,REPORTSCH
425,1,GARAGE ZONE,Zone Air System Sensible Cooling Energy [J] !TimeStep,REPORTSCH
450,1,GARAGE ZONE,Zone Thermostat Heating Setpoint Temperature [C] !TimeStep,REPORTSCH
451,1,GARAGE ZONE,Zone Thermostat Cooling Setpoint Temperature [C] !TimeStep,REPORTSCH
452,1,ATTIC ZONE,Zone Air Temperature [C] !TimeStep,REPORTSCH
453,1,ATTIC ZONE,Zone Air System Sensible Heating Energy [J] !TimeStep,REPORTSCH
490,1,ATTIC ZONE,Zone Air System Sensible Cooling Energy [J] !TimeStep,REPORTSCH
515,1,ATTIC ZONE,Zone Thermostat Heating Setpoint Temperature [C] !TimeStep,REPORTSCH
516,1,ATTIC ZONE,Zone Thermostat Cooling Setpoint Temperature [C] !TimeStep,REPORTSCH
542,1,ACDXCOIL 1,Cooling Coil Total Cooling Energy [J] !TimeStep,REPORTSCH
592,1,HEAT PUMP DX HEATING COIL 1,Heating Coil Heating Energy [J] !TimeStep,REPORTSCH
632,1,SUPP HEATING COIL 1,Heating Coil Heating Energy [J] !TimeStep,REPORTSCH
686,1,TWOSPEED HEAT PUMP 1,Unitary System DX Coil Cycling Ratio [] !TimeStep,REPORTSCH
687,1,TWOSPEED HEAT PUMP 1,Unitary System DX Coil Speed Ratio [] !TimeStep,REPORTSCH
688,1,TWOSPEED HEAT PUMP 1,Unitary System DX Coil Speed Level [] !TimeStep,REPORTSCH
End of Data Dictionary
1,RUN PERIOD 1,  41.98, -87.92,  -6.00, 201.00
2,21, 1,21, 0, 1, 0.00,10.00,Monday
250,23.69431013526352
251,6286934.424043938
336,0.0
385,23.486666666666668
386,25.020000000000003
387,0.6570528397228618
388,0.0
425,0.0
450,0.0
451,0.0
452,-1.5899248977262785
453,0.0
490,0.0
515,0.0
516,0.0
542,0.0
592,2697760.065788974
632,3501044.2999796127
686,0.5737238829180591
687,0.5
688,1.1666666666666667
2,21, 1,21, 0, 1,10.00,20.00,Monday
250,24.119293417616852
251,6171222.927168529
336,0.0
385,24.153333333333336
386,25.02
387,0.6309105955666745
388,0.0
425,0.0
450,0.0
451,0.0
452,-1.5794461406998708
453,0.0
490,0.0
515,0.0
516,0.0
542,0.0
592,3550200.8198471367
632,2551963.9140605247
686,0.7550702622127304
687,0.6666666666666667
688,1.6666666666666667
2,21, 1,21, 0, 1,20.00,30.00,Monday
250,24.356888010459567
251,7375585.124270869
336,0.0
385,24.82
386,25.02
387,0.6002811451528015
388,0.0
425,0.0
450,0.0
451,0.0
452,-1.5690031006030445
453,0.0
490,0.0
515,0.0
516,0.0
542,0.0
592,4846281.86006385
632,3064953.0614078576
686,1.0
687,1.0
688,2.0
2,21, 1,21, 0, 1,30.00,40.00,Monday
250,24.77609868313686
251,8496061.374993194
336,0.0
385,24.82
386,25.02
387,0.5737259836661823
388,0.0
425,0.0
450,0.0
451,0.0
452,-1.5625603770997771
453,0.0
490,0.0
515,0.0
516,0.0
542,0.0
592,4828658.3772280915
632,3529864.302268247
686,1.0
687,1.0
688,2.0
2,21, 1,21, 0, 1,40.00,50.00,Monday
250,23.691045220082394
251,6350763.489573566
336,0.0
385,23.486666666666636
386,25.019999999999964
387,0.5516475805663508
388,0.0
425,0.0
450,0.0
451,0.0
452,-1.5597103808781476
453,0.0
490,0.0
515,0.0
516,0.0
542,0.0
592,2676720.595424081
632,3586868.145687931
686,0.577744881424712
687,0.49999999999999933
688,1.166666666666665
2,21, 1,21, 0, 1,50.00,60.00,Monday
250,24.12059284366055
251,6242118.980278147
336,0.0
385,24.153333333333354
386,25.02000000000002
387,0.5282294650228003
388,0.0
425,0.0
450,0.0
451,0.0
452,-1.5579369382382386
453,0.0
490,0.0
515,0.0
516,0.0
542,0.0
592,3526080.9339948455
632,2640966.7186486768
686,0.761454785462723
687,0.6666666666666672
688,1.6666666666666679
2,21, 1,21, 0, 2, 0.00,10.00,Monday
250,24.358576220723613
251,7427872.517390303
336,0.0
385,24.82
386,25.02
387,0.49993516125738713
388,0.0
425,0.0
450,0.0
451,0.0
452,-1.5578714060531529
453,0.0
490,0.0
515,0.0
516,0.0
542,0.0
592,4798802.136319906
632,3163540.063964987
686,1.0
687,1.0
688,2.0
2,21, 1,21, 0, 2,10.00,20.00,Monday
250,24.776285603207697
251,8534956.017281553
336,0.0
385,24.82
386,25.02
387,0.4747838088108427
388,0.0
425,0.0
450,0.0
451,0.0
452,-1.56132288971178
453,0.0
490,0.0
515,0.0
516,0.0
542,0.0
592,4797025.27600521
632,3599977.6740301624
686,1.0
687,1.0
688,2.0
2,21, 1,21, 0, 2,20.00,30.00,Monday
250,23.68985785005555
251,6374054.614671046
336,0.0
385,23.486666666666686
386,25.020000000000017
387,0.45326439648593997
388,0.0
425,0.0
450,0.0
451,0.0
452,-1.5687474026272374
453,0.0
490,0.0
515,0.0
516,0.0
542,0.0
592,2672792.0634732773
632,3614450.980612863
686,0.5791505795708383
687,0.5000000000000004
688,1.1666666666666674
2,21, 1,21, 0, 2,30.00,40.00,Monday
250,24.12070077243
251,6252961.245785827
336,0.0
385,24.153333333333354
386,25.02000000000002
387,0.4300180243180439
388,0.0
425,0.0
450,0.0
451,0.0
452,-1.5796859943240888
453,0.0
490,0.0
515,0.0
516,0.0
542,0.0
592,3528516.0771132773
632,2648878.362735213
686,0.7621583755444417
687,0.6666666666666672
688,1.6666666666666679
2,21, 1,21, 0, 2,40.00,50.00,Monday
250,24.3589287793496
251,7436905.25185723
336,0.0
385,24.82
386,25.02
387,0.4014486564752448
388,0.0
425,0.0
450,0.0
451,0.0
452,-1.5954706063497752
453,0.0
490,0.0
515,0.0
516,0.0
542,0.0
592,4798801.167229856
632,3172626.528466819
686,1.0
687,1.0
688,2.0
2,21, 1,21, 0, 2,50.00,60.00,Monday
250,24.776324526710475
251,8542583.786449106
336,0.0
385,24.82
386,25.02
387,0.37577914217866015
388,0.0
425,0.0
450,0.0
451,0.0
452,-1.6119257999727261
453,0.0
490,0.0
515,0.0
516,0.0
542,0.0
592,4797025.27600521
632,3607527.9695672705
686,1.0
687,1.0
688,2.0
2,21, 1,21, 0, 3, 0.00,10.00,Monday
250,23.688954243257758
251,6391338.039371462
336,0.0
385,23.486666666666668
386,25.020000000000003
387,0.3541550235187234
388,0.0
425,0.0
450,0.0
451,0.0
452,-1.626436213728192
453,0.0
490,0.0
515,0.0
516,0.0
542,0.0
592,2675855.0296296687
632,3628974.5509238346
686,0.5800350323574572
687,0.5
688,1.1666666666666667
2,21, 1,21, 0, 3,10.00,20.00,Monday
250,24.1211871676467
251,6283502.654213084
336,0.0
385,24.153333333333336
386,25.02
387,0.33151561171834076
388,0.0
425,0.0
450,0.0
451,0.0
452,-1.6381944614821773
453,0.0
490,0.0
515,0.0
516,0.0
542,0.0
592,3536544.504893596
632,2669166.184481533
686,0.7644780429657393
687,0.6666666666666667
688,1.6666666666666667
2,21, 1,21, 0, 3,20.00,30.00,Monday
250,24.359777824191713
251,7477279.269242745
336,0.0
385,24.82
386,25.02
387,0.30465885438861984
388,0.0
425,0.0
450,0.0
451,0.0
452,-1.6458692024804027
453,0.0
490,0.0
515,0.0
516,0.0
542,0.0
592,4798797.446760663
632,3212703.4934003847
686,1.0
687,1.0
688,2.0
2,21, 1,21, 0, 3,30.00,40.00,Monday
250,24.776436919796065
251,8594145.03180667
336,0.0
385,24.82
386,25.02
387,0.2817560443181766
388,0.0
425,0.0
450,0.0
451,0.0
452,-1.6462908349509537
453,0.0
490,0.0
515,0.0
516,0.0
542,0.0
592,4797025.27600521
632,3658878.256899041
686,1.0
687,1.0
688,2.0
2,21, 1,21, 0, 3,40.00,50.00,Monday
250,23.686367911352917
251,6440555.839866141
336,0.0
385,23.486666666666636
386,25.019999999999964
387,0.2633658781620365
388,0.0
425,0.0
450,0.0
451,0.0
452,-1.6417213659314138
453,0.0
490,0.0
515,0.0
516,0.0
542,0.0
592,2684480.5659286
632,3670429.4747409667
686,0.5825257232211527
687,0.49999999999999933
688,1.166666666666665
2,21, 1,21, 0, 3,50.00,60.00,Monday
250,24.121977118340247
251,6335641.573086832
336,0.0
385,24.153333333333354
386,25.02000000000002
387,0.24451154487249732
388,0.0
425,0.0
450,0.0
451,0.0
452,-1.6340851246533517
453,0.0
490,0.0
515,0.0
516,0.0
542,0.0
592,3550526.6807379248
632,2703622.8524251375
686,0.7685179370362158
687,0.6666666666666672
688,1.6666666666666679
2,21, 1,21, 0, 4, 0.00,10.00,Monday
250,24.361339630417714
251,7593290.050820906
336,0.0
385,24.82
386,25.02
387,0.21796887000043408
388,0.0
425,0.0
450,0.0
451,0.0
452,-1.6239053033814759
453,0.0
490,0.0
515,0.0
516,0.0
542,0.0
592,4794052.042135597
632,3332913.2119621783
686,1.0
687,1.0
688,2.0
2,21, 1,21, 0, 4,10.00,20.00,Monday
250,24.776673681392417
251,8780476.510771114
336,0.0
385,24.82
386,25.02
387,0.18991290351235735
388,0.0
425,0.0
450,0.0
451,0.0
452,-1.6165409015647139
453,0.0
490,0.0
515,0.0
516,0.0
542,0.0
592,4787110.239197659
632,3854730.131043123
686,1.0
687,1.0
688,2.0
2,21, 1,21, 0, 4,20.00,30.00,Monday
250,23.672864112394812
251,6696019.252914717
336,0.0
385,23.486666666666686
386,25.020000000000017
387,0.16269663007791194
388,0.0
425,0.0
450,0.0
451,0.0
452,-1.6139748611854055
453,0.0
490,0.0
515,0.0
516,0.0
542,0.0
592,2721289.8141479213
632,3893579.0588185955
686,0.5957328829994081
687,0.5000000000000004
688,1.1666666666666674
2,21, 1,21, 0, 4,30.00,40.00,Monday
250,24.127704092107354
251,6685355.516357305
336,0.0
385,24.153333333333354
386,25.02000000000002
387,0.13206953937203392
388,0.0
425,0.0
450,0.0
451,0.0
452,-1.615284689691436
453,0.0
490,0.0
515,0.0
516,0.0
542,0.0
592,3634167.8619642756
632,2942681.8402906414
686,0.7973997393080259
687,0.6666666666666672
688,1.6666666666666679
2,21, 1,21, 0, 4,40.00,50.00,Monday
250,24.368060311480857
251,7912012.495582941
336,0.0
385,24.82
386,25.02
387,0.09306219148630156
388,0.0
425,0.0
450,0.0
451,0.0
452,-1.6219434577929517
453,0.0
490,0.0
515,0.0
516,0.0
542,0.0
592,4773483.220003163
632,3665729.5069824327
686,1.0
687,1.0
688,2.0
2,21, 1,21, 0, 4,50.00,60.00,Monday
250,24.77745904023317
251,9108580.845637092
336,0.0
385,24.82
386,25.02
387,0.0568917148743021
388,0.0
425,0.0
450,0.0
451,0.0
452,-1.6318981233099679
453,0.0
490,0.0
515,0.0
516,0.0
542,0.0
592,4765435.086161589
632,4202758.8425827995
686,1.0
687,1.0
688,2.0
2,21, 1,21, 0, 5, 0.00,10.00,Monday
250,23.661734534675293
251,6907508.734132614
336,0.0
385,23.486666666666668
386,25.020000000000003
387,0.03404024544430935
388,0.0
425,0.0
450,0.0
451,0.0
452,-1.6395237379609486
453,0.0
490,0.0
515,0.0
516,0.0
542,0.0
592,2747013.1392284837
632,4083041.4801373254
686,0.6069624963908666
687,0.5
688,1.1666666666666667
2,21, 1,21, 0, 5,10.00,20.00,Monday
250,24.129122738906442
251,6792193.290663065
336,0.0
385,24.153333333333336
386,25.02
387,0.016488376686233673
388,0.0
425,0.0
450,0.0
451,0.0
452,-1.6420345861554633
453,0.0
490,0.0
515,0.0
516,0.0
542,0.0
592,3647473.0427900907
632,3029195.008134485
686,0.8063473393219354
687,0.6666666666666667
688,1.6666666666666667
2,21, 1,21, 0, 5,20.00,30.00,Monday
250,24.36975081720988
251,7886582.881835449
336,0.0
385,24.82
386,25.02
387,0.0009664941279267326
388,0.0
425,0.0
450,0.0
451,0.0
452,-1.6359866200622475
453,0.0
490,0.0
515,0.0
516,0.0
542,0.0
592,4749448.595751325
632,3662156.922807374
686,1.0
687,1.0
688,2.0
2,21, 1,21, 0, 5,30.00,40.00,Monday
250,24.77758694039774
251,8968591.332531258
336,0.0
385,24.82
386,25.02
387,-0.008667431455256364
388,0.0
425,0.0
450,0.0
451,0.0
452,-1.6209051768241496
453,0.0
490,0.0
515,0.0
516,0.0
542,0.0
592,4740495.740094985
632,4087257.851759039
686,1.0
687,1.0
688,2.0
2,21, 1,21, 0, 5,40.00,50.00,Monday
250,23.66925580514434
251,6765703.240779292
336,0.0
385,23.486666666666636
386,25.019999999999964
387,-0.012965692366745203
388,0.0
425,0.0
450,0.0
451,0.0
452,-1.5991028217068948
453,0.0
490,0.0
515,0.0
516,0.0
542,0.0
592,2709106.179945981
632,3976514.328592027
686,0.6002187450587686
687,0.49999999999999933
688,1.166666666666665
2,21, 1,21, 0, 5,50.00,60.00,Monday
250,24.1268421247502
251,6639929.922831117
336,0.0
385,24.153333333333354
386,25.02000000000002
387,-0.015558813748647256
388,0.0
425,0.0
450,0.0
451,0.0
452,-1.5706343857750726
453,0.0
490,0.0
515,0.0
516,0.0
542,0.0
592,3584883.453605305
632,2950475.0434872163
686,0.7941242968932227
687,0.6666666666666672
688,1.6666666666666679
2,21, 1,21, 0, 6, 0.00,10.00,Monday
250,24.36774166381845
251,7839427.025873844
336,0.0
385,24.82
386,25.02
387,-0.025030554841651727
388,0.0
425,0.0
450,0.0
451,0.0
452,-1.5384853045218088
453,0.0
490,0.0
515,0.0
516,0.0
542,0.0
592,4723252.073277412
632,3644422.2777792104
686,1.0
687,1.0
688,2.0
2,21, 1,21, 0, 6,10.00,20.00,Monday
250,24.777413388546893
251,9005787.420167543
336,0.0
385,24.82
386,25.02
387,-0.04178240035901941
388,0.0
425,0.0
450,0.0
451,0.0
452,-1.5208913093922116
453,0.0
490,0.0
515,0.0
516,0.0
542,0.0
592,4717184.630480875
632,4148308.9984905613
686,1.0
687,1.0
688,2.0
2,21, 1,21, 0, 6,20.00,30.00,Monday
250,23.662616481720924
251,6891080.726172205
336,0.0
385,23.486666666666686
386,25.020000000000017
387,-0.06241106391749904
388,0.0
425,0.0
450,0.0
451,0.0
452,-1.5201437126373127
453,0.0
490,0.0
515,0.0
516,0.0
542,0.0
592,2720606.6556040416
632,4092585.305675595
686,0.6071098561869723
687,0.5000000000000004
688,1.1666666666666674
2,21, 1,21, 0, 6,30.00,40.00,Monday
250,24.130773247750806
251,6869430.183329122
336,0.0
385,24.153333333333354
386,25.02000000000002
387,-0.08738921882098015
388,0.0
425,0.0
450,0.0
451,0.0
452,-1.5295468289328102
453,0.0
490,0.0
515,0.0
516,0.0
542,0.0
592,3637724.3041807567
632,3108616.2514715716
686,0.8137825198915685
687,0.6666666666666672
688,1.6666666666666679
2,21, 1,21, 0, 6,40.00,50.00,Monday
250,24.371952438919383
251,8050137.6011622045
336,0.0
385,24.82
386,25.02
387,-0.12105654008070606
388,0.0
425,0.0
450,0.0
451,0.0
452,-1.5511549275924572
453,0.0
490,0.0
515,0.0
516,0.0
542,0.0
592,4705837.882764979
632,3868110.0336268074
686,1.0
687,1.0
688,2.0
2,21, 1,21, 0, 6,50.00,60.00,Monday
250,24.77789150641845
251,9221241.641533466
336,0.0
385,24.82
386,25.02
387,-0.15343710376056507
388,0.0
425,0.0
450,0.0
451,0.0
452,-1.5792915328462855
453,0.0
490,0.0
515,0.0
516,0.0
542,0.0
592,4698633.733564452
632,4381221.378696316
686,1.0
687,1.0
688,2.0
2,21, 1,21, 0, 7, 0.00,10.00,Monday
250,23.652327214737227
251,7085624.449118466
336,0.0
385,23.486666666666668
386,25.020000000000003
387,-0.18709986667928755
388,0.0
425,0.0
450,0.0
451,0.0
452,-1.6244073552250518
453,0.0
490,0.0
515,0.0
516,0.0
542,0.0
592,2758036.5311531867
632,4253224.816866445
686,0.6170075504747495
687,0.5
688,1.1666666666666667
2,21, 1,21, 0, 7,10.00,20.00,Monday
250,24.13329670435869
251,7047891.013315367
336,0.0
385,24.153333333333336
386,25.02
387,-0.23024762050147596
388,0.0
425,0.0
450,0.0
451,0.0
452,-1.704918634026085
453,0.0
490,0.0
515,0.0
516,0.0
542,0.0
592,3710692.3023823653
632,3201893.489672666
686,0.827965575655959
687,0.6666666666666667
688,1.6666666666666667
2,21, 1,21, 0, 7,20.00,30.00,Monday
250,24.37447873243848
251,8166393.986693789
336,0.0
385,24.82
386,25.02
387,-0.2916947576899045
388,0.0
425,0.0
450,0.0
451,0.0
452,-1.8416188324365708
453,0.0
490,0.0
515,0.0
516,0.0
542,0.0
592,4764167.590899451
632,3922417.2289076545
686,1.0
687,1.0
688,2.0
2,21, 1,21, 0, 7,30.00,40.00,Monday
250,24.778132179267693
251,9294909.569491893
336,0.0
385,24.82
386,25.02
387,-0.35422314360337337
388,0.0
425,0.0
450,0.0
451,0.0
452,-2.0036284578788663
453,0.0
490,0.0
515,0.0
516,0.0
542,0.0
592,4781101.268487236
632,4371725.772383666
686,1.0
687,1.0
688,2.0
2,21, 1,21, 0, 7,40.00,50.00,Monday
250,23.649346577945693
251,7140628.000000193
336,0.0
385,23.486666666666636
386,25.019999999999964
387,-0.4159309068519641
388,0.0
425,0.0
450,0.0
451,0.0
452,-2.184060418749743
453,0.0
490,0.0
515,0.0
516,0.0
542,0.0
592,2808016.4622660032
632,4259505.405389479
686,0.6180477521722051
687,0.49999999999999933
688,1.166666666666665
2,21, 1,21, 0, 7,50.00,60.00,Monday
250,24.133763326958007
251,7105957.621912573
336,0.0
385,24.153333333333354
386,25.02000000000002
387,-0.48853813839743687
388,0.0
425,0.0
450,0.0
451,0.0
452,-2.4038382000345626
453,0.0
490,0.0
515,0.0
516,0.0
542,0.0
592,3780773.028101258
632,3187556.085776246
686,0.8308389512635845
687,0.6666666666666672
688,1.6666666666666679
2,21, 1,21, 0, 8, 0.00,10.00,Monday
250,24.375122980191534
251,7855264.232151288
336,0.0
385,24.82
386,25.02
387,-0.5747490943730973
388,0.0
425,0.0
450,0.0
451,0.0
452,-2.66814611482549
453,0.0
490,0.0
515,0.0
516,0.0
542,0.0
592,4832519.320254409
632,3542025.14953367
686,1.0
687,1.0
688,2.0
2,21, 1,21, 0, 8,10.00,20.00,Monday
250,24.778178796588378
251,8895133.8284631
336,0.0
385,24.82
386,25.02
387,-0.636946823892814
388,0.0
425,0.0
450,0.0
451,0.0
452,-2.8144943915347063
453,0.0
490,0.0
515,0.0
516,0.0
542,0.0
592,4839846.964497664
632,3912991.598757187
686,1.0
687,1.0
688,2.0
2,21, 1,21, 0, 8,20.00,30.00,Monday
250,23.673538504163805
251,6683335.670051201
336,0.0
385,23.486666666666686
386,25.020000000000017
387,-0.674851283924615
388,0.0
425,0.0
450,0.0
451,0.0
452,-2.812396295300057
453,0.0
490,0.0
515,0.0
516,0.0
542,0.0
592,2755012.321402903
632,3847003.785735299
686,0.5944752656599834
687,0.5000000000000004
688,1.1666666666666674
2,21, 1,21, 0, 8,30.00,40.00,Monday
250,24.12458736683681
251,6530882.604840776
336,0.0
385,24.153333333333354
386,25.02000000000002
387,-0.7036070307330539
388,0.0
425,0.0
450,0.0
451,0.0
452,-2.7140115758946184
453,0.0
490,0.0
515,0.0
516,0.0
542,0.0
592,3645600.101705352
632,2791501.451247064
686,0.7826775405942543
687,0.6666666666666672
688,1.6666666666666679
2,21, 1,21, 0, 8,40.00,50.00,Monday
250,24.365137842019358
251,7598798.072106923
336,0.0
385,24.82
386,25.02
387,-0.7224245290077248
388,0.0
425,0.0
450,0.0
451,0.0
452,-2.478660045959432
453,0.0
490,0.0
515,0.0
516,0.0
542,0.0
592,4874747.889769053
632,3254304.304481223
686,1.0
687,1.0
688,2.0
2,21, 1,21, 0, 8,50.00,60.00,Monday
250,24.777068345917293
251,8606838.295018561
336,0.0
385,24.82
386,25.02
387,-0.720128958113992
388,0.0
425,0.0
450,0.0
451,0.0
452,-2.1628774205499055
453,0.0
490,0.0
515,0.0
516,0.0
542,0.0
592,4881868.245072942
632,3585244.901510153
686,1.0
687,1.0
688,2.0
2,21, 1,21, 0, 9, 0.00,10.00,Monday
250,23.70573568340231
251,6074445.423346313
336,0.0
385,23.486666666666668
386,25.020000000000003
387,-0.6937923872301955
388,0.0
425,0.0
450,0.0
451,0.0
452,-1.7834326428987393
453,0.0
490,0.0
515,0.0
516,0.0
542,0.0
592,2674789.1928740907
632,3307625.1917769015
686,0.5638043133620035
687,0.5
688,1.1666666666666667
2,21, 1,21, 0, 9,10.00,20.00,Monday
250,24.113767165220384
251,5847492.059213253
336,0.0
385,24.153333333333336
386,25.02
387,-0.648151130065088
388,0.0
425,0.0
450,0.0
451,0.0
452,-1.301663925653456
453,0.0
490,0.0
515,0.0
516,0.0
542,0.0
592,3494196.3911588523
632,2310722.286426483
686,0.7278969975993975
687,0.6666666666666667
688,1.6666666666666667
2,21, 1,21, 0, 9,20.00,30.00,Monday
250,24.145579505541072
251,7190390.629814774
336,0.0
385,24.153333333333322
386,25.01999999999999
387,-0.5677196788366743
388,0.0
425,0.0
450,0.0
451,0.0
452,-0.5953446258372381
453,0.0
490,0.0
515,0.0
516,0.0
542,0.0
592,3124308.9656992955
632,3917839.9706516196
686,0.7503853330505571
687,0.3333333333333332
688,1.3333333333333328
2,21, 1,21, 0, 9,30.00,40.00,Monday
250,24.146617744807486
251,7150493.407520504
336,0.0
385,24.153333333333343
386,25.02000000000001
387,-0.4803030723892207
388,0.0
425,0.0
450,0.0
451,0.0
452,0.053509923473946466
453,0.0
490,0.0
515,0.0
516,0.0
542,0.0
592,3141015.1087581636
632,3857172.3333323863
686,0.7517849082975896
687,0.3333333333333332
688,1.3333333333333335
2,21, 1,21, 0, 9,40.00,50.00,Monday
250,24.146209603318475
251,7125522.480236053
336,0.0
385,24.153333333333354
386,25.02000000000002
387,-0.39946373421139364
388,0.0
425,0.0
450,0.0
451,0.0
452,0.6690166899845597
453,0.0
490,0.0
515,0.0
516,0.0
542,0.0
592,3131372.7904947074
632,3844618.0026109265
686,0.7457810967132025
687,0.3333333333333336
688,1.3333333333333344
2,21, 1,21, 0, 9,50.00,60.00,Monday
250,24.754307835096718
251,7814736.696410347
336,0.0
385,24.82
386,25.02
387,-0.3277510823549169
388,0.0
425,0.0
450,0.0
451,0.0
452,1.176243882243008
453,0.0
490,0.0
515,0.0
516,0.0
542,0.0
592,4987886.41021877
632,2744193.596485243
686,1.0
687,1.0
688,2.0
2,21, 1,21, 0,10, 0.00,10.00,Monday
250,23.717784771833333
251,5827640.956043657
336,0.0
385,23.486666666666668
386,25.020000000000003
387,-0.2554301617477572
388,0.0
425,0.0
450,0.0
451,0.0
452,1.64006785118782
453,0.0
490,0.0
515,0.0
516,0.0
542,0.0
592,2693661.8612548625
632,3038352.3246746073
686,0.550524975733577
687,0.5
688,1.1666666666666667
2,21, 1,21, 0,10,10.00,20.00,Monday
250,24.10842673738881
251,5526767.8836795855
336,0.0
385,24.153333333333336
386,25.02
387,-0.1688127455221643
388,0.0
425,0.0
450,0.0
451,0.0
452,2.149527448306143
453,0.0
490,0.0
515,0.0
516,0.0
542,0.0
592,3502673.021026838
632,2005800.9138636328
686,0.7032185492320998
687,0.6666666666666667
688,1.6666666666666667
2,21, 1,21, 0,10,20.00,30.00,Monday
250,24.139309100803466
251,6865343.070319652
336,0.0
385,24.153333333333322
386,25.01999999999999
387,-0.03355105795014122
388,0.0
425,0.0
450,0.0
451,0.0
452,2.840143239823677
453,0.0
490,0.0
515,0.0
516,0.0
542,0.0
592,2971553.0884238896
632,3781297.44259152
686,0.6816939963529112
687,0.3333333333333332
688,1.3333333333333328
2,21, 1,21, 0,10,30.00,40.00,Monday
250,24.139432429913054
251,6776456.017004956
336,0.0
385,24.153333333333343
386,25.02000000000001
387,0.09807667466983128
388,0.0
425,0.0
450,0.0
451,0.0
452,3.4717248916627548
453,0.0
490,0.0
515,0.0
516,0.0
542,0.0
592,2963545.189035736
632,3701613.1516582244
686,0.6742396844329422
687,0.3333333333333332
688,1.3333333333333335
2,21, 1,21, 0,10,40.00,50.00,Monday
250,24.137544125052955
251,6666666.829245072
336,0.0
385,24.153333333333354
386,25.02000000000002
387,0.2386100629490338
388,0.0
425,0.0
450,0.0
451,0.0
452,4.149523251982886
453,0.0
490,0.0
515,0.0
516,0.0
542,0.0
592,2906899.609735752
632,3659480.4225721527
686,0.6537711706573808
687,0.3333333333333336
688,1.3333333333333344
2,21, 1,21, 0,10,50.00,60.00,Monday
250,24.135574816065574
251,6555162.829531604
336,0.0
385,24.153333333333354
386,25.02000000000002
387,0.39693282656849027
388,0.0
425,0.0
450,0.0
451,0.0
452,4.908029614096512
453,0.0
490,0.0
515,0.0
516,0.0
542,0.0
592,2847506.4280910105
632,3618713.35151082
686,0.63283019602547
687,0.3333333333333336
688,1.3333333333333344
2,21, 1,21, 0,11, 0.00,10.00,Monday
250,24.133657789470522
251,6445123.017303976
336,0.0
385,24.153333333333336
386,25.020000000000003
387,0.566940501701403
388,0.0
425,0.0
450,0.0
451,0.0
452,5.730780688181229
453,0.0
490,0.0
515,0.0
516,0.0
542,0.0
592,2783710.1750035267
632,3583386.0664480207
686,0.6130891022285712
687,0.3333333333333333
688,1.3333333333333335
2,21, 1,21, 0,11,10.00,20.00,Monday
250,24.131713711590727
251,6332468.408123524
336,0.0
385,24.153333333333336
386,25.02
387,0.7482709958412079
388,0.0
425,0.0
450,0.0
451,0.0
452,6.598958046488624
453,0.0
490,0.0
515,0.0
516,0.0
542,0.0
592,2718692.0517669166
632,3546783.709138255
686,0.5931635236250301
687,0.33333333333333337
688,1.3333333333333333
2,21, 1,21, 0,11,20.00,30.00,Monday
250,23.927050286204146
251,5471368.449863469
336,0.0
385,23.82
386,25.02
387,0.8984654559584645
388,0.0
425,0.0
450,0.0
451,0.0
452,7.373645146985174
453,0.0
490,0.0
515,0.0
516,0.0
542,0.0
592,3925066.155577926
632,1388534.0773987211
686,0.75
687,0.7447349945229536
688,1.5
2,21, 1,21, 0,11,30.00,40.00,Monday
250,23.878734497777806
251,6008134.724892164
336,0.0
385,23.82
386,25.02
387,1.1311142700254648
388,0.0
425,0.0
450,0.0
451,0.0
452,8.400176814027779
453,0.0
490,0.0
515,0.0
516,0.0
542,0.0
592,3119191.9538931767
632,2806577.240575727
686,0.6287999238556043
687,0.5
688,1.25
2,21, 1,21, 0,11,40.00,50.00,Monday
250,23.882128968960593
251,5835109.334272901
336,0.0
385,23.82
386,25.02
387,1.3594952966483078
388,0.0
425,0.0
450,0.0
451,0.0
452,9.275178467783672
453,0.0
490,0.0
515,0.0
516,0.0
542,0.0
592,3128166.4687293693
632,2628674.366709447
686,0.6282784637431634
687,0.5
688,1.25
2,21, 1,21, 0,11,50.00,60.00,Monday
250,24.142291347578286
251,4602302.235030364
336,0.0
385,24.153333333333354
386,25.02000000000002
387,1.5370357366472973
388,0.0
425,0.0
450,0.0
451,0.0
452,9.924868068082764
453,0.0
490,0.0
515,0.0
516,0.0
542,0.0
592,3444558.0971179777
632,1152699.1225573313
686,0.6666666666666672
687,0.6073312635110497
688,1.3333333333333344
2,21, 1,21, 0,12, 0.00,10.00,Monday
250,23.7721081203532
251,4674613.018016366
336,0.0
385,23.62
386,25.020000000000003
387,1.7140993534520066
388,0.0
425,0.0
450,0.0
451,0.0
452,10.492173822909175
453,0.0
490,0.0
515,0.0
516,0.0
542,0.0
592,2399017.1613882664
632,2326421.170233809
686,0.4721299813193382
687,0.4
688,1.0
2,21, 1,21, 0,12,10.00,20.00,Monday
250,24.08317514882625
251,6304889.18415823
336,0.0
385,24.153333333333332
386,25.02
387,1.901506420835429
388,0.0
425,0.0
450,0.0
451,0.0
452,10.986301464656478
453,0.0
490,0.0
515,0.0
516,0.0
542,0.0
592,3679332.555128862
632,2684841.168389446
686,0.8320148717746136
687,0.33333333333333337
688,1.3333333333333333
2,21, 1,21, 0,12,20.00,30.00,Monday
250,24.199905560513507
251,4618479.177871428
336,0.0
385,24.153333333333322
386,25.01999999999999
387,2.1553787389056636
388,0.0
425,0.0
450,0.0
451,0.0
452,11.486324131196149
453,0.0
490,0.0
515,0.0
516,0.0
542,0.0
592,3547445.3555280208
632,1028426.4206838491
686,0.6666666666666664
687,0.6666666666666664
688,1.3333333333333328
2,21, 1,21, 0,12,30.00,40.00,Monday
250,23.794886439763793
251,4495138.807124685
336,0.0
385,23.619999999999994
386,25.019999999999996
387,2.300190206156155
388,0.0
425,0.0
450,0.0
451,0.0
452,11.698324216926405
453,0.0
490,0.0
515,0.0
516,0.0
542,0.0
592,2352657.5123066725
632,2187937.6633284986
686,0.4574540400812915
687,0.3999999999999997
688,0.9999999999999993
2,21, 1,21, 0,12,40.00,50.00,Monday
250,24.08173184580417
251,6143535.066444986
336,0.0
385,24.153333333333354
386,25.02000000000002
387,2.4366302567838147
388,0.0
425,0.0
450,0.0
451,0.0
452,11.798796895248628
453,0.0
490,0.0
515,0.0
516,0.0
542,0.0
592,3576306.3765491946
632,2634693.0006589065
686,0.801194998314239
687,0.3333333333333336
688,1.3333333333333344
2,21, 1,21, 0,12,50.00,60.00,Monday
250,24.207924001768113
251,4539413.681018857
336,0.0
385,24.153333333333354
386,25.02000000000002
387,2.6078297574310345
388,0.0
425,0.0
450,0.0
451,0.0
452,11.79733443412695
453,0.0
490,0.0
515,0.0
516,0.0
542,0.0
592,3562201.7417997923
632,934817.3951468535
686,0.6666666666666672
687,0.6666666666666672
688,1.3333333333333344
2,21, 1,21, 0,13, 0.00,10.00,Monday
250,23.80176079639102
251,4426137.352788429
336,0.0
385,23.62
386,25.020000000000003
387,2.6988416513134545
388,0.0
425,0.0
450,0.0
451,0.0
452,11.705978414797189
453,0.0
490,0.0
515,0.0
516,0.0
542,0.0
592,2334666.224765489
632,2135738.8256578664
686,0.45151403474728186
687,0.4
688,1.0
2,21, 1,21, 0,13,10.00,20.00,Monday
250,24.080611831607705
251,6011560.774573855
336,0.0
385,24.153333333333332
386,25.02
387,2.78363526218093
388,0.0
425,0.0
450,0.0
451,0.0
452,11.614131746246686
453,0.0
490,0.0
515,0.0
516,0.0
542,0.0
592,3492264.2410342502
632,2593442.301785193
686,0.7793313387717942
687,0.33333333333333337
688,1.3333333333333333
2,21, 1,21, 0,13,20.00,30.00,Monday
250,24.222805478079216
251,4410221.029576788
336,0.0
385,24.153333333333322
386,25.01999999999999
387,2.8926572049410346
388,0.0
425,0.0
450,0.0
451,0.0
452,11.526907426851114
453,0.0
490,0.0
515,0.0
516,0.0
542,0.0
592,3554691.3010860663
632,813320.60584014
686,0.6666666666666664
687,0.6666666666666664
688,1.3333333333333328
2,21, 1,21, 0,13,30.00,40.00,Monday
250,23.820329981413384
251,4253252.246617182
336,0.0
385,23.619999999999994
386,25.019999999999996
387,2.9584588739118214
388,0.0
425,0.0
450,0.0
451,0.0
452,11.499802225014673
453,0.0
490,0.0
515,0.0
516,0.0
542,0.0
592,2278990.4506066022
632,2015248.349944422
686,0.4382961186027607
687,0.3999999999999997
688,0.9999999999999993
2,21, 1,21, 0,13,40.00,50.00,Monday
250,24.078757460102075
251,5793045.5456104195
336,0.0
385,24.153333333333354
386,25.02000000000002
387,3.0263330078736574
388,0.0
425,0.0
450,0.0
451,0.0
452,11.483710570049535
453,0.0
490,0.0
515,0.0
516,0.0
542,0.0
592,3339098.2250961955
632,2540714.2454970265
686,0.7412844724034485
687,0.3333333333333336
688,1.3333333333333344
2,21, 1,21, 0,13,50.00,60.00,Monday
250,24.24028070139631
251,4263753.617775043
336,0.0
385,24.153333333333354
386,25.02000000000002
387,3.1194644393475137
388,0.0
425,0.0
450,0.0
451,0.0
452,11.469541506357336
453,0.0
490,0.0
515,0.0
516,0.0
542,0.0
592,3547173.065614732
632,674619.2101231256
686,0.6666666666666672
687,0.6666666666666672
688,1.3333333333333344
2,21, 1,21, 0,14, 0.00,10.00,Monday
250,23.83684737964859
251,4127710.863617844
336,0.0
385,23.62
386,25.020000000000003
387,3.181463327457687
388,0.0
425,0.0
450,0.0
451,0.0
452,11.429368213144546
453,0.0
490,0.0
515,0.0
516,0.0
542,0.0
592,2170575.736057722
632,1999189.568963933
686,0.43019745303276746
687,0.34685315585473303
688,1.0
2,21, 1,21, 0,14,10.00,20.00,Monday
250,24.07703009074953
251,5608139.2341984445
336,0.0
385,24.153333333333332
386,25.02
387,3.2455348154733192
388,0.0
425,0.0
450,0.0
451,0.0
452,11.3254785457364
453,0.0
490,0.0
515,0.0
516,0.0
542,0.0
592,3218457.5340761244
632,2488502.678372666
686,0.7063597427776513
687,0.33333333333333337
688,1.3333333333333333
2,21, 1,21, 0,14,20.00,30.00,Monday
250,24.252805089443875
251,4162881.9234998655
336,0.0
385,24.153333333333322
386,25.01999999999999
387,3.3299572807070854
388,0.0
425,0.0
450,0.0
451,0.0
452,11.12481474491015
453,0.0
490,0.0
515,0.0
516,0.0
542,0.0
592,3570964.8597402014
632,550154.8394177407
686,0.6666666666666664
687,0.6666666666666664
688,1.3333333333333328
2,21, 1,21, 0,14,30.00,40.00,Monday
250,23.844981832227084
251,4061167.23539082
336,0.0
385,23.619999999999994