Program Version,EnergyPlus, Version 24.2.0-94a887817b, YMD=2025.02.04 15:52
1,5,Environment Title[],Latitude[deg],Longitude[deg],Time Zone[],Elevation[m]
2,8,Day of Simulation[],Month[],Day of Month[],DST Indicator[1=yes 0=no],Hour[],StartMinute[],EndMinute[],DayType
3,5,Cumulative Day of Simulation[],Month[],Day of Month[],DST Indicator[1=yes 0=no],DayType  ! When Daily Report Variables Requested
4,2,Cumulative Days of Simulation[],Month[]  ! When Monthly Report Variables Requested
5,1,Cumulative Days of Simulation[] ! When Run Period Report Variables Requested
6,1,Calendar Year of Simulation[] ! When Annual Report Variables Requested
250,1,LIVING ZONE,Zone Air Temperature [C] !TimeStep,REPORTSCH
251,1,LIVING ZONE,Zone Air System Sensible Heating Energy [J] !TimeStep,REPORTSCH
336,1,LIVING ZONE,Zone Air System Sensible Cooling Energy [J] !TimeStep,REPORTSCH
385,1,LIVING ZONE,Zone Thermostat Heating Setpoint Temperature [C] !TimeStep,REPORTSCH
386,1,LIVING ZONE,Zone Thermostat Cooling Setpoint Temperature [C] !TimeStep,REPORTSCH
387,1,GARAGE ZONE,Zone Air Temperature [C] !TimeStep,REPORTSCH
388,1,GARAGE ZONE,Zone Air System Sensible Heating Energy [J] !TimeStep,REPORTSCH
425,1,GARAGE ZONE,Zone Air System Sensible Cooling Energy [J] !TimeStep,REPORTSCH
450,1,GARAGE ZONE,Zone Thermostat Heating Setpoint Temperature [C] !TimeStep,REPORTSCH
451,1,GARAGE ZONE,Zone Thermostat Cooling Setpoint Temperature [C] !TimeStep,REPORTSCH
452,1,ATTIC ZONE,Zone Air Temperature [C] !TimeStep,REPORTSCH
453,1,ATTIC ZONE,Zone Air System Sensible Heating Energy [J] !TimeStep,REPORTSCH
490,1,ATTIC ZONE,Zone Air System Sensible Cooling Energy [J] !TimeStep,REPORTSCH
515,1,ATTIC ZONE,Zone Thermostat Heating Setpoint Temperature [C] !TimeStep,REPORTSCH
516,1,ATTIC ZONE,Zone Thermostat Cooling Setpoint Temperature [C] !TimeStep,REPORTSCH
542,1,ACDXCOIL 1,Cooling Coil Total Cooling Energy [J] !TimeStep,REPORTSCH
592,1,HEAT PUMP DX HEATING COIL 1,Heating Coil Heating Energy [J] !TimeStep,REPORTSCH
632,1,SUPP HEATING COIL 1,Heating Coil Heating Energy [J] !TimeStep,REPORTSCH
686,1,TWOSPEED HEAT PUMP 1,Unitary System DX Coil Cycling Ratio [] !TimeStep,REPORTSCH
687,1,TWOSPEED HEAT PUMP 1,Unitary System DX Coil Speed Ratio [] !TimeStep,REPORTSCH
688,1,TWOSPEED HEAT PUMP 1,Unitary System DX Coil Speed Level [] !TimeStep,REPORTSCH
End of Data Dictionary
1,RUN PERIOD 1,  41.98, -87.92,  -6.00, 201.00
2,21, 1,21, 0, 1, 0.00,10.00,Monday
250,26.04556808750607
251,0.0
336,6205622.104246233
385,20.8
386,24.210000000000004
387,0.7735615574458252
388,0.0
425,0.0
450,0.0
451,0.0
452,-1.6391470371049524
453,0.0
490,0.0
515,0.0
516,0.0
542,7177227.853068722
592,0.0
632,0.0
686,0.798948776714764
687,0.75
688,1.625
2,21, 1,21, 0, 1,10.00,20.00,Monday
250,26.092840429464545
251,0.0
336,6147637.892273704
385,20.8
386,23.71
387,0.7442093713587571
388,0.0
425,0.0
450,0.0
451,0.0
452,-1.6262227642883151
453,0.0
490,0.0
515,0.0
516,0.0
542,9914351.583418757
592,0.0
632,0.0
686,1.0
687,1.0
688,2.0
2,21, 1,21, 0, 1,20.00,30.00,Monday
250,26.077732091400556
251,0.0
336,5097250.849336716
385,20.8
386,23.71
387,0.7147877382313054
388,0.0
425,0.0
450,0.0
451,0.0
452,-1.611935170033895
453,0.0
490,0.0
515,0.0
516,0.0
542,10801940.453041475
592,0.0
632,0.0
686,1.0
687,1.0
688,2.0
2,21, 1,21, 0, 1,30.00,40.00,Monday
250,27.657261138838194
251,0.0
336,3314077.671250165
385,20.8
386,23.71
387,0.6974375024970061
388,0.0
425,0.0
450,0.0
451,0.0
452,-1.5988658993667573
453,0.0
490,0.0
515,0.0
516,0.0
542,10801940.453041486
592,0.0
632,0.0
686,1.0
687,1.0
688,2.0
2,21, 1,21, 0, 1,40.00,50.00,Monday
250,27.692177763286352
251,0.0
336,2315432.331033757
385,20.8
386,23.71
387,0.6803893157570707
388,0.0
425,0.0
450,0.0
451,0.0
452,-1.5804567050530778
453,0.0
490,0.0
515,0.0
516,0.0
542,10801940.45304148
592,0.0
632,0.0
686,1.0
687,1.0
688,2.0
2,21, 1,21, 0, 1,50.00,60.00,Monday
250,27.788500139592195
251,0.0
336,2613509.3542731423
385,20.8
386,23.71
387,0.6624243249693181
388,0.0
425,0.0
450,0.0
451,0.0
452,-1.5574801816922854
453,0.0
490,0.0
515,0.0
516,0.0
542,10801940.453041486
592,0.0
632,0.0
686,1.0
687,1.0
688,2.0
2,21, 1,21, 0, 2, 0.00,10.00,Monday
250,28.02504180327716
251,0.0
336,2681487.308004029
385,20.8
386,23.71
387,0.6460353694152253
388,0.0
425,0.0
450,0.0
451,0.0
452,-1.534586928004984
453,0.0
490,0.0
515,0.0
516,0.0
542,10801940.45304148
592,0.0
632,0.0
686,1.0
687,1.0
688,2.0
2,21, 1,21, 0, 2,10.00,20.00,Monday
250,28.15402360701178
251,0.0
336,2594100.514328107
385,20.8
386,23.71
387,0.631668625211446
388,0.0
425,0.0
450,0.0
451,0.0
452,-1.5152309573070384
453,0.0
490,0.0
515,0.0
516,0.0
542,10801940.453041472
592,0.0
632,0.0
686,1.0
687,1.0
688,2.0
2,21, 1,21, 0, 2,20.00,30.00,Monday
250,28.194359055678024
251,0.0
336,2529740.6527407584
385,20.8
386,23.71
387,0.6181885636420086
388,0.0
425,0.0
450,0.0
451,0.0
452,-1.5007479590170407
453,0.0
490,0.0
515,0.0
516,0.0
542,10801940.453041486
592,0.0
632,0.0
686,1.0
687,1.0
688,2.0
2,21, 1,21, 0, 2,30.00,40.00,Monday
250,28.245268615122
251,0.0
336,2531062.677941289
385,20.8
386,23.71
387,0.6044679952968514
388,0.0
425,0.0
450,0.0
451,0.0
452,-1.4910826973117652
453,0.0
490,0.0
515,0.0
516,0.0
542,10801940.453041496
592,0.0
632,0.0
686,1.0
687,1.0
688,2.0
2,21, 1,21, 0, 2,40.00,50.00,Monday
250,28.314663599909736
251,0.0
336,2535622.670745912
385,20.8
386,23.71
387,0.5900448560278683
388,0.0
425,0.0
450,0.0
451,0.0
452,-1.4857910480394827
453,0.0
490,0.0
515,0.0
516,0.0
542,10801940.453041486
592,0.0
632,0.0
686,1.0
687,1.0
688,2.0
2,21, 1,21, 0, 2,50.00,60.00,Monday
250,28.374000963079006
251,0.0
336,2522118.095401604
385,20.8
386,23.71
387,0.5746082944347671
388,0.0
425,0.0
450,0.0
451,0.0
452,-1.484497720151281
453,0.0
490,0.0
515,0.0
516,0.0
542,10801940.453041486
592,0.0
632,0.0
686,1.0
687,1.0
688,2.0
2,21, 1,21, 0, 3, 0.00,10.00,Monday
250,28.414037164409322
251,0.0
336,2504593.6271676794
385,20.8
386,23.71
387,0.5586551363280828
388,0.0
425,0.0
450,0.0
451,0.0
452,-1.4844453271382763
453,0.0
490,0.0
515,0.0
516,0.0
542,10801940.453041486
592,0.0
632,0.0
686,1.0
687,1.0
688,2.0
2,21, 1,21, 0, 3,10.00,20.00,Monday
250,28.44927225185873
251,0.0
336,2497382.660798148
385,20.8
386,23.71
387,0.5427888139681326
388,0.0
425,0.0
450,0.0
451,0.0
452,-1.4812154747574693
453,0.0
490,0.0
515,0.0
516,0.0
542,10801940.453041486
592,0.0
632,0.0
686,1.0
687,1.0
688,2.0
2,21, 1,21, 0, 3,20.00,30.00,Monday
250,28.486094080155965
251,0.0
336,2494298.1995063126
385,20.8
386,23.71
387,0.5273187684854421
388,0.0
425,0.0
450,0.0
451,0.0
452,-1.472094092938371
453,0.0
490,0.0
515,0.0
516,0.0
542,10801940.453041464
592,0.0
632,0.0
686,1.0
687,1.0
688,2.0
2,21, 1,21, 0, 3,30.00,40.00,Monday
250,28.5205795840893
251,0.0
336,2488843.507489746
385,20.8
386,23.71
387,0.5123565159368494
388,0.0
425,0.0
450,0.0
451,0.0
452,-1.4576369353451393
453,0.0
490,0.0
515,0.0
516,0.0
542,10801940.45304148
592,0.0
632,0.0
686,1.0
687,1.0
688,2.0
2,21, 1,21, 0, 3,40.00,50.00,Monday
250,28.551391127525005
251,0.0
336,2482907.431405466
385,20.8
386,23.71
387,0.4979788729602597
388,0.0
425,0.0
450,0.0
451,0.0
452,-1.439931081250215
453,0.0
490,0.0
515,0.0
516,0.0
542,10801940.45304148
592,0.0
632,0.0
686,1.0
687,1.0
688,2.0
2,21, 1,21, 0, 3,50.00,60.00,Monday
250,28.580075580239242
251,0.0
336,2478256.139297038
385,20.8
386,23.71
387,0.4842551872893997
388,0.0
425,0.0
450,0.0
451,0.0
452,-1.42028443869836
453,0.0
490,0.0
515,0.0
516,0.0
542,10801940.453041486
592,0.0
632,0.0
686,1.0
687,1.0
688,2.0
2,21, 1,21, 0, 4, 0.00,10.00,Monday
250,28.57270101094636
251,0.0
336,2454604.183921719
385,20.8
386,23.71
387,0.4686778416307858
388,0.0
425,0.0
450,0.0
451,0.0
452,-1.4005914297279367
453,0.0
490,0.0
515,0.0
516,0.0
542,10801940.45304148
592,0.0
632,0.0
686,1.0
687,1.0
688,2.0
2,21, 1,21, 0, 4,10.00,20.00,Monday
250,28.552046409183546
251,0.0
336,2448058.906536213
385,20.8
386,23.71
387,0.4495219835048041
388,0.0
425,0.0
450,0.0
451,0.0
452,-1.3835252574478827
453,0.0
490,0.0
515,0.0
516,0.0
542,10801940.45304148
592,0.0
632,0.0
686,1.0
687,1.0
688,2.0
2,21, 1,21, 0, 4,20.00,30.00,Monday
250,28.537735742539102
251,0.0
336,2454001.9438163824
385,20.8
386,23.71
387,0.4271934211541518
388,0.0
425,0.0
450,0.0
451,0.0
452,-1.3713838630871291
453,0.0
490,0.0
515,0.0
516,0.0
542,10801940.453041486
592,0.0
632,0.0
686,1.0
687,1.0
688,2.0
2,21, 1,21, 0, 4,30.00,40.00,Monday
250,28.525521522405676
251,0.0
336,2456854.015099659
385,20.8
386,23.71
387,0.402824771221808
388,0.0
425,0.0
450,0.0
451,0.0
452,-1.3654097045677838
453,0.0
490,0.0
515,0.0
516,0.0
542,10801940.45304148
592,0.0
632,0.0
686,1.0
687,1.0
688,2.0
2,21, 1,21, 0, 4,40.00,50.00,Monday
250,28.509116320062258
251,0.0
336,2455947.847626782
385,20.8
386,23.71
387,0.3771133588673032
388,0.0
425,0.0
450,0.0
451,0.0
452,-1.3659778108805345
453,0.0
490,0.0
515,0.0
516,0.0
542,10801940.453041486
592,0.0
632,0.0
686,1.0
687,1.0
688,2.0
2,21, 1,21, 0, 4,50.00,60.00,Monday
250,28.48890546388045
251,0.0
336,2455730.115074661
385,20.8
386,23.71
387,0.34985958112476195
388,0.0
425,0.0
450,0.0
451,0.0
452,-1.3713105527700555
453,0.0
490,0.0
515,0.0
516,0.0
542,10801940.453041496
592,0.0
632,0.0
686,1.0
687,1.0
688,2.0
2,21, 1,21, 0, 5, 0.00,10.00,Monday
250,28.52712482776102
251,0.0
336,2491265.2480242066
385,20.8
386,23.71
387,0.32639689103935876
388,0.0
425,0.0
450,0.0
451,0.0
452,-1.3765625569250475
453,0.0
490,0.0
515,0.0
516,0.0
542,10801940.453041472
592,0.0
632,0.0
686,1.0
687,1.0
688,2.0
2,21, 1,21, 0, 5,10.00,20.00,Monday
250,28.584591182719304
251,0.0
336,2497684.195604742
385,20.8
386,23.71
387,0.3100390282549488
388,0.0
425,0.0
450,0.0
451,0.0
452,-1.3757787973164726
453,0.0
490,0.0
515,0.0
516,0.0
542,10801940.453041486
592,0.0
632,0.0
686,1.0
687,1.0
688,2.0
2,21, 1,21, 0, 5,20.00,30.00,Monday
250,28.626563083500475
251,0.0
336,2482485.8528243587
385,20.8
386,23.71
387,0.2995879199819775
388,0.0
425,0.0
450,0.0
451,0.0
452,-1.3651152254324748
453,0.0
490,0.0
515,0.0
516,0.0
542,10801940.45304148
592,0.0
632,0.0
686,1.0
687,1.0
688,2.0
2,21, 1,21, 0, 5,30.00,40.00,Monday
250,28.660731049092426
251,0.0
336,2473344.147326529
385,20.8
386,23.71
387,0.29260942790317995
388,0.0
425,0.0
450,0.0
451,0.0
452,-1.3444847042464754
453,0.0
490,0.0
515,0.0
516,0.0
542,10801940.45304148
592,0.0
632,0.0
686,1.0
687,1.0
688,2.0
2,21, 1,21, 0, 5,40.00,50.00,Monday
250,28.69891319222969
251,0.0
336,2471706.463564133
385,20.8
386,23.71
387,0.2877949836353305
388,0.0
425,0.0
450,0.0
451,0.0
452,-1.3157908313810684
453,0.0
490,0.0
515,0.0
516,0.0
542,10801940.453041486
592,0.0
632,0.0
686,1.0
687,1.0
688,2.0
2,21, 1,21, 0, 5,50.00,60.00,Monday
250,28.739294358562336
251,0.0
336,2468609.1316975197
385,20.8
386,23.71
387,0.2847582752902792
388,0.0
425,0.0
450,0.0
451,0.0
452,-1.2813950966687577
453,0.0
490,0.0
515,0.0
516,0.0
542,10801940.45304148
592,0.0
632,0.0
686,1.0
687,1.0
688,2.0
2,21, 1,21, 0, 6, 0.00,10.00,Monday
250,28.73344072442893
251,0.0
336,2437662.9827236617
385,20.8
386,23.71
387,0.27885260154065267
388,0.0
425,0.0
450,0.0
451,0.0
452,-1.2487516278578938
453,0.0
490,0.0
515,0.0
516,0.0
542,10801940.45304148
592,0.0
632,0.0
686,1.0
687,1.0
688,2.0
2,21, 1,21, 0, 6,10.00,20.00,Monday
250,28.71076463907086
251,0.0
336,2428952.630404005
385,20.8
386,23.71
387,0.2669500457172567
388,0.0
425,0.0
450,0.0
451,0.0
452,-1.2273969087152505
453,0.0
490,0.0
515,0.0
516,0.0
542,10801940.45304148
592,0.0
632,0.0
686,1.0
687,1.0
688,2.0
2,21, 1,21, 0, 6,20.00,30.00,Monday
250,28.69842639890995
251,0.0
336,2437346.244837385
385,20.8
386,23.71
387,0.2496082475308803
388,0.0
425,0.0
450,0.0
451,0.0
452,-1.221759870307873
453,0.0
490,0.0
515,0.0
516,0.0
542,10801940.453041486
592,0.0
632,0.0
686,1.0
687,1.0
688,2.0
2,21, 1,21, 0, 6,30.00,40.00,Monday
250,28.690889573040838
251,0.0
336,2441483.388600667
385,20.8
386,23.71
387,0.22867819394390285
388,0.0
425,0.0
450,0.0
451,0.0
452,-1.2304960247084324
453,0.0
490,0.0
515,0.0
516,0.0
542,10801940.45304148
592,0.0
632,0.0
686,1.0
687,1.0
688,2.0
2,21, 1,21, 0, 6,40.00,50.00,Monday
250,28.679012073436233
251,0.0
336,2439961.1002037707
385,20.8
386,23.71
387,0.20538364639499107
388,0.0
425,0.0
450,0.0
451,0.0
452,-1.2502192122072637
453,0.0
490,0.0
515,0.0
516,0.0
542,10801940.45304148
592,0.0
632,0.0
686,1.0
687,1.0
688,2.0
2,21, 1,21, 0, 6,50.00,60.00,Monday
250,28.664084312616566
251,0.0
336,2439646.924750951
385,20.8
386,23.71
387,0.1799522164516782
388,0.0
425,0.0
450,0.0
451,0.0
452,-1.278464088226372
453,0.0
490,0.0
515,0.0
516,0.0
542,10801940.453041486
592,0.0
632,0.0
686,1.0
687,1.0
688,2.0
2,21, 1,21, 0, 7, 0.00,10.00,Monday
250,23.57387129060035
251,0.0
336,795268.9356437466
385,20.799999999999997
386,24.710000000000004
387,0.15485100268246174
388,0.0
425,0.0
450,0.0
451,0.0
452,-1.319861303305713
453,0.0
490,0.0
515,0.0
516,0.0
542,4320776.181216594
592,0.0
632,0.0
686,0.4
687,0.4
688,0.8
2,21, 1,21, 0, 7,10.00,20.00,Monday
250,22.047472128717917
251,2073362.9561716297
336,0.0
385,21.199999999999996
386,25.710000000000004
387,0.10865948478222749
388,0.0
425,0.0
450,0.0
451,0.0
452,-1.4114928172861436
453,0.0
490,0.0
515,0.0
516,0.0
542,0.0
592,498224.5490465073
632,1652113.9668222168
686,0.10678930296622027
687,0.1
688,0.30000000000000004
2,21, 1,21, 0, 7,20.00,30.00,Monday
250,21.846112678645706
251,2563205.6792209526
336,0.0
385,21.6
386,25.71
387,0.06464851474567157
388,0.0
425,0.0
450,0.0
451,0.0
452,-1.5277713520798273
453,0.0
490,0.0
515,0.0
516,0.0
542,0.0
592,1194397.9067376892
632,1493572.6526140352
686,0.26909012864232307
687,0.2
688,0.6000000000000001
2,21, 1,21, 0, 7,30.00,40.00,Monday
250,21.94339603645263
251,2814516.841747636
336,0.0
385,21.8
386,25.71
387,0.007963542120214391
388,0.0
425,0.0
450,0.0
451,0.0
452,-1.6892791493897883
453,0.0
490,0.0
515,0.0
516,0.0
542,0.0
592,1360406.9549190423
632,1610829.19731379
686,0.2968147249476872
687,0.25
688,0.75
2,21, 1,21, 0, 7,40.00,50.00,Monday
250,21.759135064393295
251,3011640.912846997
336,0.0
385,21.3
386,25.71
387,-0.08346304090925137
388,0.0
425,0.0
450,0.0
451,0.0
452,-1.93930820391135
453,0.0
490,0.0
515,0.0
516,0.0
542,0.0
592,1637013.6448657087
632,1497199.7472505327
686,0.3740492545963157
687,0.25
688,0.75
2,21, 1,21, 0, 7,50.00,60.00,Monday
250,21.805387037687282
251,620290.4949837645
336,0.0
385,21.3
386,25.71
387,-0.1758758465198778
388,0.0
425,0.0
450,0.0
451,0.0
452,-2.1984252681440903
453,0.0
490,0.0
515,0.0
516,0.0
542,0.0
592,560482.6743684465
632,0.0
686,0.15903314407583888
687,0.0
688,0.25
2,21, 1,21, 0, 8, 0.00,10.00,Monday
250,24.57183948968893
251,334416.7072725973
336,3716389.8702735966
385,21.199999999999996
386,24.709999999999997
387,-0.24030652314486695
388,0.0
425,0.0
450,0.0
451,0.0
452,-2.4032287613801424
453,0.0
490,0.0
515,0.0
516,0.0
542,5630851.9149457365
592,355787.1976744162
632,0.0
686,0.7
687,0.5888872579163189
688,1.4
2,21, 1,21, 0, 8,10.00,20.00,Monday
250,23.835429880419653
251,0.0
336,4128572.1162153017
385,20.8
386,23.71
387,-0.30309634011893366
388,0.0
425,0.0
450,0.0
451,0.0
452,-2.5493263395884096
453,0.0
490,0.0
515,0.0
516,0.0
542,6460258.246007545
592,0.0
632,0.0
686,0.812781758414205
687,0.33333333333333337
688,1.3333333333333333
2,21, 1,21, 0, 8,20.00,30.00,Monday
250,24.900215539789947
251,0.0
336,3019272.633175038
385,20.800000000000015
386,24.710000000000015
387,-0.35406635425390215
388,0.0
425,0.0
450,0.0
451,0.0
452,-2.577780115316437
453,0.0
490,0.0
515,0.0
516,0.0
542,5689488.849408982
592,0.0
632,0.0
686,0.5857055010100227
687,0.5000000000000004
688,1.1666666666666676
2,21, 1,21, 0, 8,30.00,40.00,Monday
250,23.962790457370524
251,0.0
336,4156828.2741605155
385,20.80000000000002
386,23.71000000000002
387,-0.3928352488659296
388,0.0
425,0.0
450,0.0
451,0.0
452,-2.497183385648674
453,0.0
490,0.0
515,0.0
516,0.0
542,8067896.649440343
592,0.0
632,0.0
686,0.9330467617169615
687,0.4542303835357011
688,1.6666666666666679
2,21, 1,21, 0, 8,40.00,50.00,Monday
250,24.997968875486443
251,0.0
336,3012706.437452859
385,20.799999999999972
386,24.709999999999965
387,-0.4114452593098519
388,0.0
425,0.0
450,0.0
451,0.0
452,-2.2927553299309302
453,0.0
490,0.0
515,0.0
516,0.0
542,6277102.873098894
592,0.0
632,0.0
686,0.6339951086260182
687,0.49999999999999933
688,1.166666666666665
2,21, 1,21, 0, 8,50.00,60.00,Monday
250,24.06048844232125
251,0.0
336,4206067.0338551095
385,20.80000000000002
386,23.71000000000002
387,-0.41059693858822044
388,0.0
425,0.0
450,0.0
451,0.0
452,-1.974600463804526
453,0.0
490,0.0
515,0.0
516,0.0
542,9136097.02298476
592,0.0
632,0.0
686,0.9611946889462704
687,0.6666666666666672
688,1.6666666666666679
2,21, 1,21, 0, 9, 0.00,10.00,Monday
250,29.404963668746625
251,0.0
336,5321239.790626873
385,20.799999999999997
386,24.109999999999996
387,-0.3861627484727312
388,0.0
425,0.0
450,0.0
451,0.0
452,-1.5895625539135736
453,0.0
490,0.0
515,0.0
516,0.0
542,9701718.009785384
592,0.0
632,0.0
686,0.8999999999999999
687,0.8999999999999999
688,1.7999999999999998
2,21, 1,21, 0, 9,10.00,20.00,Monday
250,26.81017629500562
251,0.0
336,3411909.4039871134
385,20.8
386,23.71
387,-0.33962310248179056
388,0.0
425,0.0
450,0.0
451,0.0
452,-1.098706263273329
453,0.0
490,0.0
515,0.0
516,0.0
542,10801940.45304148
592,0.0
632,0.0
686,1.0
687,1.0
688,2.0
2,21, 1,21, 0, 9,20.00,30.00,Monday
250,30.3144748359893
251,0.0
336,4142067.110805314
385,20.79999999999998
386,23.70999999999998
387,-0.27499634402069567
388,0.0
425,0.0
450,0.0
451,0.0
452,-0.5491901216321126
453,0.0
490,0.0
515,0.0
516,0.0
542,10801940.453041483
592,0.0
632,0.0
686,0.9999999999999989
687,0.9999999999999989
688,1.9999999999999978
2,21, 1,21, 0, 9,30.00,40.00,Monday
250,27.870906781719547
251,0.0
336,2473962.7266149335
385,20.799999999999994
386,23.709999999999994
387,-0.19470835536775866
388,0.0
425,0.0
450,0.0
451,0.0
452,0.055745458341023235
453,0.0
490,0.0
515,0.0
516,0.0
542,10801940.453041485
592,0.0
632,0.0
686,0.9999999999999997
687,0.9999999999999997
688,1.9999999999999993
2,21, 1,21, 0, 9,40.00,50.00,Monday
250,30.665140143249474
251,0.0
336,3552870.2258613496
385,20.8
386,23.71
387,-0.10974084850606994
388,0.0
425,0.0
450,0.0
451,0.0
452,0.6629236028155105
453,0.0
490,0.0
515,0.0
516,0.0
542,10801940.453041483
592,0.0
632,0.0
686,1.0
687,1.0
688,2.0
2,21, 1,21, 0, 9,50.00,60.00,Monday
250,28.42280200790451
251,0.0
336,2194096.109609704
385,20.8
386,23.71
387,-0.02559497014667736
388,0.0
425,0.0
450,0.0
451,0.0
452,1.253841163090783
453,0.0
490,0.0
515,0.0
516,0.0
542,10801940.453041486
592,0.0
632,0.0
686,1.0
687,1.0
688,2.0
2,21, 1,21, 0,10, 0.00,10.00,Monday
250,30.172401301860273
251,0.0
336,3375710.2203967944
385,20.8
386,23.71
387,0.10725469563034187
388,0.0
425,0.0
450,0.0
451,0.0
452,2.00077264175623
453,0.0
490,0.0
515,0.0
516,0.0
542,10801940.453041486
592,0.0
632,0.0
686,1.0
687,1.0
688,2.0
2,21, 1,21, 0,10,10.00,20.00,Monday
250,28.73812131544439
251,0.0
336,2252544.5420894055
385,20.8
386,23.71
387,0.20923677696267623
388,0.0
425,0.0
450,0.0
451,0.0
452,2.5312565933307405
453,0.0
490,0.0
515,0.0
516,0.0
542,10801940.453041486
592,0.0
632,0.0
686,1.0
687,1.0
688,2.0
2,21, 1,21, 0,10,20.00,30.00,Monday
250,30.643481053157934
251,0.0
336,2987403.5552783315
385,20.8
386,23.71
387,0.31845798874316184
388,0.0
425,0.0
450,0.0
451,0.0
452,3.071150402633275
453,0.0
490,0.0
515,0.0
516,0.0
542,10801940.453041483
592,0.0
632,0.0
686,1.0
687,1.0
688,2.0
2,21, 1,21, 0,10,30.00,40.00,Monday
250,29.277053034288777
251,0.0
336,2038705.7355193247
385,20.80000000000002
386,23.71000000000002
387,0.447206300082729
388,0.0
425,0.0
450,0.0
451,0.0
452,3.6708745740068203
453,0.0
490,0.0
515,0.0
516,0.0
542,10801940.453041486
592,0.0
632,0.0
686,1.0000000000000009
687,1.0000000000000009
688,2.0000000000000018
2,21, 1,21, 0,10,40.00,50.00,Monday
250,30.3288502526485
251,0.0
336,2883587.7219596254
385,20.80000000000002
386,23.71000000000002
387,0.6507818037559967
388,0.0
425,0.0
450,0.0
451,0.0
452,4.510286494414815
453,0.0
490,0.0
515,0.0
516,0.0
542,10801940.453041483
592,0.0
632,0.0
686,1.0000000000000009
687,1.0000000000000009
688,2.0000000000000018
2,21, 1,21, 0,10,50.00,60.00,Monday
250,30.081083559028606
251,0.0
336,2197703.759546866
385,20.80000000000002
386,23.71000000000002
387,0.8444594940726566
388,0.0
425,0.0
450,0.0
451,0.0
452,5.31944200621412
453,0.0
490,0.0
515,0.0
516,0.0
542,10801940.453041486
592,0.0
632,0.0
686,1.0000000000000009
687,1.0000000000000009
688,2.0000000000000018
2,21, 1,21, 0,11, 0.00,10.00,Monday
250,30.463555418707728
251,0.0
336,2468600.994457831
385,20.8
386,23.71
387,1.0357838692943737
388,0.0
425,0.0
450,0.0
451,0.0
452,6.172234638315386
453,0.0
490,0.0
515,0.0
516,0.0
542,10801940.453041475
592,0.0
632,0.0
686,1.0
687,1.0
688,2.0
2,21, 1,21, 0,11,10.00,20.00,Monday
250,30.307724921307095
251,0.0
336,2137509.4158352003
385,20.8
386,23.71
387,1.2343885364192577
388,0.0
425,0.0
450,0.0
451,0.0
452,7.069463264127711
453,0.0
490,0.0
515,0.0
516,0.0
542,10801940.453041483
592,0.0
632,0.0
686,1.0
687,1.0
688,2.0
2,21, 1,21, 0,11,20.00,30.00,Monday
250,30.897296719014037
251,0.0
336,2365477.6993097267
385,20.8
386,23.71
387,1.398152284548034
388,0.0
425,0.0
450,0.0
451,0.0
452,7.869352017321766
453,0.0
490,0.0
515,0.0
516,0.0
542,10801940.453041483
592,0.0
632,0.0
686,1.0
687,1.0
688,2.0
2,21, 1,21, 0,11,30.00,40.00,Monday
250,30.3641398878586
251,0.0
336,2090074.8990143335
385,20.8
386,23.71
387,1.6495126880503581
388,0.0
425,0.0
450,0.0
451,0.0
452,8.92529951135866
453,0.0
490,0.0
515,0.0
516,0.0
542,10801940.453041486
592,0.0
632,0.0
686,1.0
687,1.0
688,2.0
2,21, 1,21, 0,11,40.00,50.00,Monday
250,30.783431475845674
251,0.0
336,2383015.790990993
385,20.8
386,23.71
387,1.8952426152088195
388,0.0
425,0.0
450,0.0
451,0.0
452,9.826783499582337
453,0.0
490,0.0
515,0.0
516,0.0
542,10801940.453041485
592,0.0
632,0.0
686,1.0
687,1.0
688,2.0
2,21, 1,21, 0,11,50.00,60.00,Monday
250,30.17608058795636
251,0.0
336,2074546.7295073308
385,20.80000000000002
386,23.71000000000002
387,2.086953947968809
388,0.0
425,0.0
450,0.0
451,0.0
452,10.50466806524626
453,0.0
490,0.0
515,0.0
516,0.0
542,10801940.453041486
592,0.0
632,0.0
686,1.0000000000000009
687,1.0000000000000009
688,2.0000000000000018
2,21, 1,21, 0,12, 0.00,10.00,Monday
250,30.806377525740125
251,0.0
336,2478181.7310042763
385,20.8
386,23.71
387,2.3487974583015125
388,0.0
425,0.0
450,0.0
451,0.0
452,11.245696921384605
453,0.0
490,0.0
515,0.0
516,0.0
542,10801940.45304148
592,0.0
632,0.0
686,1.0
687,1.0
688,2.0
2,21, 1,21, 0,12,10.00,20.00,Monday
250,30.330873738677333
251,0.0
336,2040150.9461711121
385,20.8
386,23.71
387,2.5485486281973615
388,0.0
425,0.0
450,0.0
451,0.0
452,11.73240524608932
453,0.0
490,0.0
515,0.0
516,0.0
542,10801940.453041483
592,0.0
632,0.0
686,1.0
687,1.0
688,2.0
2,21, 1,21, 0,12,20.00,30.00,Monday
250,30.725948219557324
251,0.0
336,2449385.7615841734
385,20.8
386,23.71
387,2.781076124221635
388,0.0
425,0.0
450,0.0
451,0.0
452,12.166191363374526
453,0.0
490,0.0
515,0.0
516,0.0
542,10801940.45304148
592,0.0
632,0.0
686,1.0
687,1.0
688,2.0
2,21, 1,21, 0,12,30.00,40.00,Monday
250,30.78277003202677
251,0.0
336,2085850.90050151
385,20.8
386,23.71
387,2.986247957048561
388,0.0
425,0.0
450,0.0
451,0.0
452,12.446806409175041
453,0.0
490,0.0
515,0.0
516,0.0
542,10801940.453041472
592,0.0
632,0.0
686,1.0
687,1.0
688,2.0
2,21, 1,21, 0,12,40.00,50.00,Monday
250,30.759402366248484
251,0.0
336,2210204.864783676
385,20.8
386,23.71
387,3.1543075281944186
388,0.0
425,0.0
450,0.0
451,0.0
452,12.552897089529948
453,0.0
490,0.0
515,0.0
516,0.0
542,10801940.453041486
592,0.0
632,0.0
686,1.0
687,1.0
688,2.0
2,21, 1,21, 0,12,50.00,60.00,Monday
250,30.78075825209655
251,0.0
336,2237649.8259272017
385,20.8
386,23.71
387,3.2886038663827506
388,0.0
425,0.0
450,0.0
451,0.0
452,12.507540808819009
453,0.0
490,0.0
515,0.0
516,0.0
542,10801940.453041496
592,0.0
632,0.0
686,1.0
687,1.0
688,2.0
2,21, 1,21, 0,13, 0.00,10.00,Monday
250,28.643583704346224
251,0.0
336,2070727.8701948929
385,20.8
386,23.71
387,3.369835743181951
388,0.0
425,0.0
450,0.0
451,0.0
452,12.407315491808633
453,0.0
490,0.0
515,0.0
516,0.0
542,10801940.45304148
592,0.0
632,0.0
686,1.0
687,1.0
688,2.0
2,21, 1,21, 0,13,10.00,20.00,Monday
250,28.56047130820487
251,0.0
336,2790015.1298988517
385,20.8
386,23.71
387,3.4498469133636784
388,0.0
425,0.0
450,0.0
451,0.0
452,12.316080510144076
453,0.0
490,0.0
515,0.0
516,0.0
542,10801940.453041483
592,0.0
632,0.0
686,1.0
687,1.0
688,2.0
2,21, 1,21, 0,13,20.00,30.00,Monday
250,27.907227774412604
251,0.0
336,3022377.058466416
385,20.8
386,23.71
387,3.534944188531763
388,0.0
425,0.0
450,0.0
451,0.0
452,12.247842653608803
453,0.0
490,0.0
515,0.0
516,0.0
542,10801940.453041483
592,0.0
632,0.0
686,1.0
687,1.0
688,2.0
2,21, 1,21, 0,13,30.00,40.00,Monday
250,27.485838189745948
251,0.0
336,3461487.101216467
385,20.8
386,23.71
387,3.642983701294579
388,0.0
425,0.0
450,0.0
451,0.0
452,12.197677561642228
453,0.0
490,0.0
515,0.0
516,0.0
542,10801940.453041485
592,0.0
632,0.0
686,1.0
687,1.0
688,2.0
2,21, 1,21, 0,13,40.00,50.00,Monday
250,27.261978490775554
251,0.0
336,3864666.753751985
385,20.8
386,23.71
387,3.737746258502844
388,0.0
425,0.0
450,0.0
451,0.0
452,12.175599097300337
453,0.0
490,0.0
515,0.0
516,0.0
542,10801940.453041485
592,0.0
632,0.0
686,1.0
687,1.0
688,2.0
2,21, 1,21, 0,13,50.00,60.00,Monday
250,27.110062072677607
251,0.0
336,4133216.2059734305
385,20.8
386,23.71
387,3.8186278905285858
388,0.0
425,0.0
450,0.0
451,0.0
452,12.166963623169051
453,0.0
490,0.0
515,0.0
516,0.0
542,10801940.453041485
592,0.0
632,0.0
686,1.0
687,1.0
688,2.0
2,21, 1,21, 0,14, 0.00,10.00,Monday
250,30.498104984398335
251,0.0
336,4824631.88545729
385,20.799999999999997
386,23.709999999999997
387,3.8729046053919594
388,0.0
425,0.0
450,0.0
451,0.0
452,12.1263114770636
453,0.0
490,0.0
515,0.0
516,0.0
542,10801940.453041483
592,0.0
632,0.0
686,0.9999999999999998
687,0.9999999999999998
688,1.9999999999999996
2,21, 1,21, 0,14,10.00,20.00,Monday
250,28.557077466368874
251,0.0
336,2905253.967889446
385,20.799999999999997
386,23.709999999999994
387,3.9320610428164926
388,0.0
425,0.0
450,0.0
451,0.0
452,12.021057750440013
453,0.0
490,0.0
515,0.0
516,0.0
542,10801940.453041483
592,0.0
632,0.0
686,0.9999999999999998
687,0.9999999999999998
688,1.9999999999999996
2,21, 1,21, 0,14,20.00,30.00,Monday
250,31.747578745276073
251,0.0
336,3614129.014646344
385,20.79999999999998
386,23.70999999999998
387,3.9897632964331056
388,0.0
425,0.0
450,0.0
451,0.0
452,11.853568028032356
453,0.0
490,0.0
515,0.0
516,0.0
542,10801940.453041483
592,0.0
632,0.0
686,0.9999999999999989
687,0.9999999999999989
688,1.9999999999999978
2,21, 1,21, 0,14,30.00,40.00,Monday
250,29.05069202760898
251,0.0
336,2171578.959669277
385,20.8
386,23.71
387,4.039349968725471
388,0.0
425,0.0
450,0.0
451,0.0
452,11.598733942374094
453,0.0
490,0.0
515,0.0
516,0.0
542,10801940.453041485
592,0.0
632,0.0
686,1.0
687,1.0
688,2.0
2,21, 1,21, 0,14,40.00,50.00,Monday
250,31.39768378313859
251,0.0
336,3623694.299441961
385,20.8
386,23.71
387,4.094906287204966
388,0.0
425,0.0
450,0.0
451,0.0
452,11.143739478885623
453,0.0
490,0.0
515,0.0
516,0.0
542,10801940.453041479
592,0.0
632,0.0
686,1.0
687,1.0
688,2.0
2,21, 1,21, 0,14,50.00,60.00,Monday
250,29.783102887797845
251,0.0
336,2282671.29604787
385,20.8
386,23.71
387,4.115185084657069
388,0.0
425,0.0
450,0.0
451,0.0
452,10.595354966637357
453,0.0
490,0.0
515,0.0
516,0.0
542,10801940.453041485
592,0.0
632,0.0
686,1.0
687,1.0
688,2.0
2,21, 1,21, 0,15, 0.00,10.00,Monday
250,31.399803915646018
251,0.0
336,3341781.8984629484
385,20.8
386,23.71
387,4.1079470379479766
388,0.0
425,0.0
450,0.0
451,0.0
452,9.97205382187401
453,0.0
490,0.0
515,0.0
516,0.0
542,10801940.453041485
592,0.0
632,0.0
686,1.0
687,1.0
688,2.0
2,21, 1,21, 0,15,10.00,20.00,Monday
250,29.92247867252186
251,0.0
336,2200636.011493756
385,20.8
386,23.71
387,4.080218796265458
388,0.0
425,0.0
450,0.0
451,0.0
452,9.31588073362844
453,0.0
490,0.0
515,0.0
516,0.0
542,10801940.453041486
592,0.0
632,0.0
686,1.0
687,1.0
688,2.0
2,21, 1,21, 0,15,20.00,30.00,Monday
250,32.2151038130134
251,0.0
336,3154048.3542170576
385,20.8
386,23.71
387,4.04619905666873
388,0.0
425,0.0
450,0.0
451,0.0
452,8.72218512990729
453,0.0
490,0.0
515,0.0
516,0.0
542,10801940.453041479
592,0.0
632,0.0
686,1.0
687,1.0
688,2.0
2,21, 1,21, 0,15,30.00,40.00,Monday
250,29.445809820541715
251,0.0
336,2012345.9821451956
385,20.799999999999986
386,23.709999999999983
387,4.007550132944197
388,0.0
425,0.0
450,0.0
451,0.0
452,8.13293631978599
453,0.0
490,0.0
515,0.0
516,0.0
542,10801940.45304148
592,0.0
632,0.0
686,0.9999999999999992
687,0.9999999999999992
688,1.9999999999999984
2,21, 1,21, 0,15,40.00,50.00,Monday
250,32.17937686061073
251,0.0
336,3374819.2084929016
385,20.8
386,23.71
387,3.9677967115233272
388,0.0
425,0.0
450,0.0
451,0.0
452,7.604135808697097
453,0.0
490,0.0
515,0.0
516,0.0
542,10801940.453041483
592,0.0
632,0.0
686,1.0
687,1.0
688,2.0
2,21, 1,21, 0,15,50.00,60.00,Monday
250,29.297845493876288
251,0.0
336,1998996.4228455268
385,20.8
386,23.71
387,3.9318269148570835
388,0.0
425,0.0
450,0.0
451,0.0
452,7.186371386213671
453,0.0
490,0.0
515,0.0
516,0.0
542,10801940.453041483
592,0.0
632,0.0
686,1.0
687,1.0
688,2.0
2,21, 1,21, 0,16, 0.00,10.00,Monday
250,31.428193643429765
251,0.0
336,3532520.149867582
385,20.8
386,23.71
387,3.8814644015379396
388,0.0
425,0.0
450,0.0
451,0.0
452,6.732854462809961
453,0.0
490,0.0
515,0.0
516,0.0
542,10801940.453041485
592,0.0
632,0.0
686,1.0
687,1.0
688,2.0
2,21, 1,21, 0,16,10.00,20.00,Monday
250,29.046373446672042
251,0.0
336,2170014.7222594707
385,20.8
386,23.71
387,3.8497501962197394
388,0.0
425,0.0
450,0.0
451,0.0
452,6.4926137316950925
453,0.0
490,0.0
515,0.0
516,0.0
542,10801940.453041486
592,0.0
632,0.0
686,1.0
687,1.0
688,2.0
2,21, 1,21, 0,16,20.00,30.00,Monday
250,32.080872148251565
251,0.0
336,3389681.724608089
385,20.800000000000015
386,23.710000000000015
387,3.8200379464744847
388,0.0
425,0.0
450,0.0
451,0.0
452,6.282018443959615
453,0.0
490,0.0
515,0.0
516,0.0
542,10801940.453041485
592,0.0
632,0.0
686,1.0000000000000007