Program Version,EnergyPlus, Version 24.2.0-94a887817b, YMD=2025.02.04 15:52
1,5,Environment Title[],Latitude[deg],Longitude[deg],Time Zone[],Elevation[m]
2,8,Day of Simulation[],Month[],Day of Month[],DST Indicator[1=yes 0=no],Hour[],StartMinute[],EndMinute[],DayType
3,5,Cumulative Day of Simulation[],Month[],Day of Month[],DST Indicator[1=yes 0=no],DayType  ! When Daily Meters Requested
4,2,Cumulative Days of Simulation[],Month[]  ! When Monthly Meters Requested
5,1,Cumulative Days of Simulation[] ! When Run Period Meters Requested
6,1,Calendar Year of Simulation[] ! When Annual Meters Requested
11,9,Electricity:Facility [J] !Monthly [Value,Min,Day,Hour,Minute,Max,Day,Hour,Minute]
23,9,Electricity:Building [J] !Monthly [Value,Min,Day,Hour,Minute,Max,Day,Hour,Minute]
59,9,InteriorLights:Electricity [J] !Monthly [Value,Min,Day,Hour,Minute,Max,Day,Hour,Minute]
521,9,Electricity:HVAC [J] !Monthly [Value,Min,Day,Hour,Minute,Max,Day,Hour,Minute]
637,9,NaturalGas:Facility [J] !Monthly [Value,Min,Day,Hour,Minute,Max,Day,Hour,Minute]
649,9,NaturalGas:HVAC [J] !Monthly [Value,Min,Day,Hour,Minute,Max,Day,Hour,Minute]
13,11,Electricity:Facility [J] !RunPeriod [Value,Min,Month,Day,Hour,Minute,Max,Month,Day,Hour,Minute]
25,11,Electricity:Building [J] !RunPeriod [Value,Min,Month,Day,Hour,Minute,Max,Month,Day,Hour,Minute]
61,11,InteriorLights:Electricity [J] !RunPeriod [Value,Min,Month,Day,Hour,Minute,Max,Month,Day,Hour,Minute]
523,11,Electricity:HVAC [J] !RunPeriod [Value,Min,Month,Day,Hour,Minute,Max,Month,Day,Hour,Minute]
639,11,NaturalGas:Facility [J] !RunPeriod [Value,Min,Month,Day,Hour,Minute,Max,Month,Day,Hour,Minute]
651,11,NaturalGas:HVAC [J] !RunPeriod [Value,Min,Month,Day,Hour,Minute,Max,Month,Day,Hour,Minute]
End of Data Dictionary
1,RUN PERIOD 1,  41.98, -87.92,  -6.00, 201.00
4,31, 1
11,12985742733.68295,291205.2739001431,12, 1,20,5238124.069867347,31,14,60
23,5327510756.366884,165311.2497624832,19,16,60,3339737.317351525,31,14,60
59,2568018028.678082,79406.86545077244, 1, 1,10,1588137.3090154491, 1, 8,10
521,7658231977.315943,119999.99999999997, 9, 7,20,2532110.174359604,27,20,50
637,3458395461.8615246,0.0, 1, 1,10,11729530.150720097,27, 5,10
649,3458395461.8615246,0.0, 1, 1,10,11729530.150720097,27, 5,10
4,59, 2
11,11582392491.40553,285058.22458457825, 9,14,10,5239286.348508279, 4, 9,60
23,4666766435.368687,165058.22458457825, 9,14,10,3340899.595992457, 4, 9,60
59,2244990900.024348,99999999999999.0, 1, 1,10,-99999999999999.0, 1, 8,10
521,6915626056.036788,0.0,15, 7,20,-99999999999999.0,27,20,50
637,5189413750.601125,99999999999999.0, 1, 1,10,19665328.8809225, 3, 8,20
649,5189413750.601125,99999999999999.0, 1, 1,10,19665328.8809225, 3, 8,20
4,90, 3
11,11833182726.187792,141552.5641367139,31,16,60,5250031.346174932,18, 9,60
23,4920550464.949502,141552.5641367139,31,16,60,3351644.5936591104,18, 9,60
59,2375535786.825437,99999999999999.0, 1, 1,10,-99999999999999.0, 1, 8,10
521,6912632261.2382145,99999999999999.0,15, 7,20,-99999999999999.0,27,20,50
637,2464214772.3065662,99999999999999.0, 1, 1,10,-99999999999999.0, 3, 8,20
649,2464214772.3065662,99999999999999.0, 1, 1,10,-99999999999999.0, 3, 8,20
4,120, 4
11,11444559724.321638,79406.86545077244,13,21,30,5406676.979115483,15,14,60
23,5008217364.086145,79406.86545077244,13,12,10,-99999999999999.0,18, 9,60
59,2460342319.12686,99999999999999.0, 1, 1,10,-99999999999999.0, 1, 8,10
521,6436342360.235487,99999999999999.0,15, 7,20,-99999999999999.0,27,20,50
637,672333949.147896,99999999999999.0, 1, 1,10,-99999999999999.0, 3, 8,20
649,672333949.147896,99999999999999.0, 1, 1,10,-99999999999999.0, 3, 8,20
4,151, 5
11,11817054144.747807,99999999999999.0,13,21,30,5538440.169694137,30,16,60
23,5167686565.0173855,99999999999999.0,13,12,10,-99999999999999.0,18, 9,60
59,2568018028.678082,99999999999999.0, 1, 1,10,-99999999999999.0, 1, 8,10
521,6649367579.730379,99999999999999.0,15, 7,20,-99999999999999.0,27,20,50
637,59116012.37606277,99999999999999.0, 1, 1,10,-99999999999999.0, 3, 8,20
649,59116012.37606277,99999999999999.0, 1, 1,10,-99999999999999.0, 3, 8,20
4,181, 6
11,10827666160.799566,99999999999999.0,13,21,30,5561297.875986879,24,16,60
23,4497835469.309163,99999999999999.0,13,12,10,-99999999999999.0,18, 9,60
59,2267860077.274196,99999999999999.0, 1, 1,10,-99999999999999.0, 1, 8,10
521,6329830691.490381,99999999999999.0,15, 7,20,-99999999999999.0,27,20,50
637,8360010.626600672,99999999999999.0, 1, 1,10,-99999999999999.0, 3, 8,20
649,8360010.626600672,99999999999999.0, 1, 1,10,-99999999999999.0, 3, 8,20
4,212, 7
11,12526846788.491123,99999999999999.0,13,21,30,-99999999999999.0,24,16,60
23,5071574937.885352,99999999999999.0,13,12,10,-99999999999999.0,18, 9,60
59,2568018028.678102,99999999999999.0, 1, 1,10,-99999999999999.0, 1, 8,10
521,7455271850.605792,99999999999999.0,15, 7,20,-99999999999999.0,27,20,50
637,0.0,99999999999999.0, 1, 1,10,-99999999999999.0, 3, 8,20
649,0.0,99999999999999.0, 1, 1,10,-99999999999999.0, 3, 8,20
4,243, 8
11,11989388900.140793,99999999999999.0,13,21,30,5695752.476471897,23,16,60
23,4886313740.961211,99999999999999.0,13,12,10,-99999999999999.0,18, 9,60
59,2471776907.751755,99999999999999.0, 1, 1,10,-99999999999999.0, 1, 8,10
521,7103075159.17962,99999999999999.0,15, 7,20,-99999999999999.0,27,20,50
637,0.0,99999999999999.0, 1, 1,10,-99999999999999.0, 3, 8,20
649,0.0,99999999999999.0, 1, 1,10,-99999999999999.0, 3, 8,20
4,273, 9
11,10941220279.82431,99999999999999.0,13,21,30,-99999999999999.0,23,16,60
23,4713388488.528514,99999999999999.0,13,12,10,-99999999999999.0,18, 9,60
59,2364101198.200528,99999999999999.0, 1, 1,10,-99999999999999.0, 1, 8,10
521,6227831791.295717,99999999999999.0,15, 7,20,-99999999999999.0,27,20,50
637,5062866.569656709,99999999999999.0, 1, 1,10,-99999999999999.0, 3, 8,20
649,5062866.569656709,99999999999999.0, 1, 1,10,-99999999999999.0, 3, 8,20
4,304,10
11,11606433910.629736,99999999999999.0,13,21,30,-99999999999999.0,23,16,60
23,5199689919.051938,99999999999999.0,13,12,10,-99999999999999.0,18, 9,60
59,2568018028.678082,99999999999999.0, 1, 1,10,-99999999999999.0, 1, 8,10
521,6406743991.577736,99999999999999.0,15, 7,20,-99999999999999.0,27,20,50
637,52750780.17552283,99999999999999.0, 1, 1,10,-99999999999999.0, 3, 8,20
649,52750780.17552283,99999999999999.0, 1, 1,10,-99999999999999.0, 3, 8,20
4,334,11
11,11347712779.051304,99999999999999.0,13,21,30,-99999999999999.0,23,16,60
23,4853574591.385306,99999999999999.0,13,12,10,-99999999999999.0,18, 9,60
59,2364101198.2005134,99999999999999.0, 1, 1,10,-99999999999999.0, 1, 8,10
521,6494138187.665941,99999999999999.0,15, 7,20,-99999999999999.0,27,20,50
637,1739628875.6497135,99999999999999.0, 1, 1,10,-99999999999999.0, 3, 8,20
649,1739628875.6497135,99999999999999.0, 1, 1,10,-99999999999999.0, 3, 8,20
4,365,12
11,12017920360.977455,99999999999999.0,13,21,30,-99999999999999.0,23,16,60
23,5089745100.183891,99999999999999.0,13,12,10,-99999999999999.0,18, 9,60
59,2471776907.75177,99999999999999.0, 1, 1,10,-99999999999999.0, 1, 8,10
521,6928175260.793504,99999999999999.0,15, 7,20,-99999999999999.0,27,20,50
637,2560442914.7791224,99999999999999.0, 1, 1,10,-99999999999999.0, 3, 8,20
649,2560442914.7791224,99999999999999.0, 1, 1,10,-99999999999999.0, 3, 8,20
5,365
13,140920121000.25998,79406.86545077244, 4,13,21,30,5695752.476471897, 8,23,16,60
25,59402853833.09318,79406.86545077244, 4,13,12,10,3351644.5936591104, 3,18, 9,60
61,29292557409.88314,79406.86545077244, 1, 1, 1,10,1588137.3090154491, 1, 1, 8,10
523,81517267167.19722,0.0, 2,15, 7,20,2532110.174359604, 1,27,20,50
639,16209719394.093763,0.0, 1, 1, 1,10,19665328.8809225, 2, 3, 8,20
651,16209719394.093763,0.0, 1, 1, 1,10,19665328.8809225, 2, 3, 8,20
1,RUN PERIOD 2,  41.98, -87.92,  -6.00, 201.00
4,1, 7
11,502130989.1093903,99999999999999.0,13,21,30,-99999999999999.0,23,16,60
23,215029471.98651618,99999999999999.0,13,12,10,-99999999999999.0,18, 9,60
59,107675709.5512475,99999999999999.0, 1, 1,10,-99999999999999.0, 1, 8,10
521,287101517.122874,99999999999999.0,15, 7,20,-99999999999999.0,27,20,50
637,0.0,99999999999999.0, 1, 1,10,-99999999999999.0, 3, 8,20
649,0.0,99999999999999.0, 1, 1,10,-99999999999999.0, 3, 8,20
5,1
13,502130989.1093903,99999999999999.0, 4,13,21,30,-99999999999999.0, 8,23,16,60
25,215029471.98651618,99999999999999.0, 4,13,12,10,-99999999999999.0, 3,18, 9,60
61,107675709.5512475,99999999999999.0, 1, 1, 1,10,-99999999999999.0, 1, 1, 8,10
523,287101517.122874,99999999999999.0, 2,15, 7,20,-99999999999999.0, 1,27,20,50
639,0.0,99999999999999.0, 1, 1, 1,10,-99999999999999.0, 2, 3, 8,20
651,0.0,99999999999999.0, 1, 1, 1,10,-99999999999999.0, 2, 3, 8,20
End of Data
 Number of Records Written=          90
