Program Version,EnergyPlus, Version 24.2.0-94a887817b, YMD=2025.02.04 17:21
1,5,Environment Title[],Latitude[deg],Longitude[deg],Time Zone[],Elevation[m]
2,8,Day of Simulation[],Month[],Day of Month[],DST Indicator[1=yes 0=no],Hour[],StartMinute[],EndMinute[],DayType
3,5,Cumulative Day of Simulation[],Month[],Day of Month[],DST Indicator[1=yes 0=no],DayType  ! When Daily Report Variables Requested
4,2,Cumulative Days of Simulation[],Month[]  ! When Monthly Report Variables Requested
5,1,Cumulative Days of Simulation[] ! When Run Period Report Variables Requested
6,1,Calendar Year of Simulation[] ! When Annual Report Variables Requested
250,1,LIVING ZONE,Zone Air Temperature [C] !TimeStep,REPORTSCH
251,1,LIVING ZONE,Zone Air System Sensible Heating Energy [J] !TimeStep,REPORTSCH
336,1,LIVING ZONE,Zone Air System Sensible Cooling Energy [J] !TimeStep,REPORTSCH
385,1,LIVING ZONE,Zone Thermostat Heating Setpoint Temperature [C] !TimeStep,REPORTSCH
386,1,LIVING ZONE,Zone Thermostat Cooling Setpoint Temperature [C] !TimeStep,REPORTSCH
387,1,GARAGE ZONE,Zone Air Temperature [C] !TimeStep,REPORTSCH
388,1,GARAGE ZONE,Zone Air System Sensible Heating Energy [J] !TimeStep,REPORTSCH
425,1,GARAGE ZONE,Zone Air System Sensible Cooling Energy [J] !TimeStep,REPORTSCH
450,1,GARAGE ZONE,Zone Thermostat Heating Setpoint Temperature [C] !TimeStep,REPORTSCH
451,1,GARAGE ZONE,Zone Thermostat Cooling Setpoint Temperature [C] !TimeStep,REPORTSCH
452,1,ATTIC ZONE,Zone Air Temperature [C] !TimeStep,REPORTSCH
453,1,ATTIC ZONE,Zone Air System Sensible Heating Energy [J] !TimeStep,REPORTSCH
490,1,ATTIC ZONE,Zone Air System Sensible Cooling Energy [J] !TimeStep,REPORTSCH
515,1,ATTIC ZONE,Zone Thermostat Heating Setpoint Temperature [C] !TimeStep,REPORTSCH
516,1,ATTIC ZONE,Zone Thermostat Cooling Setpoint Temperature [C] !TimeStep,REPORTSCH
542,1,ACDXCOIL 1,Cooling Coil Total Cooling Energy [J] !TimeStep,REPORTSCH
592,1,HEAT PUMP DX HEATING COIL 1,Heating Coil Heating Energy [J] !TimeStep,REPORTSCH
632,1,SUPP HEATING COIL 1,Heating Coil Heating Energy [J] !TimeStep,REPORTSCH
686,1,TWOSPEED HEAT PUMP 1,Unitary System DX Coil Cycling Ratio [] !TimeStep,REPORTSCH
687,1,TWOSPEED HEAT PUMP 1,Unitary System DX Coil Speed Ratio [] !TimeStep,REPORTSCH
688,1,TWOSPEED HEAT PUMP 1,Unitary System DX Coil Speed Level [] !TimeStep,REPORTSCH
End of Data Dictionary
1,YEARSIMULATION,  41.98, -87.92,  -6.00, 201.00
2,21, 1,21, 0, 1, 0.00,10.00,Sunday
250,22.946717115835273
251,7167358.243580458
336,0.0
385,23.43
386,27.25
387,0.6128069493646403
388,0.0
425,0.0
450,0.0
451,0.0
452,-1.6340421443083801
453,0.0
490,0.0
515,0.0
516,0.0
542,0.0
592,4878047.748356176
632,2842904.7169841146
686,1.0
687,1.0
688,2.0
2,21, 1,21, 0, 1,10.00,20.00,Sunday
250,23.3839990173654
251,7885579.941717945
336,0.0
385,23.43
386,27.25
387,0.5880396129624317
388,0.0
425,0.0
450,0.0
451,0.0
452,-1.6233758817845287
453,0.0
490,0.0
515,0.0
516,0.0
542,0.0
592,4861236.130550681
632,2892042.111969472
686,1.0
687,1.0
688,2.0
2,21, 1,21, 0, 1,20.00,30.00,Sunday
250,22.334586687117614
251,5745269.806704493
336,0.0
385,22.096666666666685
386,27.250000000000025
387,0.5672688329188906
388,0.0
425,0.0
450,0.0
451,0.0
452,-1.6161394133827698
453,0.0
490,0.0
515,0.0
516,0.0
542,0.0
592,2583071.7119470495
632,3064128.68458442
686,0.5456322371000912
687,0.5000000000000004
688,1.1666666666666674
2,21, 1,21, 0, 1,30.00,40.00,Sunday
250,22.720286905505617
251,5606801.335391271
336,0.0
385,22.76333333333335
386,27.25000000000002
387,0.5444195756311101
388,0.0
425,0.0
450,0.0
451,0.0
452,-1.6101995034558962
453,0.0
490,0.0
515,0.0
516,0.0
542,0.0
592,3368097.0147164273
632,2212894.056069175
686,0.7091307612010705
687,0.6666666666666672
688,1.6666666666666679
2,21, 1,21, 0, 1,40.00,50.00,Sunday
250,22.956324088963566
251,6888212.596502385
336,0.0
385,23.43
386,27.25
387,0.5162741723123807
388,0.0
425,0.0
450,0.0
451,0.0
452,-1.6050245035816075
453,0.0
490,0.0
515,0.0
516,0.0
542,0.0
592,4814797.451024356
632,2620089.1029173546
686,1.0
687,1.0
688,2.0
2,21, 1,21, 0, 1,50.00,60.00,Sunday
250,23.385015217789093
251,7984485.504742668
336,0.0
385,23.43
386,27.25
387,0.49106965258926283
388,0.0
425,0.0
450,0.0
451,0.0
452,-1.6023400587860532
453,0.0
490,0.0
515,0.0
516,0.0
542,0.0
592,4797935.453059416
632,3051752.1805172036
686,1.0
687,1.0
688,2.0
2,21, 1,21, 0, 2, 0.00,10.00,Sunday
250,22.330743008789128
251,5820366.466635183
336,0.0
385,22.096666666666664
386,27.25
387,0.4695047856809622
388,0.0
425,0.0
450,0.0
451,0.0
452,-1.6029418081259312
453,0.0
490,0.0
515,0.0
516,0.0
542,0.0
592,2572126.304801356
632,3151328.2679805304
686,0.5497769111814401
687,0.5
688,1.1666666666666667
2,21, 1,21, 0, 2,10.00,20.00,Sunday
250,22.72127611705328
251,5669640.646406241
336,0.0
385,22.763333333333332
386,27.25
387,0.4463234398656074
388,0.0
425,0.0
450,0.0
451,0.0
452,-1.6067393408822168
453,0.0
490,0.0
515,0.0
516,0.0
542,0.0
592,3362856.4090683777
632,2276445.5033618035
686,0.7139914196448558
687,0.6666666666666667
688,1.6666666666666667
2,21, 1,21, 0, 2,20.00,30.00,Sunday
250,22.957902760396458
251,6928993.627253658
336,0.0
385,23.43
386,27.25
387,0.41793462751465166
388,0.0
425,0.0
450,0.0
451,0.0
452,-1.614890359922046
453,0.0
490,0.0
515,0.0
516,0.0
542,0.0
592,4798982.614944002
632,2675815.842932278
686,1.0
687,1.0
688,2.0
2,21, 1,21, 0, 2,30.00,40.00,Sunday
250,23.385188961345783
251,8009613.426093658
336,0.0
385,23.43
386,27.25
387,0.39244087112122766
388,0.0
425,0.0
450,0.0
451,0.0
452,-1.625743909360919
453,0.0
490,0.0
515,0.0
516,0.0
542,0.0
592,4797932.793828454
632,3076481.7530564805
686,1.0
687,1.0
688,2.0
2,21, 1,21, 0, 2,40.00,50.00,Sunday
250,22.329690129751384
251,5840605.616938569
336,0.0
385,22.096666666666636
386,27.249999999999964
387,0.37042513447578623
388,0.0
425,0.0
450,0.0
451,0.0
452,-1.6389168888153876
453,0.0
490,0.0
515,0.0
516,0.0
542,0.0
592,2575712.2065849034
632,3168318.199944465
686,0.5508121693203774
687,0.49999999999999933
688,1.166666666666665
2,21, 1,21, 0, 2,50.00,60.00,Sunday
250,22.721567773263075
251,5689466.117392829
336,0.0
385,22.76333333333335
386,27.25000000000002
387,0.34654765392633363
388,0.0
425,0.0
450,0.0
451,0.0
452,-1.6553688485850722
453,0.0
490,0.0
515,0.0
516,0.0
542,0.0
592,3367659.88858446
632,2290176.61496575
686,0.715379196551835
687,0.6666666666666672
688,1.6666666666666679
2,21, 1,21, 0, 3, 0.00,10.00,Sunday
250,22.958640597609033
251,6957869.9166958425
336,0.0
385,23.43
386,27.25
387,0.317644673789522
388,0.0
425,0.0
450,0.0
451,0.0
452,-1.674555949911785
453,0.0
490,0.0
515,0.0
516,0.0
542,0.0
592,4798984.683777516
632,2704619.7649568226
686,1.0
687,1.0
688,2.0
2,21, 1,21, 0, 3,10.00,20.00,Sunday
250,23.385288052012363
251,8047638.539934904
336,0.0
385,23.43
386,27.25
387,0.292643496452231
388,0.0
425,0.0
450,0.0
451,0.0
452,-1.6870307145129644
453,0.0
490,0.0
515,0.0
516,0.0
542,0.0
592,4797931.501509661
632,3114323.6993012885
686,1.0
687,1.0
688,2.0
2,21, 1,21, 0, 3,20.00,30.00,Sunday
250,22.327277318020393
251,5886533.263656301
336,0.0
385,22.096666666666685
386,27.250000000000025
387,0.27222918872011825
388,0.0
425,0.0
450,0.0
451,0.0
452,-1.6914469614261765
453,0.0
490,0.0
515,0.0
516,0.0
542,0.0
592,2583742.251259763
632,3206992.9145048046
686,0.5531304546373361
687,0.5000000000000004
688,1.1666666666666674
2,21, 1,21, 0, 3,30.00,40.00,Sunday
250,22.722558595925285
251,5750317.37308505
336,0.0
385,22.76333333333335
386,27.25000000000002
387,0.25113701220875034
388,0.0
425,0.0
450,0.0
451,0.0
452,-1.691656083170674
453,0.0
490,0.0
515,0.0
516,0.0
542,0.0
592,3383832.163345831
632,2330290.323313722
686,0.7200516519776541
687,0.6666666666666672
688,1.6666666666666679
2,21, 1,21, 0, 3,40.00,50.00,Sunday
250,22.960131090977924
251,7013535.842604227
336,0.0
385,23.43
386,27.25
387,0.22632644269682203
388,0.0
425,0.0
450,0.0
451,0.0
452,-1.6873939707771588
453,0.0
490,0.0
515,0.0
516,0.0
542,0.0
592,4798991.820492953
632,2759391.1261175536
686,1.0
687,1.0
688,2.0
2,21, 1,21, 0, 3,50.00,60.00,Sunday
250,23.3854682581623
251,8101901.393385213
336,0.0
385,23.43
386,27.25
387,0.20527236416402145
388,0.0
425,0.0
450,0.0
451,0.0
452,-1.6799548824949977
453,0.0
490,0.0
515,0.0
516,0.0
542,0.0
592,4797928.854296438
632,3168206.4109337116
686,1.0
687,1.0
688,2.0
2,21, 1,21, 0, 4, 0.00,10.00,Sunday
250,22.321041149216345
251,6004792.838542857
336,0.0
385,22.096666666666664
386,27.25
387,0.18403920020377507
388,0.0
425,0.0
450,0.0
451,0.0
452,-1.6723397008863887
453,0.0
490,0.0
515,0.0
516,0.0
542,0.0
592,2601981.3726419215
632,3309027.5448713265
686,0.5591275051453443
687,0.5
688,1.1666666666666667
2,21, 1,21, 0, 4,10.00,20.00,Sunday
250,22.72592166355924
251,5946772.042116106
336,0.0
385,22.763333333333332
386,27.25
387,0.15814941541725172
388,0.0
425,0.0
450,0.0
451,0.0
452,-1.6656620753708586
453,0.0
490,0.0
515,0.0
516,0.0
542,0.0
592,3431510.577570787
632,2463377.5142592713
686,0.7358754118673534
687,0.6666666666666667
688,1.6666666666666667
2,21, 1,21, 0, 4,20.00,30.00,Sunday
250,22.964643504798282
251,7259666.395267173
336,0.0
385,23.43
386,27.25
387,0.12364150775497401
388,0.0
425,0.0
450,0.0
451,0.0
452,-1.660835636303262
453,0.0
490,0.0
515,0.0
516,0.0
542,0.0
592,4785463.861198
632,3015715.364274403
686,1.0
687,1.0
688,2.0
2,21, 1,21, 0, 4,30.00,40.00,Sunday
250,23.386053423922924
251,8418250.990271809
336,0.0
385,23.43
386,27.25
387,0.0909828563738399
388,0.0
425,0.0
450,0.0
451,0.0
452,-1.661480920684747
453,0.0
490,0.0
515,0.0
516,0.0
542,0.0
592,4777744.342839392
632,3503575.6637032437
686,1.0
687,1.0
688,2.0
2,21, 1,21, 0, 4,40.00,50.00,Sunday
250,22.304305804313227
251,6322355.344214625
336,0.0
385,22.096666666666636
386,27.249999999999964
387,0.06139161798955345
388,0.0
425,0.0
450,0.0
451,0.0
452,-1.6681957368382125
453,0.0
490,0.0
515,0.0
516,0.0
542,0.0
592,2647122.244533003
632,3586886.5240641236
686,0.575437596197023
687,0.49999999999999933
688,1.166666666666665
2,21, 1,21, 0, 4,50.00,60.00,Sunday
250,22.7315046452566
251,6291942.500675941
336,0.0
385,22.76333333333335
386,27.25000000000002
387,0.02832835872247433
388,0.0
425,0.0
450,0.0
451,0.0
452,-1.6783756150412934
453,0.0
490,0.0
515,0.0
516,0.0
542,0.0
592,3512751.0960417986
632,2700831.6091778222
686,0.7640741039038095
687,0.6666666666666672
688,1.6666666666666679
2,21, 1,21, 0, 5, 0.00,10.00,Sunday
250,22.970936433113213
251,7458765.624807991
336,0.0
385,23.43
386,27.25
387,-0.004791307687248115
388,0.0
425,0.0
450,0.0
451,0.0
452,-1.6886212693314948
453,0.0
490,0.0
515,0.0
516,0.0
542,0.0
592,4764414.968167905
632,3229120.7971211285
686,1.0
687,1.0
688,2.0
2,21, 1,21, 0, 5,10.00,20.00,Sunday
250,23.386715465921753
251,8513485.491765495
336,0.0
385,23.43
386,27.25
387,-0.024989235130808002
388,0.0
425,0.0
450,0.0
451,0.0
452,-1.6910608940986482
453,0.0
490,0.0
515,0.0
516,0.0
542,0.0
592,4754943.229702277
632,3619960.218185582
686,1.0
687,1.0
688,2.0
2,21, 1,21, 0, 5,20.00,30.00,Sunday
250,22.305268170453637
251,6305066.696436233
336,0.0
385,22.096666666666685
386,27.250000000000025
387,-0.03531154437047013
388,0.0
425,0.0
450,0.0
451,0.0
452,-1.6839139907954126
453,0.0
490,0.0
515,0.0
516,0.0
542,0.0
592,2631972.7174827512
632,3584363.304157104
686,0.574917545660298
687,0.5000000000000004
688,1.1666666666666674
2,21, 1,21, 0, 5,30.00,40.00,Sunday
250,22.729054263405654
251,6155439.699836433
336,0.0
385,22.76333333333335
386,27.25000000000002
387,-0.043373668336613935
388,0.0
425,0.0
450,0.0
451,0.0
452,-1.6687349288319582
453,0.0
490,0.0
515,0.0
516,0.0
542,0.0
592,3456092.643483002
632,2632455.981633596
686,0.7528442260761503
687,0.6666666666666672
688,1.6666666666666679
2,21, 1,21, 0, 5,40.00,50.00,Sunday
250,22.968750727336868
251,7332688.985803617
336,0.0
385,23.43
386,27.25
387,-0.050314339161206374
388,0.0
425,0.0
450,0.0
451,0.0
452,-1.6427972847824248
453,0.0
490,0.0
515,0.0
516,0.0
542,0.0
592,4735705.963515284
632,3134606.059286536
686,1.0
687,1.0
688,2.0
2,21, 1,21, 0, 5,50.00,60.00,Sunday
250,23.386472021815912
251,8384693.425973771
336,0.0
385,23.43
386,27.25
387,-0.05407928455135044
388,0.0
425,0.0
450,0.0
451,0.0
452,-1.613711652518265
453,0.0
490,0.0
515,0.0
516,0.0
542,0.0
592,4726366.228605826
632,3520321.3011643672
686,1.0
687,1.0
688,2.0
2,21, 1,21, 0, 6, 0.00,10.00,Sunday
250,22.30773636865706
251,6258349.141990348
336,0.0
385,22.096666666666664
386,27.25
387,-0.06329873087326754
388,0.0
425,0.0
450,0.0
451,0.0
452,-1.5901951927551936
453,0.0
490,0.0
515,0.0
516,0.0
542,0.0
592,2610596.372258772
632,3558155.3697359376
686,0.5729223633528185
687,0.5
688,1.1666666666666667
2,21, 1,21, 0, 6,10.00,20.00,Sunday
250,22.729979118919452
251,6194860.939751667
336,0.0
385,22.763333333333332
386,27.25
387,-0.07894130922773447
388,0.0
425,0.0
450,0.0
451,0.0
452,-1.5741407660229936
453,0.0
490,0.0
515,0.0
516,0.0
542,0.0
592,3451208.4109917986
632,2672634.677885915
686,0.7564060906237818
687,0.6666666666666667
688,1.6666666666666667
2,21, 1,21, 0, 6,20.00,30.00,Sunday
250,22.970105518507477
251,7457610.312395909
336,0.0
385,23.43
386,27.25
387,-0.10356456666676624
388,0.0
425,0.0
450,0.0
451,0.0
452,-1.5677594183132368
453,0.0
490,0.0
515,0.0
516,0.0
542,0.0
592,4716298.324117176
632,3278488.9407740533
686,1.0
687,1.0
688,2.0
2,21, 1,21, 0, 6,30.00,40.00,Sunday
250,23.386682001521677
251,8594316.977035232
336,0.0
385,23.43
386,27.25
387,-0.12947655666397714
388,0.0
425,0.0
450,0.0
451,0.0
452,-1.5756514000516
453,0.0
490,0.0
515,0.0
516,0.0
542,0.0
592,4709366.35321622
632,3746610.989183764
686,1.0
687,1.0
688,2.0
2,21, 1,21, 0, 6,40.00,50.00,Sunday
250,22.29661266383505
251,6469211.93404648
336,0.0
385,22.096666666666636
386,27.249999999999964
387,-0.15515425198685157
388,0.0
425,0.0
450,0.0
451,0.0
452,-1.5952661989658323
453,0.0
490,0.0
515,0.0
516,0.0
542,0.0
592,2638752.680071545
632,3744486.374865577
686,0.584025330955445
687,0.49999999999999933
688,1.166666666666665
2,21, 1,21, 0, 6,50.00,60.00,Sunday
250,22.733731105347513
251,6423401.713579289
336,0.0
385,22.76333333333335
386,27.25000000000002
387,-0.18484726413586872
388,0.0
425,0.0
450,0.0
451,0.0
452,-1.6235535538546544
453,0.0
490,0.0
515,0.0
516,0.0
542,0.0
592,3502698.7106708894
632,2831803.182174041
686,0.7756611342994871
687,0.6666666666666672
688,1.6666666666666679
2,21, 1,21, 0, 7, 0.00,10.00,Sunday
250,22.974157152676653
251,7623032.622618649
336,0.0
385,23.43
386,27.25
387,-0.2273680887952136
388,0.0
425,0.0
450,0.0
451,0.0
452,-1.6756454067417463
453,0.0
490,0.0
515,0.0
516,0.0
542,0.0
592,4725657.423745668
632,3429935.2355311816
686,1.0
687,1.0
688,2.0
2,21, 1,21, 0, 7,10.00,20.00,Sunday
250,23.387106493554242
251,8728212.160600327
336,0.0
385,23.43
386,27.25
387,-0.27341167336475963
388,0.0
425,0.0
450,0.0
451,0.0
452,-1.7572914693475594
453,0.0
490,0.0
515,0.0
516,0.0
542,0.0
592,4742439.081864148
632,3846370.615579242
686,1.0
687,1.0
688,2.0
2,21, 1,21, 0, 7,20.00,30.00,Sunday
250,22.291453677636042
251,6566378.267142938
336,0.0
385,22.096666666666685
386,27.250000000000025
387,-0.3215703622902035
388,0.0
425,0.0
450,0.0
451,0.0
452,-1.873551797089236
453,0.0
490,0.0
515,0.0
516,0.0
542,0.0
592,2685382.8615654716
632,3796880.293806833
686,0.5880563010834868
687,0.5000000000000004
688,1.1666666666666674
2,21, 1,21, 0, 7,30.00,40.00,Sunday
250,22.734328853850354
251,6487203.1483226335
336,0.0
385,22.76333333333335
386,27.25000000000002
387,-0.3801167542777292
388,0.0
425,0.0
450,0.0
451,0.0
452,-2.031400747341744
453,0.0
490,0.0
515,0.0
516,0.0
542,0.0
592,3577354.2031937474
632,2817900.705118426
686,0.7795275620589085
687,0.6666666666666672
688,1.6666666666666679
2,21, 1,21, 0, 7,40.00,50.00,Sunday
250,22.974875590842927
251,7677087.654039937
336,0.0
385,23.43
386,27.25
387,-0.45992102479382463
388,0.0
425,0.0
450,0.0
451,0.0
452,-2.2532836234698355
453,0.0
490,0.0
515,0.0
516,0.0
542,0.0
592,4807650.944561
632,3400875.9180583227
686,1.0
687,1.0
688,2.0
2,21, 1,21, 0, 7,50.00,60.00,Sunday
250,23.38717759171127
251,8786940.325412119
336,0.0
385,23.43
386,27.25
387,-0.5379269658914041
388,0.0
425,0.0
450,0.0
451,0.0
452,-2.4805856814407736
453,0.0
490,0.0
515,0.0
516,0.0
542,0.0
592,4820476.093640697
632,3826847.6720693754
686,1.0
687,1.0
688,2.0
2,21, 1,21, 0, 8, 0.00,10.00,Sunday
250,22.288522318262412
251,6621014.022846507
336,0.0
385,22.096666666666664
386,27.25
387,-0.6017595196645591
388,0.0
425,0.0
450,0.0
451,0.0
452,-2.685247673697008
453,0.0
490,0.0
515,0.0
516,0.0
542,0.0
592,2729629.463683431
632,3808415.883415596
686,0.5896822833420776
687,0.5
688,1.1666666666666667
2,21, 1,21, 0, 8,10.00,20.00,Sunday
250,22.73380263840739
251,6480200.834947536
336,0.0
385,22.763333333333332
386,27.25
387,-0.658445005985984
388,0.0
425,0.0
450,0.0
451,0.0
452,-2.821719391561518
453,0.0
490,0.0
515,0.0
516,0.0
542,0.0
592,3614871.0986918476
632,2775749.6967198486
686,0.7776908520791941
687,0.6666666666666667
688,1.6666666666666667
2,21, 1,21, 0, 8,20.00,30.00,Sunday
250,22.974187766704944
251,7626432.374160457
336,0.0
385,23.43
386,27.25
387,-0.7145707548848079
388,0.0
425,0.0
450,0.0
451,0.0
452,-2.863068433171205
453,0.0
490,0.0
515,0.0
516,0.0
542,0.0
592,4858286.239228926
632,3299671.27420433
686,1.0
687,1.0
688,2.0
2,21, 1,21, 0, 8,30.00,40.00,Sunday
250,23.387082544924212
251,8664982.037918545
336,0.0
385,23.43
386,27.25
387,-0.7493449026977048
388,0.0
425,0.0
450,0.0
451,0.0
452,-2.7728072552910046
453,0.0
490,0.0
515,0.0
516,0.0
542,0.0
592,4862517.839382552
632,3662993.362741947
686,1.0
687,1.0
688,2.0
2,21, 1,21, 0, 8,40.00,50.00,Sunday
250,22.299493615534665
251,6412382.096151805
336,0.0
385,22.096666666666636
386,27.249999999999964
387,-0.7602247809962532
388,0.0
425,0.0
450,0.0
451,0.0
452,-2.560492627055868
453,0.0
490,0.0
515,0.0
516,0.0
542,0.0
592,2714654.9913833775
632,3611167.25685147
686,0.5786346412334418
687,0.49999999999999933
688,1.166666666666665
2,21, 1,21, 0, 8,50.00,60.00,Sunday
250,22.72957109354447
251,6216660.835248052
336,0.0
385,22.76333333333335
386,27.25000000000002
387,-0.7555431376905668
388,0.0
425,0.0
450,0.0
451,0.0
452,-2.2451671879241655
453,0.0
490,0.0
515,0.0
516,0.0
542,0.0
592,3571991.624451259
632,2574927.526651741
686,0.7565154094878814
687,0.6666666666666672
688,1.6666666666666679
2,21, 1,21, 0, 9, 0.00,10.00,Sunday
250,23.362094092359396
251,8178508.924369971
336,0.0
385,23.43
386,27.25
387,-0.7304356675932651
388,0.0
425,0.0
450,0.0
451,0.0
452,-1.8308683185608414
453,0.0
490,0.0
515,0.0
516,0.0
542,0.0
592,4901663.21320648
632,3201181.83678531
686,1.0
687,1.0
688,2.0
2,21, 1,21, 0, 9,10.00,20.00,Sunday
250,22.30629879293496
251,6261967.620047726
336,0.0
385,22.096666666666664
386,27.250000000000004
387,-0.686400561262945
388,0.0
425,0.0
450,0.0
451,0.0
452,-1.3566457018606493
453,0.0
490,0.0
515,0.0
516,0.0
542,0.0
592,2711975.024765739
632,3461412.1494913097
686,0.5707887978787334
687,0.5
688,1.1666666666666665
2,21, 1,21, 0, 9,20.00,30.00,Sunday
250,22.726228329700074
251,6016506.515998965
336,0.0
385,22.763333333333325
386,27.249999999999993
387,-0.625381931777045
388,0.0
425,0.0
450,0.0
451,0.0
452,-0.8105347019808223
453,0.0
490,0.0
515,0.0
516,0.0
542,0.0
592,3553635.70909283
632,2408611.227866656
686,0.7405174004946847
687,0.6666666666666664
688,1.666666666666666
2,21, 1,21, 0, 9,30.00,40.00,Sunday
250,22.758348800976375
251,7364305.607260458
336,0.0
385,22.763333333333343
386,27.250000000000014
387,-0.5283715990262274
388,0.0
425,0.0
450,0.0
451,0.0
452,-0.04879884445976533
453,0.0
490,0.0
515,0.0
516,0.0
542,0.0
592,3230881.9905432668
632,3969437.4724475024
686,0.776483149638584
687,0.3333333333333332
688,1.3333333333333335
2,21, 1,21, 0, 9,40.00,50.00,Sunday
250,22.759471930005475
251,7329300.489265303
336,0.0
385,22.76333333333335
386,27.25000000000002
387,-0.44312737749564535
388,0.0
425,0.0
450,0.0
451,0.0
452,0.5963900127693387
453,0.0
490,0.0
515,0.0
516,0.0
542,0.0
592,3250885.558127328
632,3909874.579789337
686,0.7787078247275429
687,0.3333333333333336
688,1.3333333333333344
2,21, 1,21, 0, 9,50.00,60.00,Sunday
250,23.364734431034876
251,8022826.467611342
336,0.0
385,23.43
386,27.25
387,-0.37015007838830793
388,0.0
425,0.0
450,0.0
451,0.0
452,1.1115172382785197
453,0.0
490,0.0
515,0.0
516,0.0
542,0.0
592,4989795.625147833
632,2949483.429551994
686,1.0
687,1.0
688,2.0
2,21, 1,21, 0,10, 0.00,10.00,Sunday
250,22.318275932223298
251,6037055.299803538
336,0.0
385,22.096666666666664
386,27.25
387,-0.297814570547647
388,0.0
425,0.0
450,0.0
451,0.0
452,1.575622576875927
453,0.0
490,0.0
515,0.0
516,0.0
542,0.0
592,2724314.0558438376
632,3220390.9073210005
686,0.558384083119899
687,0.5
688,1.1666666666666667
2,21, 1,21, 0,10,10.00,20.00,Sunday
250,22.7221191660735
251,5764427.814809918
336,0.0
385,22.763333333333332
386,27.25
387,-0.21126869109852597
388,0.0
425,0.0
450,0.0
451,0.0
452,2.085346087176526
453,0.0
490,0.0
515,0.0
516,0.0
542,0.0
592,3568037.515908929
632,2160971.8720192676
686,0.720688093524902
687,0.6666666666666667
688,1.6666666666666667
2,21, 1,21, 0,10,20.00,30.00,Sunday
250,22.753301945289586
251,7101620.538780626
336,0.0
385,22.763333333333325
386,27.249999999999993
387,-0.07582983794948146
388,0.0
425,0.0
450,0.0
451,0.0
452,2.7768759049301206
453,0.0
490,0.0
515,0.0
516,0.0
542,0.0
592,3111798.5040391404
632,3855141.758622334
686,0.7195286883491269
687,0.3333333333333332
688,1.3333333333333328
2,21, 1,21, 0,10,30.00,40.00,Sunday
250,22.753513752101007
251,7016898.310958261
336,0.0
385,22.763333333333343
386,27.250000000000014
387,0.05614732685404694
388,0.0
425,0.0
450,0.0
451,0.0
452,3.4088564843468014
453,0.0
490,0.0
515,0.0
516,0.0
542,0.0
592,3106392.625669029
632,3776570.254701121
686,0.7125537076689468
687,0.3333333333333332
688,1.3333333333333335
2,21, 1,21, 0,10,40.00,50.00,Sunday
250,22.75171177874269
251,6911700.978296088
336,0.0
385,22.76333333333335
386,27.25000000000002
387,0.19707081588194947
388,0.0
425,0.0
450,0.0
451,0.0
452,4.086633306427066
453,0.0
490,0.0
515,0.0
516,0.0
542,0.0
592,3052577.7556506074
632,3735753.192306737
686,0.6926094060509732
687,0.3333333333333336
688,1.3333333333333344
2,21, 1,21, 0,10,50.00,60.00,Sunday
250,22.749825567051452
251,6804531.715901748
336,0.0
385,22.76333333333335
386,27.25000000000002
387,0.35590498444243046
388,0.0
425,0.0
450,0.0
451,0.0
452,4.845027853122228
453,0.0
490,0.0
515,0.0
516,0.0
542,0.0
592,2995888.504224751
632,3696208.5268022725
686,0.6721508289392712
687,0.3333333333333336
688,1.3333333333333344
2,21, 1,21, 0,11, 0.00,10.00,Sunday
250,22.747995390621703
251,6698525.767264382
336,0.0
385,22.763333333333335
386,27.25
387,0.5265379500611075
388,0.0
425,0.0
450,0.0
451,0.0
452,5.667597645856665
453,0.0
490,0.0
515,0.0
516,0.0
542,0.0
592,2934557.474179225
632,3662023.8342964672
686,0.652935335616714
687,0.3333333333333333
688,1.3333333333333335
2,21, 1,21, 0,11,10.00,20.00,Sunday
250,22.746134747814473
251,6589647.3938539345
336,0.0
385,22.763333333333332
386,27.25
387,0.7085113886864722
388,0.0
425,0.0
450,0.0
451,0.0
452,6.535418023044772
453,0.0
490,0.0
515,0.0
516,0.0
542,0.0
592,2871848.2040025843
632,3626491.7199001387
686,0.6334899003436792
687,0.33333333333333337
688,1.3333333333333333
2,21, 1,21, 0,11,20.00,30.00,Sunday
250,22.523664514456634
251,5740457.827426554
336,0.0
385,22.43
386,27.25
387,0.858471395791098
388,0.0
425,0.0
450,0.0
451,0.0
452,7.3089864885193165
453,0.0
490,0.0
515,0.0
516,0.0
542,0.0
592,3934965.988208864
632,1652782.7068594436
686,0.75
687,0.75
688,1.5
2,21, 1,21, 0,11,30.00,40.00,Sunday
250,22.474288897571377
251,6258151.034191495
336,0.0
385,22.43
386,27.25
387,1.092466604446149
388,0.0
425,0.0
450,0.0
451,0.0
452,8.334927103741023
453,0.0
490,0.0
515,0.0
516,0.0
542,0.0
592,3182595.0203101477
632,2998267.796479047
686,0.64494039900889
687,0.5
688,1.25
2,21, 1,21, 0,11,40.00,50.00,Sunday
250,22.477361853091846
251,6089012.307348207
336,0.0
385,22.43
386,27.25
387,1.322542505053006
388,0.0
425,0.0
450,0.0
451,0.0
452,9.209011584769634
453,0.0
490,0.0
515,0.0
516,0.0
542,0.0
592,3193459.0917672263
632,2822582.5276501216
686,0.6448342184036029
687,0.5
688,1.25
2,21, 1,21, 0,11,50.00,60.00,Sunday
250,22.72903088143711
251,4789978.962549622
336,0.0
385,22.76333333333335
386,27.25000000000002
387,1.50091711821532
388,0.0
425,0.0
450,0.0
451,0.0
452,9.8584191632168
453,0.0
490,0.0
515,0.0
516,0.0
542,0.0
592,3523528.0453075925
632,1261938.1547779667
686,0.6666666666666672
687,0.6593257246845878
688,1.3333333333333344
2,21, 1,21, 0,12, 0.00,10.00,Sunday
250,22.35933243468998
251,4884598.223435421
336,0.0
385,22.230000000000004
386,27.25
387,1.6783611324182677
388,0.0
425,0.0
450,0.0
451,0.0
452,10.424672340651593
453,0.0
490,0.0
515,0.0
516,0.0
542,0.0
592,2450067.562848998
632,2490301.141738562
686,0.48507746519718187
687,0.4
688,1.0
2,21, 1,21, 0,12,10.00,20.00,Sunday
250,22.694890170911584
251,6583770.79484919
336,0.0
385,22.763333333333332
386,27.25
387,1.8662308823203464
388,0.0
425,0.0
450,0.0
451,0.0
452,10.91781837921428
453,0.0
490,0.0
515,0.0
516,0.0
542,0.0
592,3865761.8399480786
632,2762602.5653711706
686,0.8779460968694333
687,0.33333333333333337
688,1.3333333333333333
2,21, 1,21, 0,12,20.00,30.00,Sunday
250,22.78889967977126
251,4792685.116390437
336,0.0
385,22.763333333333325
386,27.249999999999993
387,2.121186091942218
388,0.0
425,0.0
450,0.0
451,0.0
452,11.417013684554382
453,0.0
490,0.0
515,0.0
516,0.0
542,0.0
592,3548850.554251238
632,1200913.1590044799
686,0.6666666666666664
687,0.6666666666666664
688,1.3333333333333328
2,21, 1,21, 0,12,30.00,40.00,Sunday
250,22.382257546016305
251,4705141.495262734
336,0.0
385,22.229999999999993
386,27.24999999999999
387,2.266485157369705
388,0.0
425,0.0
450,0.0
451,0.0
452,11.628706416253427
453,0.0
490,0.0
515,0.0
516,0.0
542,0.0
592,2404281.797887075
632,2351107.111839262
686,0.4704911820711394
687,0.3999999999999997
688,0.9999999999999993
2,21, 1,21, 0,12,40.00,50.00,Sunday
250,22.69394023455344
251,6424092.159524931
336,0.0
385,22.76333333333335
386,27.25000000000002
387,2.403353570916265
388,0.0
425,0.0
450,0.0
451,0.0
452,11.728566054414628
453,0.0
490,0.0
515,0.0
516,0.0
542,0.0
592,3763692.751233305
632,2712804.5063796826
686,0.8473811900970587
687,0.3333333333333336
688,1.3333333333333344
2,21, 1,21, 0,12,50.00,60.00,Sunday
250,22.796875910920615
251,4714411.568896294
336,0.0
385,22.76333333333335
386,27.25000000000002
387,2.5753816528545452
388,0.0
425,0.0
450,0.0
451,0.0
452,11.726604764696669
453,0.0
490,0.0
515,0.0
516,0.0
542,0.0
592,3563614.774924795
632,1107994.6486292367
686,0.6666666666666672
687,0.6666666666666672
688,1.3333333333333344
2,21, 1,21, 0,13, 0.00,10.00,Sunday
250,22.39256053542318
251,4603996.928297108
336,0.0
385,22.230000000000004
386,27.25
387,2.6667033102197264
388,0.0
425,0.0
450,0.0
451,0.0
452,11.63499144550206
453,0.0
490,0.0
515,0.0
516,0.0
542,0.0
592,2378225.32098528
632,2274278.1457736487
686,0.46242775545023695
687,0.4
688,1.0
2,21, 1,21, 0,13,10.00,20.00,Sunday
250,22.69268843202109
251,6249028.092369008
336,0.0
385,22.763333333333332
386,27.25
387,2.7517369752590213
388,0.0
425,0.0
450,0.0
451,0.0
452,11.542845115315673
453,0.0
490,0.0
515,0.0
516,0.0
542,0.0
592,3648318.963831612
632,2662341.793026599
686,0.8175388460003271
687,0.33333333333333337
688,1.3333333333333333
2,21, 1,21, 0,13,20.00,30.00,Sunday
250,22.815083471918996
251,4560462.919526853
336,0.0
385,22.763333333333325
386,27.249999999999993
387,2.8612560028529384
388,0.0
425,0.0
450,0.0
451,0.0
452,11.455041448126892
453,0.0
490,0.0
515,0.0
516,0.0
542,0.0
592,3556103.920184389
632,961710.3633513798
686,0.6666666666666664
687,0.6666666666666664
688,1.3333333333333328
2,21, 1,21, 0,13,30.00,40.00,Sunday
250,22.41106503110811
251,4440614.222115179
336,0.0
385,22.229999999999993
386,27.24999999999999
387,2.927242687423447
388,0.0
425,0.0
450,0.0
451,0.0
452,11.427623452626158
453,0.0
490,0.0
515,0.0
516,0.0
542,0.0
592,2326720.6040144735
632,2158764.991679907
686,0.4503191278982619
687,0.3999999999999997
688,0.9999999999999993
2,21, 1,21, 0,13,40.00,50.00,Sunday
250,22.69077167911495
251,6034704.913239032
336,0.0
385,22.76333333333335
386,27.25000000000002
387,2.995263812728224
388,0.0
425,0.0
450,0.0
451,0.0
452,11.411203704325876
453,0.0
490,0.0
515,0.0
516,0.0
542,0.0
592,3497295.6102784686
632,2610679.4167433106
686,0.7803691637348612
687,0.3333333333333336
688,1.3333333333333344
2,21, 1,21, 0,13,50.00,60.00,Sunday
250,22.8318142238546
251,4419454.376908753
336,0.0
385,22.76333333333335
386,27.25000000000002
387,3.0887264969489747
388,0.0
425,0.0
450,0.0
451,0.0
452,11.396550163015805
453,0.0
490,0.0
515,0.0
516,0.0
542,0.0
592,3548586.384384498
632,828512.8618410679
686,0.6666666666666672
687,0.6666666666666672
688,1.3333333333333344
2,21, 1,21, 0,14, 0.00,10.00,Sunday
250,22.42576181960107
251,4314372.210557258
336,0.0
385,22.230000000000004
386,27.25
387,3.150713953503352
388,0.0
425,0.0
450,0.0
451,0.0
452,11.356035249838813
453,0.0
490,0.0
515,0.0
516,0.0
542,0.0
592,2291793.9976271978
632,2064479.9856259418
686,0.44076074469284193
687,0.4
688,1.0
2,21, 1,21, 0,14,10.00,20.00,Sunday
250,22.689626547622744
251,5904131.597333247
336,0.0
385,22.763333333333332
386,27.25
387,3.21468159256339
388,0.0
425,0.0
450,0.0
451,0.0
452,11.251802951510813
453,0.0
490,0.0
515,0.0
516,0.0
542,0.0
592,3412218.897575729
632,2573461.047250802
686,0.7547465973920515
687,0.33333333333333337
688,1.3333333333333333
2,21, 1,21, 0,14,20.00,30.00,Sunday
250,22.839847060954085
251,4352028.306750929
336,0.0
385,22.763333333333325
386,27.249999999999993
387,3.299034670884965
388,0.0
425,0.0
450,0.0
451,0.0
452,11.050557892817165
453,0.0
490,0.0
515,0.0
516,0.0
542,0.0
592,3572141.3798033064
632,737694.805054327
686,0.6666666666666664
687,0.6666666666666664
688,1.3333333333333328
2,21, 1,21, 0,14,30.00,40.00,Sunday
250,22.432857494739647
251,4255321.609388227
336,0.0
385,22.229999999999993
386,27.24999999999999
387,3.3415300706552804
388,0.0
425,0.0
450,0.0
451,0.0
452,10.807650072583035
453,0.0
490,0.0
515,0.0
516,0.0
542,0.0
592,2289170.129248792
632,2006625.42858165
686,0.43626966466229244