Program Version,EnergyPlus, Version 24.2.0-94a887817b, YMD=2025.02.04 17:10
1,5,Environment Title[],Latitude[deg],Longitude[deg],Time Zone[],Elevation[m]
2,8,Day of Simulation[],Month[],Day of Month[],DST Indicator[1=yes 0=no],Hour[],StartMinute[],EndMinute[],DayType
3,5,Cumulative Day of Simulation[],Month[],Day of Month[],DST Indicator[1=yes 0=no],DayType  ! When Daily Meters Requested
4,2,Cumulative Days of Simulation[],Month[]  ! When Monthly Meters Requested
5,1,Cumulative Days of Simulation[] ! When Run Period Meters Requested
6,1,Calendar Year of Simulation[] ! When Annual Meters Requested
11,9,Electricity:Facility [J] !Monthly [Value,Min,Day,Hour,Minute,Max,Day,Hour,Minute]
23,9,Electricity:Building [J] !Monthly [Value,Min,Day,Hour,Minute,Max,Day,Hour,Minute]
59,9,InteriorLights:Electricity [J] !Monthly [Value,Min,Day,Hour,Minute,Max,Day,Hour,Minute]
521,9,Electricity:HVAC [J] !Monthly [Value,Min,Day,Hour,Minute,Max,Day,Hour,Minute]
637,9,NaturalGas:Facility [J] !Monthly [Value,Min,Day,Hour,Minute,Max,Day,Hour,Minute]
649,9,NaturalGas:HVAC [J] !Monthly [Value,Min,Day,Hour,Minute,Max,Day,Hour,Minute]
13,11,Electricity:Facility [J] !RunPeriod [Value,Min,Month,Day,Hour,Minute,Max,Month,Day,Hour,Minute]
25,11,Electricity:Building [J] !RunPeriod [Value,Min,Month,Day,Hour,Minute,Max,Month,Day,Hour,Minute]
61,11,InteriorLights:Electricity [J] !RunPeriod [Value,Min,Month,Day,Hour,Minute,Max,Month,Day,Hour,Minute]
523,11,Electricity:HVAC [J] !RunPeriod [Value,Min,Month,Day,Hour,Minute,Max,Month,Day,Hour,Minute]
639,11,NaturalGas:Facility [J] !RunPeriod [Value,Min,Month,Day,Hour,Minute,Max,Month,Day,Hour,Minute]
651,11,NaturalGas:HVAC [J] !RunPeriod [Value,Min,Month,Day,Hour,Minute,Max,Month,Day,Hour,Minute]
End of Data Dictionary
1,YEARSIMULATION,  41.98, -87.92,  -6.00, 201.00
4,31, 1
11,8872873149.615383,268882.2045869465,11,20,10,3556219.8927002554,26,14,60
23,1935486693.3673935,108175.91248072778,11,20,30,1074003.3921699235,31,14,50
59,988769997.9810877,30574.211440356175, 1, 1,10,611484.2288071234, 1, 8,10
521,6937386456.24804,0.0,11,13,50,2571616.968271935,27,20,20
637,15946022241.648285,0.0, 1,10,10,19748101.31902747,31, 7,30
649,15946022241.648285,0.0, 1,10,10,19748101.31902747,31, 7,30
4,59, 2
11,7394839950.824168,249700.78076883065,11,15,10,-99999999999999.0,26,14,60
23,1706699900.699358,99999999999999.0,11,20,30,-99999999999999.0,31,14,50
59,864394105.8417469,99999999999999.0, 1, 1,10,-99999999999999.0, 1, 8,10
521,5688140050.124785,99999999999999.0,11,13,50,2575339.2783951024, 5, 4,20
637,12868273619.067062,99999999999999.0, 1,10,10,20746287.393792592, 3, 8,10
649,12868273619.067062,99999999999999.0, 1,10,10,20746287.393792592, 3, 8,10
4,90, 3
11,7280072144.354168,93480.48315527842,31,16,60,-99999999999999.0,26,14,60
23,1855447495.1215572,93480.48315527842,31,16,60,-99999999999999.0,31,14,50
59,951714053.7153918,99999999999999.0, 1, 1,10,-99999999999999.0, 1, 8,10
521,5424624649.232598,99999999999999.0,11,13,50,-99999999999999.0, 5, 4,20
637,9572921663.974,99999999999999.0, 1,10,10,-99999999999999.0, 3, 8,10
649,9572921663.974,99999999999999.0, 1,10,10,-99999999999999.0, 3, 8,10
4,120, 4
11,4311591970.186956,30574.211440356175,12,19,20,-99999999999999.0,26,14,60
23,1681496314.4678402,30574.211440356175, 5, 3,50,-99999999999999.0,31,14,50
59,910255423.0022607,99999999999999.0, 1, 1,10,-99999999999999.0, 1, 8,10
521,2630095655.719125,99999999999999.0,11,13,50,-99999999999999.0, 5, 4,20
637,3882619544.878455,99999999999999.0, 1,10,10,-99999999999999.0, 3, 8,10
649,3882619544.878455,99999999999999.0, 1,10,10,-99999999999999.0, 3, 8,10
4,151, 5
11,3208771241.3589807,99999999999999.0,12,19,20,-99999999999999.0,26,14,60
23,1722522296.3315547,99999999999999.0, 5, 3,50,-99999999999999.0,31,14,50
59,988769997.9810877,99999999999999.0, 1, 1,10,-99999999999999.0, 1, 8,10
521,1486248945.0274394,99999999999999.0,11,13,50,-99999999999999.0, 5, 4,20
637,860703981.4172001,99999999999999.0, 1,10,10,-99999999999999.0, 3, 8,10
649,860703981.4172001,99999999999999.0, 1,10,10,-99999999999999.0, 3, 8,10
4,181, 6
11,3096316000.186939,99999999999999.0,12,19,20,-99999999999999.0,26,14,60
23,1515703835.3951924,99999999999999.0, 5, 3,50,-99999999999999.0,31,14,50
59,910255423.0022646,99999999999999.0, 1, 1,10,-99999999999999.0, 1, 8,10
521,1580612164.7917461,99999999999999.0,11,13,50,-99999999999999.0, 5, 4,20
637,38220518.28077253,99999999999999.0, 1,10,10,-99999999999999.0, 3, 8,10
649,38220518.28077253,99999999999999.0, 1,10,10,-99999999999999.0, 3, 8,10
4,212, 7
11,3801357638.432727,99999999999999.0,12,19,20,-99999999999999.0,26,14,60
23,1516381395.047583,99999999999999.0, 5, 3,50,-99999999999999.0,31,14,50
59,951714053.7153797,99999999999999.0, 1, 1,10,-99999999999999.0, 1, 8,10
521,2284976243.385153,99999999999999.0,11,13,50,-99999999999999.0, 5, 4,20
637,0.0,99999999999999.0, 1,10,10,-99999999999999.0, 3, 8,10
649,0.0,99999999999999.0, 1,10,10,-99999999999999.0, 3, 8,10
4,243, 8
11,3503453457.524149,99999999999999.0,12,19,20,-99999999999999.0,26,14,60
23,1603654323.9794722,99999999999999.0, 5, 3,50,-99999999999999.0,31,14,50
59,988769997.9810877,99999999999999.0, 1, 1,10,-99999999999999.0, 1, 8,10
521,1899799133.5446825,99999999999999.0,11,13,50,-99999999999999.0, 5, 4,20
637,11572769.366176682,99999999999999.0, 1,10,10,-99999999999999.0, 3, 8,10
649,11572769.366176682,99999999999999.0, 1,10,10,-99999999999999.0, 3, 8,10
4,273, 9
11,2658281183.593331,99999999999999.0,12,19,20,-99999999999999.0,26,14,60
23,1483360476.9235148,99999999999999.0, 5, 3,50,-99999999999999.0,31,14,50
59,873199478.7365527,99999999999999.0, 1, 1,10,-99999999999999.0, 1, 8,10
521,1174920706.6698146,99999999999999.0,11,13,50,-99999999999999.0, 5, 4,20
637,57891212.73725211,99999999999999.0, 1,10,10,-99999999999999.0, 3, 8,10
649,57891212.73725211,99999999999999.0, 1,10,10,-99999999999999.0, 3, 8,10
4,304,10
11,3525197088.5945373,99999999999999.0,12,19,20,-99999999999999.0,26,14,60
23,1768943552.9190042,99999999999999.0, 5, 3,50,-99999999999999.0,31,14,50
59,988769997.9810877,99999999999999.0, 1, 1,10,-99999999999999.0, 1, 8,10
521,1756253535.6755393,99999999999999.0,11,13,50,-99999999999999.0, 5, 4,20
637,2031591318.4661386,99999999999999.0, 1,10,10,-99999999999999.0, 3, 8,10
649,2031591318.4661386,99999999999999.0, 1,10,10,-99999999999999.0, 3, 8,10
4,334,11
11,6081739532.089721,99999999999999.0,12,19,20,-99999999999999.0,26,14,60
23,1792440137.1918914,99999999999999.0, 5, 3,50,-99999999999999.0,31,14,50
59,947311367.267985,99999999999999.0, 1, 1,10,-99999999999999.0, 1, 8,10
521,4289299394.897826,99999999999999.0,11,13,50,-99999999999999.0, 5, 4,20
637,7976675079.135367,99999999999999.0, 1,10,10,-99999999999999.0, 3, 8,10
649,7976675079.135367,99999999999999.0, 1,10,10,-99999999999999.0, 3, 8,10
4,365,12
11,7532476285.988673,99999999999999.0,12,19,20,-99999999999999.0,26,14,60
23,1775298726.20629,99999999999999.0, 5, 3,50,-99999999999999.0,31,14,50
59,914658109.4496717,99999999999999.0, 1, 1,10,-99999999999999.0, 1, 8,10
521,5757177559.782407,99999999999999.0,11,13,50,-99999999999999.0, 5, 4,20
637,9978053738.151976,99999999999999.0, 1,10,10,-99999999999999.0, 3, 8,10
649,9978053738.151976,99999999999999.0, 1,10,10,-99999999999999.0, 3, 8,10
5,365
13,61266969642.75029,30574.211440356175, 4,12,19,20,3556219.8927002554, 1,26,14,60
25,20357435147.65408,30574.211440356175, 4, 5, 3,50,1074003.3921699235, 1,31,14,50
61,11278582006.662117,30574.211440356175, 1, 1, 1,10,611484.2288071234, 1, 1, 8,10
523,40909534495.09889,0.0, 1,11,13,50,2575339.2783951024, 2, 5, 4,20
639,63224545687.12277,0.0, 1, 1,10,10,20746287.393792592, 2, 3, 8,10
651,63224545687.12277,0.0, 1, 1,10,10,20746287.393792592, 2, 3, 8,10
End of Data
 Number of Records Written=          78
