Program Version,EnergyPlus, Version 24.2.0-94a887817b, YMD=2025.02.11 00:15
1,5,Environment Title[],Latitude[deg],Longitude[deg],Time Zone[],Elevation[m]
2,8,Day of Simulation[],Month[],Day of Month[],DST Indicator[1=yes 0=no],Hour[],StartMinute[],EndMinute[],DayType
3,5,Cumulative Day of Simulation[],Month[],Day of Month[],DST Indicator[1=yes 0=no],DayType  ! When Daily Meters Requested
4,2,Cumulative Days of Simulation[],Month[]  ! When Monthly Meters Requested
5,1,Cumulative Days of Simulation[] ! When Run Period Meters Requested
6,1,Calendar Year of Simulation[] ! When Annual Meters Requested
11,9,Electricity:Facility [J] !Monthly [Value,Min,Day,Hour,Minute,Max,Day,Hour,Minute]
23,9,Electricity:Building [J] !Monthly [Value,Min,Day,Hour,Minute,Max,Day,Hour,Minute]
59,9,InteriorLights:Electricity [J] !Monthly [Value,Min,Day,Hour,Minute,Max,Day,Hour,Minute]
521,9,Electricity:HVAC [J] !Monthly [Value,Min,Day,Hour,Minute,Max,Day,Hour,Minute]
637,9,NaturalGas:Facility [J] !Monthly [Value,Min,Day,Hour,Minute,Max,Day,Hour,Minute]
649,9,NaturalGas:HVAC [J] !Monthly [Value,Min,Day,Hour,Minute,Max,Day,Hour,Minute]
13,11,Electricity:Facility [J] !RunPeriod [Value,Min,Month,Day,Hour,Minute,Max,Month,Day,Hour,Minute]
25,11,Electricity:Building [J] !RunPeriod [Value,Min,Month,Day,Hour,Minute,Max,Month,Day,Hour,Minute]
61,11,InteriorLights:Electricity [J] !RunPeriod [Value,Min,Month,Day,Hour,Minute,Max,Month,Day,Hour,Minute]
523,11,Electricity:HVAC [J] !RunPeriod [Value,Min,Month,Day,Hour,Minute,Max,Month,Day,Hour,Minute]
639,11,NaturalGas:Facility [J] !RunPeriod [Value,Min,Month,Day,Hour,Minute,Max,Month,Day,Hour,Minute]
651,11,NaturalGas:HVAC [J] !RunPeriod [Value,Min,Month,Day,Hour,Minute,Max,Month,Day,Hour,Minute]
End of Data Dictionary
1,RUN PERIOD 1,  41.98, -87.92,  -6.00, 201.00
4,31, 1
11,9219922045.000128,340236.92826152785,11,20,10,3502121.8346303334,23,13,40
23,1856892696.0103743,108954.4879059061,11,20,50,1019578.0714137558,30,13,60
59,930717955.8905131,28779.15757237169, 1, 1,10,575583.1514474339, 1, 8,10
521,7363029348.989746,0.0,11,14,10,2575805.3985402347,12,22,60
637,16814692848.942446,0.0, 1, 3,10,20796929.32928986,31, 7,60
649,16814692848.942446,0.0, 1, 3,10,20796929.32928986,31, 7,60
4,59, 2
11,7639907805.656844,253845.0017435672, 9,15,50,3509278.1305842646,21,12,30
23,1638343289.7391052,99999999999999.0,11,20,50,-99999999999999.0,30,13,60
59,813644342.8861002,99999999999999.0, 1, 1,10,-99999999999999.0, 1, 8,10
521,6001564515.917765,99999999999999.0,11,14,10,2616155.20760285, 5, 1,60
637,13630146514.399164,99999999999999.0, 1, 3,10,21365312.343660362, 3, 8,20
649,13630146514.399164,99999999999999.0, 1, 3,10,21365312.343660362, 3, 8,20
4,90, 3
11,7637589467.078449,96044.17081603932,31,16,50,-99999999999999.0,21,12,30
23,1728131029.5341544,95026.77959612245,31,16,50,1028454.7234073847,18, 9,60
59,860957277.9350842,99999999999999.0, 1, 1,10,-99999999999999.0, 1, 8,10
521,5909458437.544289,99999999999999.0,11,14,10,-99999999999999.0, 5, 1,60
637,10136013674.87779,99999999999999.0, 1, 3,10,-99999999999999.0, 3, 8,20
649,10136013674.87779,99999999999999.0, 1, 3,10,-99999999999999.0, 3, 8,20
4,120, 4
11,4534202231.056678,28779.15757237169,12,19,10,-99999999999999.0,21,12,30
23,1658615391.965438,28779.15757237169,11,19,10,-99999999999999.0,18, 9,60
59,891693418.222377,99999999999999.0, 1, 1,10,-99999999999999.0, 1, 8,10
521,2875586839.091261,99999999999999.0,11,14,10,-99999999999999.0, 5, 1,60
637,4201523808.40769,99999999999999.0, 1, 3,10,-99999999999999.0, 3, 8,20
649,4201523808.40769,99999999999999.0, 1, 3,10,-99999999999999.0, 3, 8,20
4,151, 5
11,3295349613.021009,99999999999999.0,12,19,10,-99999999999999.0,21,12,30
23,1634922816.8343081,99999999999999.0,11,19,10,-99999999999999.0,18, 9,60
59,930717955.8905176,99999999999999.0, 1, 1,10,-99999999999999.0, 1, 8,10
521,1660426796.1866887,99999999999999.0,11,14,10,-99999999999999.0, 5, 1,60
637,1059495048.7690716,99999999999999.0, 1, 3,10,-99999999999999.0, 3, 8,20
649,1059495048.7690716,99999999999999.0, 1, 3,10,-99999999999999.0, 3, 8,20
4,181, 6
11,3039451738.7566385,99999999999999.0,12,19,10,-99999999999999.0,21,12,30
23,1378148950.7435517,99999999999999.0,11,19,10,-99999999999999.0,18, 9,60
59,821932740.2669475,99999999999999.0, 1, 1,10,-99999999999999.0, 1, 8,10
521,1661302788.0130754,99999999999999.0,11,14,10,-99999999999999.0, 5, 1,60
637,63694707.76434736,99999999999999.0, 1, 3,10,-99999999999999.0, 3, 8,20
649,63694707.76434736,99999999999999.0, 1, 3,10,-99999999999999.0, 3, 8,20
4,212, 7
11,3835762021.2353115,99999999999999.0,12,19,10,-99999999999999.0,21,12,30
23,1476833988.272668,99999999999999.0,11,19,10,-99999999999999.0,18, 9,60
59,930717955.8905131,99999999999999.0, 1, 1,10,-99999999999999.0, 1, 8,10
521,2358928032.962601,99999999999999.0,11,14,10,-99999999999999.0, 5, 1,60
637,3265809.169597258,99999999999999.0, 1, 3,10,-99999999999999.0, 3, 8,20
649,3265809.169597258,99999999999999.0, 1, 3,10,-99999999999999.0, 3, 8,20
4,243, 8
11,3392598994.5673523,99999999999999.0,12,19,10,-99999999999999.0,21,12,30
23,1454019758.3135602,99999999999999.0,11,19,10,-99999999999999.0,18, 9,60
59,895837616.9128054,99999999999999.0, 1, 1,10,-99999999999999.0, 1, 8,10
521,1938579236.2537813,99999999999999.0,11,14,10,-99999999999999.0, 5, 1,60
637,19091813.620990727,99999999999999.0, 1, 3,10,-99999999999999.0, 3, 8,20
649,19091813.620990727,99999999999999.0, 1, 3,10,-99999999999999.0, 3, 8,20
4,273, 9
11,2777823084.1894355,99999999999999.0,12,19,10,-99999999999999.0,21,12,30
23,1455357892.5589552,99999999999999.0,11,19,10,-99999999999999.0,18, 9,60
59,856813079.2446623,99999999999999.0, 1, 1,10,-99999999999999.0, 1, 8,10
521,1322465191.6304722,99999999999999.0,11,14,10,-99999999999999.0, 5, 1,60
637,84194572.7358219,99999999999999.0, 1, 3,10,-99999999999999.0, 3, 8,20
649,84194572.7358219,99999999999999.0, 1, 3,10,-99999999999999.0, 3, 8,20
4,304,10
11,3605887074.440992,99999999999999.0,12,19,10,-99999999999999.0,21,12,30
23,1685786646.2564566,99999999999999.0,11,19,10,-99999999999999.0,18, 9,60
59,930717955.8905131,99999999999999.0, 1, 1,10,-99999999999999.0, 1, 8,10
521,1920100428.1845386,99999999999999.0,11,14,10,-99999999999999.0, 5, 1,60
637,2293302174.2537894,99999999999999.0, 1, 3,10,-99999999999999.0, 3, 8,20
649,2293302174.2537894,99999999999999.0, 1, 3,10,-99999999999999.0, 3, 8,20
4,334,11
11,6308464480.840524,99999999999999.0,12,19,10,-99999999999999.0,21,12,30
23,1664547124.9826486,99999999999999.0,11,19,10,-99999999999999.0,18, 9,60
59,856813079.2446603,99999999999999.0, 1, 1,10,-99999999999999.0, 1, 8,10
521,4643917355.8578615,99999999999999.0,11,14,10,-99999999999999.0, 5, 1,60
637,8635330035.643501,99999999999999.0, 1, 3,10,-99999999999999.0, 3, 8,20
649,8635330035.643501,99999999999999.0, 1, 3,10,-99999999999999.0, 3, 8,20
4,365,12
11,8027406814.72177,99999999999999.0,12,19,10,3518889.7601218065,18,11,60
23,1755653047.3282938,99999999999999.0,11,19,10,-99999999999999.0,18, 9,60
59,895837616.9127984,99999999999999.0, 1, 1,10,-99999999999999.0, 1, 8,10
521,6271753767.393466,99999999999999.0,11,14,10,-99999999999999.0, 5, 1,60
637,10426635854.323399,99999999999999.0, 1, 3,10,-99999999999999.0, 3, 8,20
649,10426635854.323399,99999999999999.0, 1, 3,10,-99999999999999.0, 3, 8,20
5,365
13,63314365370.56435,28779.15757237169, 4,12,19,10,3518889.7601218065,12,18,11,60
25,19387252632.536934,28779.15757237169, 4,11,19,10,1028454.7234073847, 3,18, 9,60
61,10616400995.185692,28779.15757237169, 1, 1, 1,10,575583.1514474339, 1, 1, 8,10
523,43927112738.025154,0.0, 1,11,14,10,2616155.20760285, 2, 5, 1,60
639,67367386862.907875,0.0, 1, 1, 3,10,21365312.343660362, 2, 3, 8,20
651,67367386862.907875,0.0, 1, 1, 3,10,21365312.343660362, 2, 3, 8,20
1,RUN PERIOD 2,  41.98, -87.92,  -6.00, 201.00
4,1, 7
11,113480628.01793063,99999999999999.0,12,19,10,-99999999999999.0,18,11,60
23,62094342.50042097,99999999999999.0,11,19,10,-99999999999999.0,18, 9,60
59,39024537.66813607,99999999999999.0, 1, 1,10,-99999999999999.0, 1, 8,10
521,51386285.51750968,99999999999999.0,11,14,10,-99999999999999.0, 5, 1,60
637,0.0,99999999999999.0, 1, 3,10,-99999999999999.0, 3, 8,20
649,0.0,99999999999999.0, 1, 3,10,-99999999999999.0, 3, 8,20
5,1
13,113480628.01793063,99999999999999.0, 4,12,19,10,-99999999999999.0,12,18,11,60
25,62094342.50042097,99999999999999.0, 4,11,19,10,-99999999999999.0, 3,18, 9,60
61,39024537.66813607,99999999999999.0, 1, 1, 1,10,-99999999999999.0, 1, 1, 8,10
523,51386285.51750968,99999999999999.0, 1,11,14,10,-99999999999999.0, 2, 5, 1,60
639,0.0,99999999999999.0, 1, 1, 3,10,-99999999999999.0, 2, 3, 8,20
651,0.0,99999999999999.0, 1, 1, 3,10,-99999999999999.0, 2, 3, 8,20
End of Data
 Number of Records Written=          90
