Program Version,EnergyPlus, Version 24.2.0-94a887817b, YMD=2025.02.04 17:10
1,5,Environment Title[],Latitude[deg],Longitude[deg],Time Zone[],Elevation[m]
2,8,Day of Simulation[],Month[],Day of Month[],DST Indicator[1=yes 0=no],Hour[],StartMinute[],EndMinute[],DayType
3,5,Cumulative Day of Simulation[],Month[],Day of Month[],DST Indicator[1=yes 0=no],DayType  ! When Daily Report Variables Requested
4,2,Cumulative Days of Simulation[],Month[]  ! When Monthly Report Variables Requested
5,1,Cumulative Days of Simulation[] ! When Run Period Report Variables Requested
6,1,Calendar Year of Simulation[] ! When Annual Report Variables Requested
250,1,LIVING ZONE,Zone Air Temperature [C] !TimeStep,REPORTSCH
251,1,LIVING ZONE,Zone Air System Sensible Heating Energy [J] !TimeStep,REPORTSCH
336,1,LIVING ZONE,Zone Air System Sensible Cooling Energy [J] !TimeStep,REPORTSCH
385,1,LIVING ZONE,Zone Thermostat Heating Setpoint Temperature [C] !TimeStep,REPORTSCH
386,1,LIVING ZONE,Zone Thermostat Cooling Setpoint Temperature [C] !TimeStep,REPORTSCH
387,1,GARAGE ZONE,Zone Air Temperature [C] !TimeStep,REPORTSCH
388,1,GARAGE ZONE,Zone Air System Sensible Heating Energy [J] !TimeStep,REPORTSCH
425,1,GARAGE ZONE,Zone Air System Sensible Cooling Energy [J] !TimeStep,REPORTSCH
450,1,GARAGE ZONE,Zone Thermostat Heating Setpoint Temperature [C] !TimeStep,REPORTSCH
451,1,GARAGE ZONE,Zone Thermostat Cooling Setpoint Temperature [C] !TimeStep,REPORTSCH
452,1,ATTIC ZONE,Zone Air Temperature [C] !TimeStep,REPORTSCH
453,1,ATTIC ZONE,Zone Air System Sensible Heating Energy [J] !TimeStep,REPORTSCH
490,1,ATTIC ZONE,Zone Air System Sensible Cooling Energy [J] !TimeStep,REPORTSCH
515,1,ATTIC ZONE,Zone Thermostat Heating Setpoint Temperature [C] !TimeStep,REPORTSCH
516,1,ATTIC ZONE,Zone Thermostat Cooling Setpoint Temperature [C] !TimeStep,REPORTSCH
542,1,ACDXCOIL 1,Cooling Coil Total Cooling Energy [J] !TimeStep,REPORTSCH
592,1,HEAT PUMP DX HEATING COIL 1,Heating Coil Heating Energy [J] !TimeStep,REPORTSCH
632,1,SUPP HEATING COIL 1,Heating Coil Heating Energy [J] !TimeStep,REPORTSCH
686,1,TWOSPEED HEAT PUMP 1,Unitary System DX Coil Cycling Ratio [] !TimeStep,REPORTSCH
687,1,TWOSPEED HEAT PUMP 1,Unitary System DX Coil Speed Ratio [] !TimeStep,REPORTSCH
688,1,TWOSPEED HEAT PUMP 1,Unitary System DX Coil Speed Level [] !TimeStep,REPORTSCH
End of Data Dictionary
1,YEARSIMULATION,  41.98, -87.92,  -6.00, 201.00
2,21, 1,21, 0, 1, 0.00,10.00,Sunday
250,22.521969271591086
251,5789608.833500894
336,0.0
385,22.28666666666667
386,26.35
387,0.6200881163546829
388,0.0
425,0.0
450,0.0
451,0.0
452,-1.6315362134111062
453,0.0
490,0.0
515,0.0
516,0.0
542,0.0
592,2607494.8901794693
632,3084931.9349839166
686,0.5477937610991302
687,0.5
688,1.1666666666666667
2,21, 1,21, 0, 1,10.00,20.00,Sunday
250,22.911066551814823
251,5655466.120932642
336,0.0
385,22.953333333333333
386,26.35
387,0.5955880605360977
388,0.0
425,0.0
450,0.0
451,0.0
452,-1.6198357118271938
453,0.0
490,0.0
515,0.0
516,0.0
542,0.0
592,3404115.940119365
632,2221650.119210551
686,0.7131733268684747
687,0.6666666666666667
688,1.6666666666666667
2,21, 1,21, 0, 1,20.00,30.00,Sunday
250,23.146923779411452
251,6929767.51763267
336,0.0
385,23.62
386,26.35
387,0.5660396807724836
388,0.0
425,0.0
450,0.0
451,0.0
452,-1.6083006352745821
453,0.0
490,0.0
515,0.0
516,0.0
542,0.0
592,4846826.286481354
632,2628400.466220966
686,1.0
687,1.0
688,2.0
2,21, 1,21, 0, 1,30.00,40.00,Sunday
250,23.575055057306244
251,8029445.258025859
336,0.0
385,23.62
386,26.35
387,0.5399964557623913
388,0.0
425,0.0
450,0.0
451,0.0
452,-1.6011810740920338
453,0.0
490,0.0
515,0.0
516,0.0
542,0.0
592,4829162.67824964
632,3065321.0589529574
686,1.0
687,1.0
688,2.0
2,21, 1,21, 0, 1,40.00,50.00,Sunday
250,22.517305833107688
251,5880662.744901871
336,0.0
385,22.286666666666637
386,26.34999999999996
387,0.518041625904022
388,0.0
425,0.0
450,0.0
451,0.0
452,-1.5979988278514776
453,0.0
490,0.0
515,0.0
516,0.0
542,0.0
592,2591287.9771490293
632,3193592.8088516803
686,0.5528703038833024
687,0.49999999999999933
688,1.166666666666665
2,21, 1,21, 0, 1,50.00,60.00,Sunday
250,22.912627021902185
251,5748236.694849341
336,0.0
385,22.953333333333354
386,26.350000000000023
387,0.4946592008569951
388,0.0
425,0.0
450,0.0
451,0.0
452,-1.5959949581438986
453,0.0
490,0.0
515,0.0
516,0.0
542,0.0
592,3385614.137891731
632,2325777.203764643
686,0.7206310351669523
687,0.6666666666666672
688,1.6666666666666679
2,21, 1,21, 0, 2, 0.00,10.00,Sunday
250,23.149240731394123
251,6998369.21346415
336,0.0
385,23.62
386,26.35
387,0.4663229748188669
388,0.0
425,0.0
450,0.0
451,0.0
452,-1.5957753778878152
453,0.0
490,0.0
515,0.0
516,0.0
542,0.0
592,4799359.650755097
632,2743049.195364345
686,1.0
687,1.0
688,2.0
2,21, 1,21, 0, 2,10.00,20.00,Sunday
250,23.575322106109795
251,8082385.583112477
336,0.0
385,23.62
386,26.35
387,0.44108253996864344
388,0.0
425,0.0
450,0.0
451,0.0
452,-1.599177891989822
453,0.0
490,0.0
515,0.0
516,0.0
542,0.0
592,4797522.396455282
632,3149310.922198549
686,1.0
687,1.0
688,2.0
2,21, 1,21, 0, 2,20.00,30.00,Sunday
250,22.515479425396965
251,5916082.994151939
336,0.0
385,22.286666666666683
386,26.35000000000002
387,0.4194441948921196
388,0.0
425,0.0
450,0.0
451,0.0
452,-1.6066288930800956
453,0.0
490,0.0
515,0.0
516,0.0
542,0.0
592,2589481.369921319
632,3231382.007308451
686,0.5548084120332395
687,0.5000000000000004
688,1.1666666666666674
2,21, 1,21, 0, 2,30.00,40.00,Sunday
250,22.91293857166544
251,5771587.074821268
336,0.0
385,22.953333333333354
386,26.350000000000023
387,0.39604541088288925
388,0.0
425,0.0
450,0.0
451,0.0
452,-1.6176324402737736
453,0.0
490,0.0
515,0.0
516,0.0
542,0.0
592,3391292.428246476
632,2342036.459203824
686,0.7222714438703264
687,0.6666666666666672
688,1.6666666666666679
2,21, 1,21, 0, 2,40.00,50.00,Sunday
250,23.149958146630798
251,7017978.7841786435
336,0.0
385,23.62
386,26.35
387,0.3672660070578616
388,0.0
425,0.0
450,0.0
451,0.0
452,-1.6335398963300665
453,0.0
490,0.0
515,0.0
516,0.0
542,0.0
592,4799361.371772844
632,2762500.79542758
686,1.0
687,1.0
688,2.0
2,21, 1,21, 0, 2,50.00,60.00,Sunday
250,23.57540645946679
251,8099709.011661969
336,0.0
385,23.62
386,26.35
387,0.34140022269810866
388,0.0
425,0.0
450,0.0
451,0.0
452,-1.6501153530282697
453,0.0
490,0.0
515,0.0
516,0.0
542,0.0
592,4797521.219443143
632,3166456.4943507733
686,1.0
687,1.0
688,2.0
2,21, 1,21, 0, 3, 0.00,10.00,Sunday
250,22.51414259992114
251,5941593.295386884
336,0.0
385,22.28666666666667
386,26.35
387,0.31960600012199303
388,0.0
425,0.0
450,0.0
451,0.0
452,-1.6647376310813944
453,0.0
490,0.0
515,0.0
516,0.0
542,0.0
592,2593969.8602231597
632,3252835.5403839042
686,0.556105076070812
687,0.5
688,1.1666666666666667
2,21, 1,21, 0, 3,10.00,20.00,Sunday
250,22.913562574447763
251,5809992.740969604
336,0.0
385,22.953333333333333
386,26.35
387,0.2967793539469112
388,0.0
425,0.0
450,0.0
451,0.0
452,-1.676638004138168
453,0.0
490,0.0
515,0.0
516,0.0
542,0.0
592,3401319.0249297423
632,2367575.240874139
686,0.7251682793920934
687,0.6666666666666667
688,1.6666666666666667
2,21, 1,21, 0, 3,20.00,30.00,Sunday
250,23.151064208312455
251,7064668.03034151
336,0.0
385,23.62
386,26.35
387,0.2696895668756313
388,0.0
425,0.0
450,0.0
451,0.0
452,-1.684512164899543
453,0.0
490,0.0
515,0.0
516,0.0
542,0.0
592,4799364.477241542
632,2808756.923966387
686,1.0
687,1.0
688,2.0
2,21, 1,21, 0, 3,30.00,40.00,Sunday
250,23.57555124520473
251,8156603.726076646
336,0.0
385,23.62
386,26.35
387,0.24659036015112723
388,0.0
425,0.0
450,0.0
451,0.0
452,-1.6851115096394556
453,0.0
490,0.0
515,0.0
516,0.0
542,0.0
592,4797519.356422948
632,3223072.0434731664
686,1.0
687,1.0
688,2.0
2,21, 1,21, 0, 3,40.00,50.00,Sunday
250,22.511300772479476
251,5995704.927962619
336,0.0
385,22.286666666666637
386,26.34999999999996
387,0.22803992825451053
388,0.0
425,0.0
450,0.0
451,0.0
452,-1.6806896100813764
453,0.0
490,0.0
515,0.0
516,0.0
542,0.0
592,2603421.6563033694
632,3298416.1329828706
686,0.5588355821686725
687,0.49999999999999933
688,1.166666666666665
2,21, 1,21, 0, 3,50.00,60.00,Sunday
250,22.914457719411146
251,5867247.907935709
336,0.0
385,22.953333333333354
386,26.350000000000023
387,0.20900531183026716
388,0.0
425,0.0
450,0.0
451,0.0
452,-1.6732164743888989
453,0.0
490,0.0
515,0.0
516,0.0
542,0.0
592,3416538.4116865667
632,2405449.4922453547
686,0.7295652952361098
687,0.6666666666666672
688,1.6666666666666679
2,21, 1,21, 0, 4, 0.00,10.00,Sunday
250,23.152835067722982
251,7182345.59337189
336,0.0
385,23.62
386,26.35
387,0.18230291282010955
388,0.0
425,0.0
450,0.0
451,0.0
452,-1.663331435164231
453,0.0
490,0.0
515,0.0
516,0.0
542,0.0
592,4794956.675703898
632,2930215.6945054634
686,1.0
687,1.0
688,2.0
2,21, 1,21, 0, 4,10.00,20.00,Sunday
250,23.57581523847658
251,8341497.359342952
336,0.0
385,23.62
386,26.35
387,0.15417468022077208
388,0.0
425,0.0
450,0.0
451,0.0
452,-1.656272736901459
453,0.0
490,0.0
515,0.0
516,0.0
542,0.0
592,4787671.003351964
632,3417363.8615687387
686,1.0
687,1.0
688,2.0
2,21, 1,21, 0, 4,20.00,30.00,Sunday
250,22.49805610542314
251,6246639.045828105
336,0.0
385,22.286666666666683
386,26.35000000000002
387,0.1269517925921991
388,0.0
425,0.0
450,0.0
451,0.0
452,-1.6539620228726233
453,0.0
490,0.0
515,0.0
516,0.0
542,0.0
592,2639769.9933653977
632,3517307.0984121477
686,0.5716789516961724
687,0.5000000000000004
688,1.1666666666666674
2,21, 1,21, 0, 4,30.00,40.00,Sunday
250,22.920166940817023
251,6208935.265444777
336,0.0
385,22.953333333333354
386,26.350000000000023
387,0.09633607892158942
388,0.0
425,0.0
450,0.0
451,0.0
452,-1.6555241867169794
453,0.0
490,0.0
515,0.0
516,0.0
542,0.0
592,3497735.9376368835
632,2639080.7993142176
686,0.7574065954586664
687,0.6666666666666672
688,1.6666666666666679
2,21, 1,21, 0, 4,40.00,50.00,Sunday
250,23.159691862342413
251,7493382.171121916
336,0.0
385,23.62
386,26.35
387,0.05736108410181143
388,0.0
425,0.0
450,0.0
451,0.0
452,-1.6624599223151626
453,0.0
490,0.0
515,0.0
516,0.0
542,0.0
592,4775782.909646835
632,3254077.3184021483
686,1.0
687,1.0
688,2.0
2,21, 1,21, 0, 4,50.00,60.00,Sunday
250,23.57662128634047
251,8661554.305056687
336,0.0
385,23.62
386,26.35
387,0.021251767578057804
388,0.0
425,0.0
450,0.0
451,0.0
452,-1.6726232216967571
453,0.0
490,0.0
515,0.0
516,0.0
542,0.0
592,4766119.17823649
632,3757187.7823126987
686,1.0
687,1.0
688,2.0
2,21, 1,21, 0, 5, 0.00,10.00,Sunday
250,22.487133265394167
251,6454540.429377623
336,0.0
385,22.28666666666667
386,26.35
387,-0.0016726215322427941
388,0.0
425,0.0
450,0.0
451,0.0
452,-1.6801652955805921
453,0.0
490,0.0
515,0.0
516,0.0
542,0.0
592,2665078.9896925846
632,3703447.4995903466
686,0.5825717404785109
687,0.5
688,1.1666666666666667
2,21, 1,21, 0, 5,10.00,20.00,Sunday
250,22.921622045111263
251,6316439.412940095
336,0.0
385,22.953333333333333
386,26.35
387,-0.019397599689619162
388,0.0
425,0.0
450,0.0
451,0.0
452,-1.6825266302660218
453,0.0
490,0.0
515,0.0
516,0.0
542,0.0
592,3511079.8929413916
632,2726097.20797026
686,0.7661730941748432
687,0.6666666666666667
688,1.6666666666666667
2,21, 1,21, 0, 5,20.00,30.00,Sunday
250,23.1614790006599
251,7473381.766984745
336,0.0
385,23.62
386,26.35
387,-0.03520397377560104
388,0.0
425,0.0
450,0.0
451,0.0
452,-1.6762878489468496
453,0.0
490,0.0
515,0.0
516,0.0
542,0.0
592,4751098.496228268
632,3256600.5402743025
686,1.0
687,1.0
688,2.0
2,21, 1,21, 0, 5,30.00,40.00,Sunday
250,23.57676101694094
251,8531306.86488188
336,0.0
385,23.62
386,26.35
387,-0.045148501143472436
388,0.0
425,0.0
450,0.0
451,0.0
452,-1.661053289938145
453,0.0
490,0.0
515,0.0
516,0.0
542,0.0
592,4741033.919501936
632,3651550.138992116
686,1.0
687,1.0
688,2.0
2,21, 1,21, 0, 5,40.00,50.00,Sunday
250,22.49414560674692
251,6322187.752713492
336,0.0
385,22.286666666666637
386,26.34999999999996
387,-0.04986803701089868
388,0.0
425,0.0
450,0.0
451,0.0
452,-1.6391338827237156
453,0.0
490,0.0
515,0.0
516,0.0
542,0.0
592,2628298.6780395657
632,3605488.1205655034
686,0.5762400448076666
687,0.49999999999999933
688,1.166666666666665
2,21, 1,21, 0, 5,50.00,60.00,Sunday
250,22.919396830031026
251,6174092.068187955
336,0.0
385,22.953333333333354
386,26.350000000000023
387,-0.05259577419185689
388,0.0
425,0.0
450,0.0
451,0.0
452,-1.610550523871132
453,0.0
490,0.0
515,0.0
516,0.0
542,0.0
592,3451147.180965441
632,2654369.980396931
686,0.7546574946775342
687,0.6666666666666672
688,1.6666666666666679
2,21, 1,21, 0, 6, 0.00,10.00,Sunday
250,23.159565486827432
251,7432189.957064742
336,0.0
385,23.62
386,26.35
387,-0.06211308019446179
388,0.0
425,0.0
450,0.0
451,0.0
452,-1.5784565757855258
453,0.0
490,0.0
515,0.0
516,0.0
542,0.0
592,4724210.72188591
632,3245447.7334097596
686,1.0
687,1.0
688,2.0
2,21, 1,21, 0, 6,10.00,20.00,Sunday
250,23.576599544764438
251,8571186.722021919
336,0.0
385,23.62
386,26.35
387,-0.07886904051471322
388,0.0
425,0.0
450,0.0
451,0.0
452,-1.5610417097023033
453,0.0
490,0.0
515,0.0
516,0.0
542,0.0
592,4717724.040590753
632,3715258.6159607735
686,1.0
687,1.0
688,2.0
2,21, 1,21, 0, 6,20.00,30.00,Sunday
250,22.48756130087442
251,6446768.362232539
336,0.0
385,22.286666666666683
386,26.35000000000002
387,-0.09946877269374096
388,0.0
425,0.0
450,0.0
451,0.0
452,-1.5604968514509991
453,0.0
490,0.0
515,0.0
516,0.0
542,0.0
592,2639908.7855178025
632,3720589.8114246964
686,0.5829544927747757
687,0.5000000000000004
688,1.1666666666666674
2,21, 1,21, 0, 6,30.00,40.00,Sunday
250,22.923313825110498
251,6399163.355014136
336,0.0
385,22.953333333333354
386,26.350000000000023
387,-0.12441618811808994
388,0.0
425,0.0
450,0.0
451,0.0
452,-1.570120344042702
453,0.0
490,0.0
515,0.0
516,0.0
542,0.0
592,3502759.106723545
632,2809402.5859463196
686,0.773643897336834
687,0.6666666666666672
688,1.6666666666666679
2,21, 1,21, 0, 6,40.00,50.00,Sunday
250,23.163854542396194
251,7638520.914219045
336,0.0
385,23.62
386,26.35
387,-0.1580662158359248
388,0.0
425,0.0
450,0.0
451,0.0
452,-1.5920022378730962
453,0.0
490,0.0
515,0.0
516,0.0
542,0.0
592,4708147.230810358
632,3463480.0017393106
686,1.0
687,1.0
688,2.0
2,21, 1,21, 0, 6,50.00,60.00,Sunday
250,23.577089378979103
251,8782177.7737232
336,0.0
385,23.62
386,26.35
387,-0.1904256241462959
388,0.0
425,0.0
450,0.0
451,0.0
452,-1.6203598968299247
453,0.0
490,0.0
515,0.0
516,0.0
542,0.0
592,4699297.904394134
632,3943563.8724694583
686,1.0
687,1.0
688,2.0
2,21, 1,21, 0, 7, 0.00,10.00,Sunday
250,22.478389071764187
251,6620610.930466284
336,0.0
385,22.28666666666667
386,26.35
387,-0.2240678053217562
388,0.0
425,0.0
450,0.0
451,0.0
452,-1.6655322248105835
453,0.0
490,0.0
515,0.0
516,0.0
542,0.0
592,2674313.084368619
632,3863091.8373992927
686,0.5917895067593865
687,0.5
688,1.1666666666666667
2,21, 1,21, 0, 7,10.00,20.00,Sunday
250,22.925431237215157
251,6546443.0803561825
336,0.0
385,22.953333333333333
386,26.35
387,-0.2672136957113898
388,0.0
425,0.0
450,0.0
451,0.0
452,-1.7459572103714533
453,0.0
490,0.0
515,0.0
516,0.0
542,0.0
592,3566620.6016298677
632,2882568.3331781384
686,0.7852768949497669
687,0.6666666666666667
688,1.6666666666666667
2,21, 1,21, 0, 7,20.00,30.00,Sunday
250,23.166069590298402
251,7728572.5906396285
336,0.0
385,23.62
386,26.35
387,-0.3287593557549227
388,0.0
425,0.0
450,0.0
451,0.0
452,-1.8825480482705672
453,0.0
490,0.0
515,0.0
516,0.0
542,0.0
592,4767725.610311608
632,3491006.290943687
686,1.0
687,1.0
688,2.0
2,21, 1,21, 0, 7,30.00,40.00,Sunday
250,23.57729798196481
251,8839463.413634222
336,0.0
385,23.62
386,26.35
387,-0.3914988006867892
388,0.0
425,0.0
450,0.0
451,0.0
452,-2.0443633836672284
453,0.0
490,0.0
515,0.0
516,0.0
542,0.0
592,4781887.474243202
632,3917662.6004273333
686,1.0
687,1.0
688,2.0
2,21, 1,21, 0, 7,40.00,50.00,Sunday
250,22.475214476096326
251,6679555.409915611
336,0.0
385,22.286666666666637
386,26.34999999999996
387,-0.453110263270369
388,0.0
425,0.0
450,0.0
451,0.0
452,-2.2244562457307637
453,0.0
490,0.0
515,0.0
516,0.0
542,0.0
592,2725476.195413626
632,3872144.4933351045
686,0.593395735719989
687,0.49999999999999933
688,1.166666666666665
2,21, 1,21, 0, 7,50.00,60.00,Sunday
250,22.926096318216352
251,6608969.263690274
336,0.0
385,22.953333333333354
386,26.350000000000023
387,-0.5256257032467011
388,0.0
425,0.0
450,0.0
451,0.0
452,-2.4437950469831518
453,0.0
490,0.0
515,0.0
516,0.0
542,0.0
592,3637879.18613664
632,2870571.8559748004
686,0.7890290598060087
687,0.6666666666666672
688,1.6666666666666679
2,21, 1,21, 0, 8, 0.00,10.00,Sunday
250,23.166890340586512
251,7779691.723736191
336,0.0
385,23.62
386,26.35
387,-0.6118043276569397
388,0.0
425,0.0
450,0.0
451,0.0
452,-2.707781968555693
453,0.0
490,0.0
515,0.0
516,0.0
542,0.0
592,4837008.687934457
632,3471777.9070655825
686,1.0
687,1.0
688,2.0
2,21, 1,21, 0, 8,10.00,20.00,Sunday
250,23.57739188941332
251,8827268.543785404
336,0.0
385,23.62
386,26.35
387,-0.6740790018621581
388,0.0
425,0.0
450,0.0
451,0.0
452,-2.8542861923650085
453,0.0
490,0.0
515,0.0
516,0.0
542,0.0
592,4840699.4167307485
632,3846411.0144113777
686,1.0
687,1.0
688,2.0
2,21, 1,21, 0, 8,20.00,30.00,Sunday
250,22.477736469917787
251,6631331.548539184
336,0.0
385,22.286666666666683
386,26.35000000000002
387,-0.7121494643151366
388,0.0
425,0.0
450,0.0
451,0.0
452,-2.852499661497102
453,0.0
490,0.0
515,0.0
516,0.0
542,0.0
592,2742503.3987640925
632,3806160.1514206203
686,0.5901032634251018
687,0.5000000000000004
688,1.1666666666666674
2,21, 1,21, 0, 8,30.00,40.00,Sunday
250,22.923832069355196
251,6484820.929830071
336,0.0
385,22.953333333333354
386,26.350000000000023
387,-0.7411471941796265
388,0.0
425,0.0
450,0.0
451,0.0
452,-2.754830891670607
453,0.0
490,0.0
515,0.0
516,0.0
542,0.0
592,3631547.8859859905
632,2763369.1767033744
686,0.7781293932001343
687,0.6666666666666672
688,1.6666666666666679
2,21, 1,21, 0, 8,40.00,50.00,Sunday
250,23.1636933718097
251,7574393.913290464
336,0.0
385,23.62
386,26.35
387,-0.7602288490538843
388,0.0
425,0.0
450,0.0
451,0.0
452,-2.5206076041592884
453,0.0
490,0.0
515,0.0
516,0.0
542,0.0
592,4879109.337186672
632,3226266.016252991
686,1.0
687,1.0
688,2.0
2,21, 1,21, 0, 8,50.00,60.00,Sunday
250,23.57695253435083
251,8575356.482114395
336,0.0
385,23.62
386,26.35
387,-0.7582179796499282
388,0.0
425,0.0
450,0.0
451,0.0
452,-2.2075065954388773
453,0.0
490,0.0
515,0.0
516,0.0
542,0.0
592,4882738.462768825
632,3553253.2809731634
686,1.0
687,1.0
688,2.0
2,21, 1,21, 0, 9, 0.00,10.00,Sunday
250,22.493634276047167
251,6328867.155862402
336,0.0
385,22.28666666666667
386,26.35
387,-0.7322757552358182
388,0.0
425,0.0
450,0.0
451,0.0
452,-1.8291376612992676
453,0.0
490,0.0
515,0.0
516,0.0
542,0.0
592,2714269.9494457077
632,3526718.863667902
686,0.5742606583148284
687,0.5
688,1.1666666666666667
2,21, 1,21, 0, 9,10.00,20.00,Sunday
250,22.918407736092306
251,6141097.428707341
336,0.0
385,22.953333333333333
386,26.35
387,-0.6871705317194612
388,0.0
425,0.0
450,0.0
451,0.0
452,-1.3489224791514518
453,0.0
490,0.0
515,0.0
516,0.0
542,0.0
592,3576698.928386146
632,2499882.749968889
686,0.7507704162403838
687,0.6666666666666667
688,1.6666666666666667
2,21, 1,21, 0, 9,20.00,30.00,Sunday
250,22.95048163377095
251,7480891.098930978
336,0.0
385,22.953333333333326
386,26.349999999999987
387,-0.6077004960599368
388,0.0
425,0.0
450,0.0
451,0.0
452,-0.6447405347178813
453,0.0
490,0.0
515,0.0
516,0.0
542,0.0
592,3302262.2008282226
632,4001787.1302959705
686,0.8002703778654471
687,0.3333333333333332
688,1.3333333333333328
2,21, 1,21, 0, 9,30.00,40.00,Sunday
250,22.951653652943328
251,7446321.828978814
336,0.0
385,22.95333333333334
386,26.35000000000001
387,-0.5212179236677926
388,0.0
425,0.0
450,0.0
451,0.0
452,0.0020440995137078755
453,0.0
490,0.0
515,0.0
516,0.0
542,0.0
592,3322721.2612717273
632,3942294.86400541
686,0.7990175074248851
687,0.342390667119825
688,1.666666666666667
2,21, 1,21, 0, 9,40.00,50.00,Sunday
250,22.951312529062577
251,7427086.786308283
336,0.0
385,22.953333333333354
386,26.350000000000023
387,-0.44074160452715394
388,0.0
425,0.0
450,0.0
451,0.0
452,0.6156448474296918
453,0.0
490,0.0
515,0.0
516,0.0
542,0.0
592,3316395.2162499554
632,3931472.465888073
686,0.7970456904291154
687,0.33395551076552255
688,1.6666666666666679
2,21, 1,21, 0, 9,50.00,60.00,Sunday
250,23.554972884893978
251,8117377.367471768
336,0.0
385,23.62
386,26.35
387,-0.36931119659795997
388,0.0
425,0.0
450,0.0
451,0.0
452,1.1208516122748693
453,0.0
490,0.0
515,0.0
516,0.0
542,0.0
592,4989117.816292692
632,3044236.9575274517
686,1.0
687,1.0
688,2.0
2,21, 1,21, 0,10, 0.00,10.00,Sunday
250,22.503258167374547
251,6128162.633120447
336,0.0
385,22.28666666666667
386,26.35
387,-0.29730780856418115
388,0.0
425,0.0
450,0.0
451,0.0
452,1.5824054561028287
453,0.0
490,0.0
515,0.0
516,0.0
542,0.0
592,2740767.027481972
632,3296699.849632933
686,0.5630022389392888
687,0.5
688,1.1666666666666667
2,21, 1,21, 0,10,10.00,20.00,Sunday
250,22.91361233381295
251,5860477.834825735
336,0.0
385,22.953333333333333
386,26.35
387,-0.211074157443805
388,0.0
425,0.0
450,0.0
451,0.0
452,2.0893112192521155
453,0.0
490,0.0
515,0.0
516,0.0
542,0.0
592,3595041.2831692067
632,2222888.9711232167
686,0.7282242698049449
687,0.6666666666666667
688,1.6666666666666667
2,21, 1,21, 0,10,20.00,30.00,Sunday
250,22.94508534083476
251,7188580.431002592
336,0.0
385,22.953333333333326
386,26.349999999999987
387,-0.07625502278035333
388,0.0
425,0.0
450,0.0
451,0.0
452,2.7767747973672083
453,0.0
490,0.0
515,0.0
516,0.0
542,0.0
592,3170578.746758078
632,3874559.198298204
686,0.7358030408013584
687,0.3333333333333332
688,1.3333333333333328
2,21, 1,21, 0,10,30.00,40.00,Sunday
250,22.945302063915847
251,7103033.553920772
336,0.0
385,22.95333333333334
386,26.35000000000001
387,0.05496789783573232
388,0.0
425,0.0
450,0.0
451,0.0
452,3.405582133534481
453,0.0
490,0.0
515,0.0
516,0.0
542,0.0
592,3163758.32245103
632,3796687.1023429367
686,0.7283303510668093
687,0.3333333333333332
688,1.3333333333333335
2,21, 1,21, 0,10,40.00,50.00,Sunday
250,22.943286303375533
251,6997319.780195496
336,0.0
385,22.953333333333354
386,26.350000000000023
387,0.194322272380085
388,0.0
425,0.0
450,0.0
451,0.0
452,4.080635083667711
453,0.0
490,0.0
515,0.0
516,0.0
542,0.0
592,3109378.920534222
632,3755674.642956279
686,0.7081216061656836
687,0.3333333333333336
688,1.3333333333333344
2,21, 1,21, 0,10,50.00,60.00,Sunday
250,22.941375162392287
251,6888728.344677593
336,0.0
385,22.953333333333354
386,26.350000000000023
387,0.3515780444226325
388,0.0
425,0.0
450,0.0
451,0.0
452,4.836483949979834
453,0.0
490,0.0
515,0.0
516,0.0
542,0.0
592,3052440.7840756644
632,3715072.5894882446
686,0.6874867388696752
687,0.3333333333333336
688,1.3333333333333344
2,21, 1,21, 0,11, 0.00,10.00,Sunday
250,22.939537777383855
251,6782102.538636668
336,0.0
385,22.953333333333333
386,26.35
387,0.5220066304295123
388,0.0
425,0.0
450,0.0
451,0.0
452,5.656578342786599
453,0.0
490,0.0
515,0.0
516,0.0
542,0.0
592,2990667.095095684
632,3680763.5406522634
686,0.6680892354103962
687,0.3333333333333333
688,1.3333333333333335
2,21, 1,21, 0,11,10.00,20.00,Sunday
250,22.937672662198935
251,6672708.329899137
336,0.0
385,22.953333333333333
386,26.35
387,0.7033597748153668
388,0.0
425,0.0
450,0.0
451,0.0
452,6.5219300261316775
453,0.0
490,0.0
515,0.0
516,0.0
542,0.0
592,2927597.0901975627
632,3645116.570398327
686,0.6484850685845694
687,0.33333333333333337
688,1.3333333333333333
2,21, 1,21, 0,11,20.00,30.00,Sunday
250,22.708791513329434
251,5826371.58737747
336,0.0
385,22.62
386,26.35
387,0.8532299145255489
388,0.0
425,0.0
450,0.0
451,0.0
452,7.293755436720579
453,0.0
490,0.0
515,0.0
516,0.0
542,0.0
592,3934633.204462977
632,1740967.732597271
686,0.75
687,0.75
688,1.5
2,21, 1,21, 0,11,30.00,40.00,Sunday
250,22.659162092573034
251,6333587.542481967
336,0.0
385,22.62
386,26.35
387,1.0865076265720073
388,0.0
425,0.0
450,0.0
451,0.0
452,8.316600120734527
453,0.0
490,0.0
515,0.0
516,0.0
542,0.0
592,3205114.0816678097
632,3052958.9260115377
686,0.6509878788157698
687,0.5
688,1.25
2,21, 1,21, 0,11,40.00,50.00,Sunday
250,22.66220924959849
251,6164806.6330493055
336,0.0
385,22.62
386,26.35
387,1.3156868809524327
388,0.0
425,0.0
450,0.0
451,0.0
452,9.187657168003025
453,0.0
490,0.0
515,0.0
516,0.0
542,0.0
592,3216127.343709571
632,2877529.426607037
686,0.6509052493029543
687,0.5
688,1.25
2,21, 1,21, 0,11,50.00,60.00,Sunday
250,22.91116876567507
251,4846846.051994597
336,0.0
385,22.953333333333354
386,26.350000000000023
387,1.4935469388486364
388,0.0
425,0.0
450,0.0
451,0.0
452,9.835900330474082
453,0.0
490,0.0
515,0.0
516,0.0
542,0.0
592,3533983.0612717257
632,1308973.8000902964
686,0.6666666666666672
687,0.6666666666666672
688,1.3333333333333344
2,21, 1,21, 0,12, 0.00,10.00,Sunday
250,22.541687737498656
251,4945550.616558881
336,0.0
385,22.420000000000005
386,26.35
387,1.6703828746352822
388,0.0
425,0.0
450,0.0
451,0.0
452,10.400533207667344
453,0.0
490,0.0
515,0.0
516,0.0
542,0.0
592,2468033.5705827447
632,2534835.0681198128
686,0.4898603710860299
687,0.4
688,1.0
2,21, 1,21, 0,12,10.00,20.00,Sunday
250,22.88535411791406
251,6667034.3163054045
336,0.0
385,22.953333333333333
386,26.35
387,1.8575689874786956
388,0.0
425,0.0
450,0.0
451,0.0
452,10.891931114569163
453,0.0
490,0.0
515,0.0
516,0.0
542,0.0
592,3926125.670143092
632,2780523.688687033
686,0.8945204845938504
687,0.33333333333333337
688,1.3333333333333333
2,21, 1,21, 0,12,20.00,30.00,Sunday
250,22.971374613393927
251,4849275.492250859
336,0.0
385,22.953333333333326
386,26.349999999999987
387,2.1113421775173524
388,0.0
425,0.0
450,0.0
451,0.0
452,11.38843367667405
453,0.0
490,0.0
515,0.0
516,0.0
542,0.0
592,3548425.349909538
632,1257848.761741936
686,0.6666666666666664
687,0.6666666666666664
688,1.3333333333333328
2,21, 1,21, 0,12,30.00,40.00,Sunday
250,22.564549201178934
251,4766325.510995407
336,0.0
385,22.419999999999995
386,26.34999999999999
387,2.2560364566230646
388,0.0
425,0.0
450,0.0
451,0.0
452,11.599592522162295
453,0.0
490,0.0
515,0.0
516,0.0
542,0.0
592,2422316.8660362354
632,2395810.0361039955
686,0.47525785298705175
687,0.3999999999999997
688,0.9999999999999993
2,21, 1,21, 0,12,40.00,50.00,Sunday
250,22.884455200715017
251,6507810.8074429855
336,0.0
385,22.953333333333354
386,26.350000000000023
387,2.3923239366103934
388,0.0
425,0.0
450,0.0
451,0.0
452,11.698115000820081
453,0.0
490,0.0
515,0.0
516,0.0
542,0.0
592,3824366.8388204956
632,2730711.9672693782
686,0.8639259751792414
687,0.3333333333333336
688,1.3333333333333344
2,21, 1,21, 0,12,50.00,60.00,Sunday
250,22.979291687083833
251,4771508.9465040825
336,0.0
385,22.953333333333354
386,26.350000000000023
387,2.563463596406974
388,0.0
425,0.0
450,0.0
451,0.0
452,11.694744916176344
453,0.0
490,0.0
515,0.0
516,0.0
542,0.0
592,3563187.1288710106
632,1165430.8539759275
686,0.6666666666666672
687,0.6666666666666672
688,1.3333333333333344
2,21, 1,21, 0,13, 0.00,10.00,Sunday
250,22.574818196112737
251,4665405.937714767
336,0.0
385,22.420000000000005
386,26.35
387,2.6543391583500524
388,0.0
425,0.0
450,0.0
451,0.0
452,11.602658550404335
453,0.0
490,0.0
515,0.0
516,0.0
542,0.0
592,2396367.680167055
632,2319097.5371024557
686,0.46720475166780806
687,0.4
688,1.0
2,21, 1,21, 0,13,10.00,20.00,Sunday
250,22.883238386250234
251,6332537.046596264
336,0.0
385,22.953333333333333
386,26.35
387,2.7389488920383904
388,0.0
425,0.0
450,0.0
451,0.0
452,11.510210615368322
453,0.0
490,0.0
515,0.0
516,0.0
542,0.0
592,3708809.7634262573
632,2680128.688420978
686,0.8339914171100333
687,0.33333333333333337
688,1.3333333333333333
2,21, 1,21, 0,13,20.00,30.00,Sunday
250,22.997535209453275
251,4617253.143076193
336,0.0
385,22.953333333333326
386,26.349999999999987
387,2.847839531021949
388,0.0
425,0.0
450,0.0
451,0.0
452,11.422243193646809
453,0.0
490,0.0
515,0.0
516,0.0
542,0.0
592,3555676.4393179244
632,1018832.8270127451
686,0.6666666666666664
687,0.6666666666666664
688,1.3333333333333328
2,21, 1,21, 0,13,30.00,40.00,Sunday
250,22.59335587206109
251,4501866.614864646
336,0.0
385,22.419999999999995
386,26.34999999999999
387,2.91348609872369
388,0.0
425,0.0
450,0.0
451,0.0
452,11.39463476903812
453,0.0
490,0.0
515,0.0
516,0.0
542,0.0
592,2344892.432624033
632,2203369.4714778466
686,0.4551028774158107
687,0.3999999999999997
688,0.9999999999999993
2,21, 1,21, 0,13,40.00,50.00,Sunday
250,22.88141233933911
251,6117629.8024347015
336,0.0
385,22.953333333333354
386,26.350000000000023
387,2.9811656205819475
388,0.0
425,0.0
450,0.0
451,0.0
452,11.377978644148577
453,0.0
490,0.0
515,0.0
516,0.0
542,0.0
592,3557383.3834983595
632,2628160.3922671257
686,0.7966948891479748
687,0.3333333333333336
688,1.3333333333333344
2,21, 1,21, 0,13,50.00,60.00,Sunday
250,23.01431926623459
251,4475766.166157003
336,0.0
385,22.953333333333354
386,26.350000000000023
387,3.0741041861435523
388,0.0
425,0.0
450,0.0
451,0.0
452,11.36299906324885
453,0.0
490,0.0
515,0.0
516,0.0
542,0.0
592,3548158.9173083836
632,885140.8778183104
686,0.6666666666666672
687,0.6666666666666672
688,1.3333333333333344
2,21, 1,21, 0,14, 0.00,10.00,Sunday
250,22.608046434207253
251,4376093.704920106
336,0.0
385,22.420000000000005
386,26.35
387,3.135896952724622
388,0.0
425,0.0
450,0.0
451,0.0
452,11.322250929427994
453,0.0
490,0.0
515,0.0
516,0.0
542,0.0
592,2310263.3202959294
632,2109232.241530786
686,0.44560250377546856
687,0.4
688,1.0
2,21, 1,21, 0,14,10.00,20.00,Sunday
250,22.880297818504555
251,5986850.689283612
336,0.0
385,22.953333333333333
386,26.35
387,3.199727989668186
388,0.0
425,0.0
450,0.0
451,0.0
452,11.21776965155952
453,0.0
490,0.0
515,0.0
516,0.0
542,0.0
592,3472184.213020697
632,2590771.9582497394
686,0.770913930259264
687,0.33333333333333337
688,1.3333333333333333
2,21, 1,21, 0,14,20.00,30.00,Sunday
250,23.022338149201666
251,4408473.298748146
336,0.0
385,22.953333333333326
386,26.349999999999987
387,3.2838885628569288
388,0.0
425,0.0
450,0.0
451,0.0
452,11.016381143556234
453,0.0
490,0.0
515,0.0
516,0.0
542,0.0
592,3571793.0303586964
632,794371.2404832083
686,0.6666666666666664
687,0.6666666666666664
688,1.3333333333333328
2,21, 1,21, 0,14,30.00,40.00,Sunday
250,22.615122155823556
251,4317154.020138867
336,0.0
385,22.419999999999995
386,26.34999999999999
387,3.3263418399312723
388,0.0
425,0.0
450,0.0
451,0.0
452,10.773313513066737