Program Version,EnergyPlus, Version 24.1.0-9d7789a3ac, YMD=2025.04.05 15:39
1,5,Environment Title[],Latitude[deg],Longitude[deg],Time Zone[],Elevation[m]
2,8,Day of Simulation[],Month[],Day of Month[],DST Indicator[1=yes 0=no],Hour[],StartMinute[],EndMinute[],DayType
3,5,Cumulative Day of Simulation[],Month[],Day of Month[],DST Indicator[1=yes 0=no],DayType  ! When Daily Meters Requested
4,2,Cumulative Days of Simulation[],Month[]  ! When Monthly Meters Requested
5,1,Cumulative Days of Simulation[] ! When Run Period Meters Requested
6,1,Calendar Year of Simulation[] ! When Annual Meters Requested
11,9,Electricity:Facility [J] !Monthly [Value,Min,Day,Hour,Minute,Max,Day,Hour,Minute]
23,9,Electricity:Building [J] !Monthly [Value,Min,Day,Hour,Minute,Max,Day,Hour,Minute]
59,9,InteriorLights:Electricity [J] !Monthly [Value,Min,Day,Hour,Minute,Max,Day,Hour,Minute]
521,9,Electricity:HVAC [J] !Monthly [Value,Min,Day,Hour,Minute,Max,Day,Hour,Minute]
637,9,NaturalGas:Facility [J] !Monthly [Value,Min,Day,Hour,Minute,Max,Day,Hour,Minute]
649,9,NaturalGas:HVAC [J] !Monthly [Value,Min,Day,Hour,Minute,Max,Day,Hour,Minute]
13,11,Electricity:Facility [J] !RunPeriod [Value,Min,Month,Day,Hour,Minute,Max,Month,Day,Hour,Minute]
25,11,Electricity:Building [J] !RunPeriod [Value,Min,Month,Day,Hour,Minute,Max,Month,Day,Hour,Minute]
61,11,InteriorLights:Electricity [J] !RunPeriod [Value,Min,Month,Day,Hour,Minute,Max,Month,Day,Hour,Minute]
523,11,Electricity:HVAC [J] !RunPeriod [Value,Min,Month,Day,Hour,Minute,Max,Month,Day,Hour,Minute]
639,11,NaturalGas:Facility [J] !RunPeriod [Value,Min,Month,Day,Hour,Minute,Max,Month,Day,Hour,Minute]
651,11,NaturalGas:HVAC [J] !RunPeriod [Value,Min,Month,Day,Hour,Minute,Max,Month,Day,Hour,Minute]
End of Data Dictionary
1,RUN PERIOD 1,  41.98, -87.92,  -6.00, 201.00
4,31, 1
11,7396266133.719541,224930.55612545376,16,23,30,3269868.746589552,14,13,10
23,1902598793.1121688,103117.74987263665,11,20,40,1060415.7291078244,31,14,10
59,1003692601.7679889,31035.640128880787, 1, 1,10,620712.8025776157, 1, 8,10
521,5493667340.607365,0.0,11,13,30,2284778.27173659,27,21,50
637,12490317278.347906,0.0, 1, 8,40,17714733.347567838,31, 6,60
649,12490317278.347906,0.0, 1, 8,40,17714733.347567838,31, 6,60
4,59, 2
11,5998156347.404797,130335.99116738392,14,19,30,-99999999999999.0,14,13,10
23,1677161263.1238925,99999999999999.0,11,20,40,1060937.9481102787, 4, 9,60
59,877439617.7237189,99999999999999.0, 1, 1,10,-99999999999999.0, 1, 8,10
521,4320995084.280925,99999999999999.0,11,13,30,-99999999999999.0,27,21,50
637,10334620910.871813,99999999999999.0, 1, 8,40,18040083.440247655, 3, 8,10
649,10334620910.871813,99999999999999.0, 1, 8,40,18040083.440247655, 3, 8,10
4,90, 3
11,5743525552.52969,92044.29126746672,31,16,60,-99999999999999.0,14,13,10
23,1769012524.3143415,92044.29126746672,31,16,60,1069181.8505166871,18, 9,60
59,928462210.0955884,99999999999999.0, 1, 1,10,-99999999999999.0, 1, 8,10
521,3974513028.215339,99999999999999.0,11,13,30,-99999999999999.0,27,21,50
637,7623463676.120285,99999999999999.0, 1, 8,40,-99999999999999.0, 3, 8,10
649,7623463676.120285,99999999999999.0, 1, 8,40,-99999999999999.0, 3, 8,10
4,120, 4
11,3649903674.628622,31035.640128880787, 5, 2,40,-99999999999999.0,14,13,10
23,1716531216.868041,31035.640128880787, 5, 1,60,-99999999999999.0,18, 9,60
59,961608273.7532284,99999999999999.0, 1, 1,10,-99999999999999.0, 1, 8,10
521,1933372457.7605793,99999999999999.0,11,13,30,-99999999999999.0,27,21,50
637,2627548562.5754886,99999999999999.0, 1, 8,40,-99999999999999.0, 3, 8,10
649,2627548562.5754886,99999999999999.0, 1, 8,40,-99999999999999.0, 3, 8,10
4,151, 5
11,2904826875.997965,99999999999999.0, 5, 2,40,-99999999999999.0,14,13,10
23,1714466126.3264008,99999999999999.0, 5, 1,60,-99999999999999.0,18, 9,60
59,1003692601.7679889,99999999999999.0, 1, 1,10,-99999999999999.0, 1, 8,10
521,1190360749.6715767,99999999999999.0,11,13,30,-99999999999999.0,27,21,50
637,538009594.5052406,99999999999999.0, 1, 8,40,-99999999999999.0, 3, 8,10
649,538009594.5052406,99999999999999.0, 1, 8,40,-99999999999999.0, 3, 8,10
4,181, 6
11,2986265303.871288,99999999999999.0, 5, 2,40,-99999999999999.0,14,13,10
23,1460357088.9073608,99999999999999.0, 5, 1,60,-99999999999999.0,18, 9,60
59,886377882.0808272,99999999999999.0, 1, 1,10,-99999999999999.0, 1, 8,10
521,1525908214.96394,99999999999999.0,11,13,30,-99999999999999.0,27,21,50
637,16727490.711279785,99999999999999.0, 1, 8,40,-99999999999999.0, 3, 8,10
649,16727490.711279785,99999999999999.0, 1, 8,40,-99999999999999.0, 3, 8,10
4,212, 7
11,3879050005.063796,99999999999999.0, 5, 2,40,-99999999999999.0,14,13,10
23,1579420158.0072274,99999999999999.0, 5, 1,60,-99999999999999.0,18, 9,60
59,1003692601.7679889,99999999999999.0, 1, 1,10,-99999999999999.0, 1, 8,10
521,2299629847.0565815,99999999999999.0,11,13,30,-99999999999999.0,27,21,50
637,0.0,99999999999999.0, 1, 8,40,-99999999999999.0, 3, 8,10
649,0.0,99999999999999.0, 1, 8,40,-99999999999999.0, 3, 8,10
4,243, 8
11,3407731900.453168,99999999999999.0, 5, 2,40,-99999999999999.0,14,13,10
23,1554785479.4497874,99999999999999.0, 5, 1,60,-99999999999999.0,18, 9,60
59,966077405.9318001,99999999999999.0, 1, 1,10,-99999999999999.0, 1, 8,10
521,1852946421.0033908,99999999999999.0,11,13,30,-99999999999999.0,27,21,50
637,1657894.6650995286,99999999999999.0, 1, 8,40,-99999999999999.0, 3, 8,10
649,1657894.6650995286,99999999999999.0, 1, 8,40,-99999999999999.0, 3, 8,10
4,273, 9
11,2680686253.902197,99999999999999.0, 5, 2,40,-99999999999999.0,14,13,10
23,1537284101.1347601,99999999999999.0, 5, 1,60,-99999999999999.0,18, 9,60
59,923993077.9170268,99999999999999.0, 1, 1,10,-99999999999999.0, 1, 8,10
521,1143402152.7674444,99999999999999.0,11,13,30,-99999999999999.0,27,21,50
637,19269187.354167096,99999999999999.0, 1, 8,40,-99999999999999.0, 3, 8,10
649,19269187.354167096,99999999999999.0, 1, 8,40,-99999999999999.0, 3, 8,10
4,304,10
11,2998686563.559114,99999999999999.0, 5, 2,40,-99999999999999.0,14,13,10
23,1750505572.3631387,99999999999999.0, 5, 1,60,-99999999999999.0,18, 9,60
59,1003692601.7679889,99999999999999.0, 1, 1,10,-99999999999999.0, 1, 8,10
521,1248180991.1959734,99999999999999.0,11,13,30,-99999999999999.0,27,21,50
637,1197763775.0347884,99999999999999.0, 1, 8,40,-99999999999999.0, 3, 8,10
649,1197763775.0347884,99999999999999.0, 1, 8,40,-99999999999999.0, 3, 8,10
4,334,11
11,4951752920.853665,99999999999999.0, 5, 2,40,-99999999999999.0,14,13,10
23,1708249294.8933232,99999999999999.0, 5, 1,60,-99999999999999.0,18, 9,60
59,923993077.9170339,99999999999999.0, 1, 1,10,-99999999999999.0, 1, 8,10
521,3243503625.960342,99999999999999.0,11,13,30,-99999999999999.0,27,21,50
637,6173225726.479664,99999999999999.0, 1, 8,40,-99999999999999.0, 3, 8,10
649,6173225726.479664,99999999999999.0, 1, 8,40,-99999999999999.0, 3, 8,10
4,365,12
11,6046495560.351396,99999999999999.0, 5, 2,40,-99999999999999.0,14,13,10
23,1800289930.3262103,99999999999999.0, 5, 1,60,-99999999999999.0,18, 9,60
59,966077405.9317873,99999999999999.0, 1, 1,10,-99999999999999.0, 1, 8,10
521,4246205630.02519,99999999999999.0,11,13,30,-99999999999999.0,27,21,50
637,8124111380.175723,99999999999999.0, 1, 8,40,-99999999999999.0, 3, 8,10
649,8124111380.175723,99999999999999.0, 1, 8,40,-99999999999999.0, 3, 8,10
5,365
13,52643347092.335495,31035.640128880787, 4, 5, 2,40,3269868.746589552, 1,14,13,10
25,20170661548.82545,31035.640128880787, 4, 5, 1,60,1069181.8505166871, 3,18, 9,60
61,11448799358.432468,31035.640128880787, 1, 1, 1,10,620712.8025776157, 1, 1, 8,10
523,32472685543.50829,0.0, 1,11,13,30,2284778.27173659, 1,27,21,50
639,49146715476.84119,0.0, 1, 1, 8,40,18040083.440247655, 2, 3, 8,10
651,49146715476.84119,0.0, 1, 1, 8,40,18040083.440247655, 2, 3, 8,10
End of Data
 Number of Records Written=          78
