Program Version,EnergyPlus, Version 24.2.0-94a887817b, YMD=2025.02.04 17:21
1,5,Environment Title[],Latitude[deg],Longitude[deg],Time Zone[],Elevation[m]
2,8,Day of Simulation[],Month[],Day of Month[],DST Indicator[1=yes 0=no],Hour[],StartMinute[],EndMinute[],DayType
3,5,Cumulative Day of Simulation[],Month[],Day of Month[],DST Indicator[1=yes 0=no],DayType  ! When Daily Meters Requested
4,2,Cumulative Days of Simulation[],Month[]  ! When Monthly Meters Requested
5,1,Cumulative Days of Simulation[] ! When Run Period Meters Requested
6,1,Calendar Year of Simulation[] ! When Annual Meters Requested
11,9,Electricity:Facility [J] !Monthly [Value,Min,Day,Hour,Minute,Max,Day,Hour,Minute]
23,9,Electricity:Building [J] !Monthly [Value,Min,Day,Hour,Minute,Max,Day,Hour,Minute]
59,9,InteriorLights:Electricity [J] !Monthly [Value,Min,Day,Hour,Minute,Max,Day,Hour,Minute]
521,9,Electricity:HVAC [J] !Monthly [Value,Min,Day,Hour,Minute,Max,Day,Hour,Minute]
637,9,NaturalGas:Facility [J] !Monthly [Value,Min,Day,Hour,Minute,Max,Day,Hour,Minute]
649,9,NaturalGas:HVAC [J] !Monthly [Value,Min,Day,Hour,Minute,Max,Day,Hour,Minute]
13,11,Electricity:Facility [J] !RunPeriod [Value,Min,Month,Day,Hour,Minute,Max,Month,Day,Hour,Minute]
25,11,Electricity:Building [J] !RunPeriod [Value,Min,Month,Day,Hour,Minute,Max,Month,Day,Hour,Minute]
61,11,InteriorLights:Electricity [J] !RunPeriod [Value,Min,Month,Day,Hour,Minute,Max,Month,Day,Hour,Minute]
523,11,Electricity:HVAC [J] !RunPeriod [Value,Min,Month,Day,Hour,Minute,Max,Month,Day,Hour,Minute]
639,11,NaturalGas:Facility [J] !RunPeriod [Value,Min,Month,Day,Hour,Minute,Max,Month,Day,Hour,Minute]
651,11,NaturalGas:HVAC [J] !RunPeriod [Value,Min,Month,Day,Hour,Minute,Max,Month,Day,Hour,Minute]
End of Data Dictionary
1,YEARSIMULATION,  41.98, -87.92,  -6.00, 201.00
4,31, 1
11,8719565469.477919,231859.55939814655,11,19,30,3504796.381887602,26,14,50
23,1849964139.51715,105300.85340621338,11,20,20,1020599.7024828785,31,13,60
59,923377626.5469685,28552.183875909486, 1, 1,10,571043.6775181897, 1, 8,10
521,6869601329.960797,0.0,11,13,50,2571451.006002561,27,20,20
637,15801795844.121763,0.0, 1,10,10,19763591.70792268,31, 7,40
649,15801795844.121763,0.0, 1,10,10,19763591.70792268,31, 7,40
4,59, 2
11,7186918054.550841,99999999999999.0,11,19,30,-99999999999999.0,26,14,50
23,1631957933.947842,99999999999999.0,11,20,20,-99999999999999.0,31,13,60
59,807227342.5397526,99999999999999.0, 1, 1,10,-99999999999999.0, 1, 8,10
521,5554960120.603006,99999999999999.0,11,13,50,-99999999999999.0,27,20,20
637,12841413476.533907,99999999999999.0, 1,10,10,20583942.405585274, 3, 7,60
649,12841413476.533907,99999999999999.0, 1,10,10,20583942.405585274, 3, 7,60
4,90, 3
11,7149151619.176004,91075.64618971282,31,16,60,-99999999999999.0,26,14,50
23,1773355540.741102,91075.64618971282,31,16,60,-99999999999999.0,31,13,60
59,888772379.6893598,99999999999999.0, 1, 1,10,-99999999999999.0, 1, 8,10
521,5375796078.434929,99999999999999.0,11,13,50,-99999999999999.0,27,20,20
637,9289553006.01169,99999999999999.0, 1,10,10,-99999999999999.0, 3, 7,60
649,9289553006.01169,99999999999999.0, 1,10,10,-99999999999999.0, 3, 7,60
4,120, 4
11,4121397300.42466,28552.183875909486, 5, 4,60,-99999999999999.0,26,14,50
23,1608139383.5988698,28552.183875909486, 5, 3,30,-99999999999999.0,31,13,60
59,850055618.3536248,99999999999999.0, 1, 1,10,-99999999999999.0, 1, 8,10
521,2513257916.825788,99999999999999.0,11,13,50,-99999999999999.0,27,20,20
637,3849633932.392785,99999999999999.0, 1,10,10,-99999999999999.0, 3, 7,60
649,3849633932.392785,99999999999999.0, 1,10,10,-99999999999999.0, 3, 7,60
4,151, 5
11,2958090006.0179524,99999999999999.0, 5, 4,60,-99999999999999.0,26,14,50
23,1650073957.5533838,99999999999999.0, 5, 3,30,-99999999999999.0,31,13,60
59,923377626.5469685,99999999999999.0, 1, 1,10,-99999999999999.0, 1, 8,10
521,1308016048.4645317,99999999999999.0,11,13,50,-99999999999999.0,27,20,20
637,812240145.6696737,99999999999999.0, 1,10,10,-99999999999999.0, 3, 7,60
649,812240145.6696737,99999999999999.0, 1,10,10,-99999999999999.0, 3, 7,60
4,181, 6
11,2824572228.800198,99999999999999.0, 5, 4,60,-99999999999999.0,26,14,50
23,1452763994.8821814,99999999999999.0, 5, 3,30,-99999999999999.0,31,13,60
59,850055618.3536245,99999999999999.0, 1, 1,10,-99999999999999.0, 1, 8,10
521,1371808233.917981,99999999999999.0,11,13,50,-99999999999999.0,27,20,20
637,32978134.55843959,99999999999999.0, 1,10,10,-99999999999999.0, 3, 7,60
649,32978134.55843959,99999999999999.0, 1,10,10,-99999999999999.0, 3, 7,60
4,212, 7
11,3519162399.3082747,99999999999999.0, 5, 4,60,-99999999999999.0,26,14,50
23,1458828045.1100047,99999999999999.0, 5, 3,30,-99999999999999.0,31,13,60
59,888772379.6893623,99999999999999.0, 1, 1,10,-99999999999999.0, 1, 8,10
521,2060334354.198232,99999999999999.0,11,13,50,-99999999999999.0,27,20,20
637,0.0,99999999999999.0, 1,10,10,-99999999999999.0, 3, 7,60
649,0.0,99999999999999.0, 1,10,10,-99999999999999.0, 3, 7,60
4,243, 8
11,3190972699.4749036,99999999999999.0, 5, 4,60,-99999999999999.0,26,14,50
23,1542627214.6295795,99999999999999.0, 5, 3,30,-99999999999999.0,31,13,60
59,923377626.546965,99999999999999.0, 1, 1,10,-99999999999999.0, 1, 8,10
521,1648345484.8452957,99999999999999.0,11,13,50,-99999999999999.0,27,20,20
637,8103638.379417719,99999999999999.0, 1,10,10,-99999999999999.0, 3, 7,60
649,8103638.379417719,99999999999999.0, 1,10,10,-99999999999999.0, 3, 7,60
4,273, 9
11,2426954507.597328,99999999999999.0, 5, 4,60,-99999999999999.0,26,14,50
23,1424172482.5761306,99999999999999.0, 5, 3,30,-99999999999999.0,31,13,60
59,815450371.4960188,99999999999999.0, 1, 1,10,-99999999999999.0, 1, 8,10
521,1002782025.0211978,99999999999999.0,11,13,50,-99999999999999.0,27,20,20
637,49811565.5025699,99999999999999.0, 1,10,10,-99999999999999.0, 3, 7,60
649,49811565.5025699,99999999999999.0, 1,10,10,-99999999999999.0, 3, 7,60
4,304,10
11,3350206111.4972553,99999999999999.0, 5, 4,60,-99999999999999.0,26,14,50
23,1688120219.9495094,99999999999999.0, 5, 3,30,-99999999999999.0,31,13,60
59,923377626.5469685,99999999999999.0, 1, 1,10,-99999999999999.0, 1, 8,10
521,1662085891.5477357,99999999999999.0,11,13,50,-99999999999999.0,27,20,20
637,1935440020.50854,99999999999999.0, 1,10,10,-99999999999999.0, 3, 7,60
649,1935440020.50854,99999999999999.0, 1,10,10,-99999999999999.0, 3, 7,60
4,334,11
11,5960041064.22685,99999999999999.0, 5, 4,60,-99999999999999.0,26,14,50
23,1710537788.850086,99999999999999.0, 5, 3,30,-99999999999999.0,31,13,60
59,884660865.2112275,99999999999999.0, 1, 1,10,-99999999999999.0, 1, 8,10
521,4249503275.3767586,99999999999999.0,11,13,50,-99999999999999.0,27,20,20
637,7863553267.358321,99999999999999.0, 1,10,10,-99999999999999.0, 3, 7,60
649,7863553267.358321,99999999999999.0, 1,10,10,-99999999999999.0, 3, 7,60
4,365,12
11,7369506913.549692,99999999999999.0, 5, 4,60,-99999999999999.0,26,14,50
23,1696236570.25176,99999999999999.0, 5, 3,30,-99999999999999.0,31,13,60
59,854167132.8317562,99999999999999.0, 1, 1,10,-99999999999999.0, 1, 8,10
521,5673270343.29789,99999999999999.0,11,13,50,-99999999999999.0,27,20,20
637,9847812120.239601,99999999999999.0, 1,10,10,-99999999999999.0, 3, 7,60
649,9847812120.239601,99999999999999.0, 1,10,10,-99999999999999.0, 3, 7,60
5,365
13,58776538374.10191,28552.183875909486, 4, 5, 4,60,3504796.381887602, 1,26,14,50
25,19486777271.6065,28552.183875909486, 4, 5, 3,30,1020599.7024828785, 1,31,13,60
61,10532672214.355492,28552.183875909486, 1, 1, 1,10,571043.6775181897, 1, 1, 8,10
523,39289761102.49414,0.0, 1,11,13,50,2571451.006002561, 1,27,20,20
639,62332335151.27629,0.0, 1, 1,10,10,20583942.405585274, 2, 3, 7,60
651,62332335151.27629,0.0, 1, 1,10,10,20583942.405585274, 2, 3, 7,60
End of Data
 Number of Records Written=          78
