Program Version,EnergyPlus, Version 24.2.0-94a887817b, YMD=2025.01.22 00:03
1,5,Environment Title[],Latitude[deg],Longitude[deg],Time Zone[],Elevation[m]
2,8,Day of Simulation[],Month[],Day of Month[],DST Indicator[1=yes 0=no],Hour[],StartMinute[],EndMinute[],DayType
3,5,Cumulative Day of Simulation[],Month[],Day of Month[],DST Indicator[1=yes 0=no],DayType  ! When Daily Meters Requested
4,2,Cumulative Days of Simulation[],Month[]  ! When Monthly Meters Requested
5,1,Cumulative Days of Simulation[] ! When Run Period Meters Requested
6,1,Calendar Year of Simulation[] ! When Annual Meters Requested
11,9,Electricity:Facility [J] !Monthly [Value,Min,Day,Hour,Minute,Max,Day,Hour,Minute]
23,9,Electricity:Building [J] !Monthly [Value,Min,Day,Hour,Minute,Max,Day,Hour,Minute]
59,9,InteriorLights:Electricity [J] !Monthly [Value,Min,Day,Hour,Minute,Max,Day,Hour,Minute]
521,9,Electricity:HVAC [J] !Monthly [Value,Min,Day,Hour,Minute,Max,Day,Hour,Minute]
637,9,NaturalGas:Facility [J] !Monthly [Value,Min,Day,Hour,Minute,Max,Day,Hour,Minute]
649,9,NaturalGas:HVAC [J] !Monthly [Value,Min,Day,Hour,Minute,Max,Day,Hour,Minute]
13,11,Electricity:Facility [J] !RunPeriod [Value,Min,Month,Day,Hour,Minute,Max,Month,Day,Hour,Minute]
25,11,Electricity:Building [J] !RunPeriod [Value,Min,Month,Day,Hour,Minute,Max,Month,Day,Hour,Minute]
61,11,InteriorLights:Electricity [J] !RunPeriod [Value,Min,Month,Day,Hour,Minute,Max,Month,Day,Hour,Minute]
523,11,Electricity:HVAC [J] !RunPeriod [Value,Min,Month,Day,Hour,Minute,Max,Month,Day,Hour,Minute]
639,11,NaturalGas:Facility [J] !RunPeriod [Value,Min,Month,Day,Hour,Minute,Max,Month,Day,Hour,Minute]
651,11,NaturalGas:HVAC [J] !RunPeriod [Value,Min,Month,Day,Hour,Minute,Max,Month,Day,Hour,Minute]
End of Data Dictionary
1,RUN PERIOD 1,  41.98, -87.92,  -6.00, 201.00
4,31, 1
11,9831174443.883839,408891.4285714286, 5, 6,50,2985360.444602324,16,13,60
23,992124342.6528134,30000.0, 1, 1,10,615887.2048208994, 1, 9,10
59,970200000.0,30000.0, 1, 1,10,600000.0, 1, 8,10
521,8839050101.230986,378891.4285714286, 5, 6,50,2369473.239781425,16,13,60
637,176899098020.94443,27298610.918808978,21,16,10,41250000.0, 1, 1,20
649,176899098020.94443,27298610.918808978,21,16,10,41250000.0, 1, 1,20
4,59, 2
11,9363600766.84894,99999999999999.0, 5, 6,50,3026821.8848654465,22,15,30
23,867224645.7850564,99999999999999.0, 1, 1,10,-99999999999999.0, 1, 9,10
59,848160000.0,99999999999999.0, 1, 1,10,-99999999999999.0, 1, 8,10
521,8496376121.063895,99999999999999.0, 5, 6,50,2410934.680044547,22,15,30
637,155772053078.68552,25642925.490037072,23,12,10,-99999999999999.0, 1, 1,20
649,155772053078.68552,25642925.490037072,23,12,10,-99999999999999.0, 1, 1,20
4,90, 3
11,10996116337.48354,99999999999999.0, 5, 6,50,3363088.956360165,27,14,60
23,922781838.9205674,99999999999999.0, 1, 1,10,701024.9274114426,26,14,60
59,897480000.0,99999999999999.0, 1, 1,10,-99999999999999.0, 1, 8,10
521,10073334498.562971,0.0,27,15,10,2664082.5381495594,27,14,60
637,158141430152.88846,0.0,27,15,10,-99999999999999.0, 1, 1,20
649,158141430152.88846,0.0,27,15,10,-99999999999999.0, 1, 1,20
4,120, 4
11,9823080072.422638,30000.0,11,19,10,-99999999999999.0,27,14,60
23,967570019.4590524,99999999999999.0, 1, 1,10,-99999999999999.0,26,14,60
59,929520000.0,99999999999999.0, 1, 1,10,-99999999999999.0, 1, 8,10
521,8855510052.963581,99999999999999.0,27,15,10,-99999999999999.0,27,14,60
637,118007923520.35359,99999999999999.0,27,15,10,-99999999999999.0, 1, 1,20
649,118007923520.35359,99999999999999.0,27,15,10,-99999999999999.0, 1, 1,20
4,151, 5
11,9395007923.35145,99999999999999.0,11,19,10,3366037.4775038986,13,13,60
23,1029483267.8557255,99999999999999.0, 1, 1,10,710096.7570916343,13,13,60
59,970200000.0,99999999999999.0, 1, 1,10,-99999999999999.0, 1, 8,10
521,8365524655.495817,99999999999999.0,27,15,10,-99999999999999.0,27,14,60
637,90746263710.81728,99999999999999.0,27,15,10,-99999999999999.0, 1, 1,20
649,90746263710.81728,99999999999999.0,27,15,10,-99999999999999.0, 1, 1,20
4,181, 6
11,7694284503.459439,99999999999999.0,11,19,10,-99999999999999.0,13,13,60
23,925087882.7124351,99999999999999.0, 1, 1,10,-99999999999999.0,13,13,60
59,856800000.0,99999999999999.0, 1, 1,10,-99999999999999.0, 1, 8,10
521,6769196620.74695,99999999999999.0,27,15,10,-99999999999999.0,27,14,60
637,42348512560.08277,99999999999999.0,27,15,10,-99999999999999.0, 1, 1,20
649,42348512560.08277,99999999999999.0,27,15,10,-99999999999999.0, 1, 1,20
4,212, 7
11,7340498215.663276,99999999999999.0,11,19,10,-99999999999999.0,13,13,60
23,1025485616.0892869,99999999999999.0, 1, 1,10,-99999999999999.0,13,13,60
59,970200000.0,99999999999999.0, 1, 1,10,-99999999999999.0, 1, 8,10
521,6315012599.573953,99999999999999.0,27,15,10,2664987.9851222956, 6,23,50
637,17601984708.976425,99999999999999.0,27,15,10,-99999999999999.0, 1, 1,20
649,17601984708.976425,99999999999999.0,27,15,10,-99999999999999.0, 1, 1,20
4,243, 8
11,6608445400.7624,99999999999999.0,11,19,10,-99999999999999.0,13,13,60
23,1005903655.3675089,99999999999999.0, 1, 1,10,-99999999999999.0,13,13,60
59,933840000.0,99999999999999.0, 1, 1,10,-99999999999999.0, 1, 8,10
521,5602541745.394887,99999999999999.0,27,15,10,-99999999999999.0, 6,23,50
637,30725827886.634964,99999999999999.0,27,15,10,-99999999999999.0, 1, 1,20
649,30725827886.634964,99999999999999.0,27,15,10,-99999999999999.0, 1, 1,20
4,273, 9
11,8197476972.1296425,99999999999999.0,11,19,10,-99999999999999.0,13,13,60
23,980819429.7768857,99999999999999.0, 1, 1,10,-99999999999999.0,13,13,60
59,893160000.0,99999999999999.0, 1, 1,10,-99999999999999.0, 1, 8,10
521,7216657542.352729,99999999999999.0,27,15,10,-99999999999999.0, 6,23,50
637,66168222764.39985,99999999999999.0,27,15,10,-99999999999999.0, 1, 1,20
649,66168222764.39985,99999999999999.0,27,15,10,-99999999999999.0, 1, 1,20
4,304,10
11,10678504247.348896,99999999999999.0,11,19,10,-99999999999999.0,13,13,60
23,1014984207.1651709,99999999999999.0, 1, 1,10,-99999999999999.0,13,13,60
59,970200000.0,99999999999999.0, 1, 1,10,-99999999999999.0, 1, 8,10
521,9663520040.183693,99999999999999.0,27,15,10,-99999999999999.0, 6,23,50
637,124614924733.54205,99999999999999.0,27,15,10,-99999999999999.0, 1, 1,20
649,124614924733.54205,99999999999999.0,27,15,10,-99999999999999.0, 1, 1,20
4,334,11
11,10505408286.041014,99999999999999.0,11,19,10,-99999999999999.0,13,13,60
23,926714261.0921987,99999999999999.0, 1, 1,10,-99999999999999.0,13,13,60
59,893160000.0,99999999999999.0, 1, 1,10,-99999999999999.0, 1, 8,10
521,9578694024.948795,99999999999999.0,27,15,10,-99999999999999.0, 6,23,50
637,144354461290.97058,99999999999999.0,27,15,10,-99999999999999.0, 1, 1,20
649,144354461290.97058,99999999999999.0,27,15,10,-99999999999999.0, 1, 1,20
4,365,12
11,10443761730.74739,99999999999999.0,11,19,10,-99999999999999.0,13,13,60
23,954811110.3635609,99999999999999.0, 1, 1,10,-99999999999999.0,13,13,60
59,933840000.0,99999999999999.0, 1, 1,10,-99999999999999.0, 1, 8,10
521,9488950620.383821,99999999999999.0,27,15,10,-99999999999999.0, 6,23,50
637,177545969664.34836,99999999999999.0,27,15,10,-99999999999999.0, 1, 1,20
649,177545969664.34836,99999999999999.0,27,15,10,-99999999999999.0, 1, 1,20
5,365
13,110877358900.14053,30000.0, 4,11,19,10,3366037.4775038986, 5,13,13,60
25,11612990277.23866,30000.0, 1, 1, 1,10,710096.7570916343, 5,13,13,60
61,11066760000.0,30000.0, 1, 1, 1,10,600000.0, 1, 1, 8,10
523,99264368622.90715,0.0, 3,27,15,10,2664987.9851222956, 7, 6,23,50
639,1302926672092.6458,0.0, 3,27,15,10,41250000.0, 1, 1, 1,20
651,1302926672092.6458,0.0, 3,27,15,10,41250000.0, 1, 1, 1,20
1,RUN PERIOD 2,  41.98, -87.92,  -6.00, 201.00
4,1, 7
11,126986634.2777712,99999999999999.0,11,19,10,-99999999999999.0,13,13,60
23,41633232.28925403,99999999999999.0, 1, 1,10,-99999999999999.0,13,13,60
59,40680000.0,99999999999999.0, 1, 1,10,-99999999999999.0, 1, 8,10
521,85353401.98851728,99999999999999.0,27,15,10,-99999999999999.0, 6,23,50
637,0.0,99999999999999.0,27,15,10,-99999999999999.0, 1, 1,20
649,0.0,99999999999999.0,27,15,10,-99999999999999.0, 1, 1,20
5,1
13,126986634.2777712,99999999999999.0, 4,11,19,10,-99999999999999.0, 5,13,13,60
25,41633232.28925403,99999999999999.0, 1, 1, 1,10,-99999999999999.0, 5,13,13,60
61,40680000.0,99999999999999.0, 1, 1, 1,10,-99999999999999.0, 1, 1, 8,10
523,85353401.98851728,99999999999999.0, 3,27,15,10,-99999999999999.0, 7, 6,23,50
639,0.0,99999999999999.0, 3,27,15,10,-99999999999999.0, 1, 1, 1,20
651,0.0,99999999999999.0, 3,27,15,10,-99999999999999.0, 1, 1, 1,20
End of Data
 Number of Records Written=          90
