Program Version,EnergyPlus, Version 24.1.0-9d7789a3ac, YMD=2024.10.18 13:35
1,5,Environment Title[],Latitude[deg],Longitude[deg],Time Zone[],Elevation[m]
2,8,Day of Simulation[],Month[],Day of Month[],DST Indicator[1=yes 0=no],Hour[],StartMinute[],EndMinute[],DayType
3,5,Cumulative Day of Simulation[],Month[],Day of Month[],DST Indicator[1=yes 0=no],DayType  ! When Daily Report Variables Requested
4,2,Cumulative Days of Simulation[],Month[]  ! When Monthly Report Variables Requested
5,1,Cumulative Days of Simulation[] ! When Run Period Report Variables Requested
6,1,Calendar Year of Simulation[] ! When Annual Report Variables Requested
250,1,LIVING ZONE,Zone Air Temperature [C] !TimeStep,REPORTSCH
251,1,LIVING ZONE,Zone Air System Sensible Heating Energy [J] !TimeStep,REPORTSCH
336,1,LIVING ZONE,Zone Air System Sensible Cooling Energy [J] !TimeStep,REPORTSCH
385,1,LIVING ZONE,Zone Thermostat Heating Setpoint Temperature [C] !TimeStep,REPORTSCH
386,1,LIVING ZONE,Zone Thermostat Cooling Setpoint Temperature [C] !TimeStep,REPORTSCH
387,1,GARAGE ZONE,Zone Air Temperature [C] !TimeStep,REPORTSCH
388,1,GARAGE ZONE,Zone Air System Sensible Heating Energy [J] !TimeStep,REPORTSCH
425,1,GARAGE ZONE,Zone Air System Sensible Cooling Energy [J] !TimeStep,REPORTSCH
450,1,GARAGE ZONE,Zone Thermostat Heating Setpoint Temperature [C] !TimeStep,REPORTSCH
451,1,GARAGE ZONE,Zone Thermostat Cooling Setpoint Temperature [C] !TimeStep,REPORTSCH
452,1,ATTIC ZONE,Zone Air Temperature [C] !TimeStep,REPORTSCH
453,1,ATTIC ZONE,Zone Air System Sensible Heating Energy [J] !TimeStep,REPORTSCH
490,1,ATTIC ZONE,Zone Air System Sensible Cooling Energy [J] !TimeStep,REPORTSCH
515,1,ATTIC ZONE,Zone Thermostat Heating Setpoint Temperature [C] !TimeStep,REPORTSCH
516,1,ATTIC ZONE,Zone Thermostat Cooling Setpoint Temperature [C] !TimeStep,REPORTSCH
542,1,ACDXCOIL 1,Cooling Coil Total Cooling Energy [J] !TimeStep,REPORTSCH
592,1,HEAT PUMP DX HEATING COIL 1,Heating Coil Heating Energy [J] !TimeStep,REPORTSCH
632,1,SUPP HEATING COIL 1,Heating Coil Heating Energy [J] !TimeStep,REPORTSCH
686,1,TWOSPEED HEAT PUMP 1,Unitary System DX Coil Cycling Ratio [] !TimeStep,REPORTSCH
687,1,TWOSPEED HEAT PUMP 1,Unitary System DX Coil Speed Ratio [] !TimeStep,REPORTSCH
688,1,TWOSPEED HEAT PUMP 1,Unitary System DX Coil Speed Level [] !TimeStep
End of Data Dictionary
1,CHICAGO_IL_USA ANNUAL HEATING 99% DESIGN CONDITIONS DB,  41.98, -87.92,  -6.00, 201.00
2,1, 1,21, 0, 1, 0.00,10.00,WinterDesignDay
250,18.0515914932825
251,9999156.614676708
336,0.0
385,18.093616181303343
386,25.055831616563424
387,-17.66289852161006
388,0.0
425,0.0
450,0.0
451,0.0
452,-18.357256724685527
453,0.0
490,0.0
515,0.0
516,0.0
542,0.0
592,0.0
632,9854028.479527716
686,1.0
687,1.0
688,2.0
2,1, 1,21, 0, 1,10.00,20.00,WinterDesignDay
250,17.14848647205619
251,8508882.617504915
336,0.0
385,17.093616181303343
386,25.055831616563424
387,-17.663116571601343
388,0.0
425,0.0
450,0.0
451,0.0
452,-18.35742037997678
453,0.0
490,0.0
515,0.0
516,0.0
542,0.0
592,0.0
632,8509803.83317171
686,0.6666666666666667
687,0.5226283161390901
688,1.3333333333333335
2,1, 1,21, 0, 1,20.00,30.00,WinterDesignDay
250,17.56959737915283
251,8811356.607371796
336,0.0
385,17.593616181303343
386,25.055831616563424
387,-17.663358392923406
388,0.0
425,0.0
450,0.0
451,0.0
452,-18.35785842188741
453,0.0
490,0.0
515,0.0
516,0.0
542,0.0
592,0.0
632,8654292.556795647
686,1.0
687,1.0
688,2.0
2,1, 1,21, 0, 1,30.00,40.00,WinterDesignDay
250,18.043048336981123
251,9874397.50795171
336,0.0
385,18.093616181303343
386,25.055831616563424
387,-17.663515314421357
388,0.0
425,0.0
450,0.0
451,0.0
452,-18.358309746689493
453,0.0
490,0.0
515,0.0
516,0.0
542,0.0
592,0.0
632,9752327.012642428
686,1.0
687,1.0
688,2.0
2,1, 1,21, 0, 1,40.00,50.00,WinterDesignDay
250,17.15849950947937
251,8436840.890557941
336,0.0
385,17.093616181303318
386,25.05583161656339
387,-17.66352118061835
388,0.0
425,0.0
450,0.0
451,0.0
452,-18.358514517178623
453,0.0
490,0.0
515,0.0
516,0.0
542,0.0
592,0.0
632,8490605.740776412
686,0.6160014982943395
687,0.49999999999999933
688,1.166666666666665
2,1, 1,21, 0, 1,50.00,60.00,WinterDesignDay
250,17.462256044980514
251,6615362.446139176
336,0.0
385,17.42694951463669
386,25.05583161656344
387,-17.663417707694798
388,0.0
425,0.0
450,0.0
451,0.0
452,-18.358475589025858
453,0.0
490,0.0
515,0.0
516,0.0
542,0.0
592,0.0
632,6209113.545271566
686,1.0000000000000009
687,1.0000000000000009
688,2.0000000000000018
2,1, 1,21, 0, 2, 0.00,10.00,WinterDesignDay
250,17.657946860610107
251,5059259.864318982
336,0.0
385,18.093616181303343
386,25.055831616563424
387,-17.663211382321304
388,0.0
425,0.0
450,0.0
451,0.0
452,-18.358159763077317
453,0.0
490,0.0
515,0.0
516,0.0
542,0.0
592,0.0
632,5510222.364002924
686,1.0
687,1.0
688,2.0
2,1, 1,21, 0, 2,10.00,20.00,WinterDesignDay
250,18.051595874164114
251,10001863.609629832
336,0.0
385,18.093616181303343
386,25.055831616563424
387,-17.663165780345537
388,0.0
425,0.0
450,0.0
451,0.0
452,-18.35784639182443
453,0.0
490,0.0
515,0.0
516,0.0
542,0.0
592,0.0
632,9856728.215699205
686,1.0
687,1.0
688,2.0
2,1, 1,21, 0, 2,20.00,30.00,WinterDesignDay
250,17.148204547960997
251,8510715.355461836
336,0.0
385,17.093616181303357
386,25.055831616563445
387,-17.66335732127411
388,0.0
425,0.0
450,0.0
451,0.0
452,-18.357935189406003
453,0.0
490,0.0
515,0.0
516,0.0
542,0.0
592,0.0
632,8510004.405897086
686,0.6666666666666672
687,0.5302402848039993
688,1.3333333333333344
2,1, 1,21, 0, 2,30.00,40.00,WinterDesignDay
250,17.569589699435973
251,8813674.443739891
336,0.0
385,17.593616181303343
386,25.055831616563424
387,-17.66357375988526
388,0.0
425,0.0
450,0.0
451,0.0
452,-18.358303113781307
453,0.0
490,0.0
515,0.0
516,0.0
542,0.0
592,0.0
632,8656648.54410767
686,1.0
687,1.0
688,2.0
2,1, 1,21, 0, 2,40.00,50.00,WinterDesignDay
250,18.043048995092093
251,9876369.470378842
336,0.0
385,18.093616181303343
386,25.055831616563424
387,-17.663705588275498
388,0.0
425,0.0
450,0.0
451,0.0
452,-18.358687609183647
453,0.0
490,0.0
515,0.0
516,0.0
542,0.0
592,0.0
632,9754301.15397308
686,1.0
687,1.0
688,2.0
2,1, 1,21, 0, 2,50.00,60.00,WinterDesignDay
250,17.15828076828322
251,8438236.699208185
336,0.0
385,17.093616181303318
386,25.05583161656339
387,-17.663690740655756
388,0.0
425,0.0
450,0.0
451,0.0
452,-18.358838455029517
453,0.0
490,0.0
515,0.0
516,0.0
542,0.0
592,0.0
632,8490712.76840039
686,0.6173487609462304
687,0.49999999999999933
688,1.166666666666665
2,1, 1,21, 0, 3, 0.00,10.00,WinterDesignDay
250,17.462245047062314
251,6617163.741810709
336,0.0
385,17.426949514636675
386,25.055831616563424
387,-17.66356821448045
388,0.0
425,0.0
450,0.0
451,0.0
452,-18.358751936300603
453,0.0
490,0.0
515,0.0
516,0.0
542,0.0
592,0.0
632,6210953.220822508
686,1.0
687,1.0
688,2.0
2,1, 1,21, 0, 3,10.00,20.00,WinterDesignDay
250,17.657961146041178
251,5060728.502985157
336,0.0
385,18.093616181303343
386,25.055831616563424
387,-17.663341517633313
388,0.0
425,0.0
450,0.0
451,0.0
452,-18.358387963304082
453,0.0
490,0.0
515,0.0
516,0.0
542,0.0
592,0.0
632,5511700.801570011
686,1.0
687,1.0
688,2.0
2,1, 1,21, 0, 3,20.00,30.00,WinterDesignDay
250,18.05159812057517
251,10003389.000208033
336,0.0
385,18.093616181303343
386,25.055831616563424
387,-17.6632802833431
388,0.0
425,0.0
450,0.0
451,0.0
452,-18.35803920586843
453,0.0
490,0.0
515,0.0
516,0.0
542,0.0
592,0.0
632,9858249.98414331
686,1.0
687,1.0
688,2.0
2,1, 1,21, 0, 3,30.00,40.00,WinterDesignDay
250,17.14803769178644
251,8511800.03659071
336,0.0
385,17.093616181303332
386,25.055831616563406
387,-17.66346083463781
388,0.0
425,0.0
450,0.0
451,0.0
452,-18.358103639849606
453,0.0
490,0.0
515,0.0
516,0.0
542,0.0
592,0.0
632,8510121.16925954
686,0.6666666666666664
687,0.5347575198826253
688,1.3333333333333328
2,1, 1,21, 0, 3,40.00,50.00,WinterDesignDay
250,17.5695851550205
251,8815094.18025731
336,0.0
385,17.593616181303343
386,25.055831616563424
387,-17.663667423035402
388,0.0
425,0.0
450,0.0
451,0.0
452,-18.358449910009025
453,0.0
490,0.0
515,0.0
516,0.0
542,0.0
592,0.0
632,8658090.860791944
686,1.0
687,1.0
688,2.0
2,1, 1,21, 0, 3,50.00,60.00,WinterDesignDay
250,18.043049417730494
251,9877619.271563185
336,0.0
385,18.093616181303343
386,25.055831616563424
387,-17.663789935525283
388,0.0
425,0.0
450,0.0
451,0.0
452,-18.35881454607324
453,0.0
490,0.0
515,0.0
516,0.0
542,0.0
592,0.0
632,9755552.248629997
686,1.0
687,1.0
688,2.0
2,1, 1,21, 0, 4, 0.00,10.00,WinterDesignDay
250,17.158138594309886
251,8439144.16396409
336,0.0
385,17.09361618130334
386,25.055831616563424
387,-17.66376772814711
388,0.0
425,0.0
450,0.0
451,0.0
452,-18.35894995492956
453,0.0
490,0.0
515,0.0
516,0.0
542,0.0
592,0.0
632,8490781.771974338
686,0.6182257852781143
687,0.5
688,1.1666666666666665
2,1, 1,21, 0, 4,10.00,20.00,WinterDesignDay
250,17.46223789912553
251,6618356.368085081
336,0.0
385,17.426949514636675
386,25.055831616563424
387,-17.663638593745247
388,0.0
425,0.0
450,0.0
451,0.0
452,-18.358850048747897
453,0.0
490,0.0
515,0.0
516,0.0
542,0.0
592,0.0
632,6212170.792828731
686,1.0
687,1.0
688,2.0
2,1, 1,21, 0, 4,20.00,30.00,WinterDesignDay
250,17.657970608174033
251,5061720.855226502
336,0.0
385,18.093616181303343
386,25.055831616563424
387,-17.663404959775576
388,0.0
425,0.0
450,0.0
451,0.0
452,-18.358472666854745
453,0.0
490,0.0
515,0.0
516,0.0
542,0.0
592,0.0
632,5512699.61716852
686,1.0
687,1.0
688,2.0
2,1, 1,21, 0, 4,30.00,40.00,WinterDesignDay
250,18.05159961722969
251,10004430.55617425
336,0.0
385,18.093616181303343
386,25.055831616563424
387,-17.663338463580928
388,0.0
425,0.0
450,0.0
451,0.0
452,-18.358114063572494
453,0.0
490,0.0
515,0.0
516,0.0
542,0.0
592,0.0
632,9859289.142025203
686,1.0
687,1.0
688,2.0
2,1, 1,21, 0, 4,40.00,50.00,WinterDesignDay
250,17.147922458876074
251,8512549.248581702
336,0.0
385,17.093616181303318
386,25.05583161656339
387,-17.663515349005902
388,0.0
425,0.0
450,0.0
451,0.0
452,-18.35817168060782
453,0.0
490,0.0
515,0.0
516,0.0
542,0.0
592,0.0
632,8510201.632685399
686,0.6666666666666657
687,0.5378800215060974
688,1.3333333333333315
2,1, 1,21, 0, 4,50.00,60.00,WinterDesignDay
250,17.569582015999792
251,8816082.74547638
336,0.0
385,17.593616181303343
386,25.055831616563424
387,-17.6637186381133
388,0.0
425,0.0
450,0.0
451,0.0
452,-18.358511821385164
453,0.0
490,0.0
515,0.0
516,0.0
542,0.0
592,0.0
632,8659095.01954718
686,1.0
687,1.0
688,2.0
2,1, 1,21, 0, 5, 0.00,10.00,WinterDesignDay
250,18.043049711947692
251,9878496.702280283
336,0.0
385,18.093616181303343
386,25.055831616563424
387,-17.663838000077376
388,0.0
425,0.0
450,0.0
451,0.0
452,-18.358870736238778
453,0.0
490,0.0
515,0.0
516,0.0
542,0.0
592,0.0
632,9756430.573086387
686,1.0
687,1.0
688,2.0
2,1, 1,21, 0, 5,10.00,20.00,WinterDesignDay
250,17.158038120486534
251,8439785.593271017
336,0.0
385,17.093616181303343
386,25.055831616563424
387,-17.663813260220795
388,0.0
425,0.0
450,0.0
451,0.0
452,-18.359001555918027
453,0.0
490,0.0
515,0.0
516,0.0
542,0.0
592,0.0
632,8490830.446508277
686,0.6188460576386395
687,0.5000000000000002
688,1.166666666666667
2,1, 1,21, 0, 5,20.00,30.00,WinterDesignDay
250,17.462232848960053
251,6619203.5136280935
336,0.0
385,17.426949514636668
386,25.055831616563417
387,-17.66368180711971
388,0.0
425,0.0
450,0.0
451,0.0
452,-18.35889754801686
453,0.0
490,0.0
515,0.0
516,0.0
542,0.0
592,0.0
632,6213035.569290461
686,0.9999999999999996
687,0.9999999999999996
688,1.9999999999999991
2,1, 1,21, 0, 5,30.00,40.00,WinterDesignDay
250,17.65797727916499
251,5062429.620575596
336,0.0
385,18.093616181303336
386,25.055831616563417
387,-17.663445684956734
388,0.0
425,0.0
450,0.0
451,0.0
452,-18.35851590746842
453,0.0
490,0.0
515,0.0
516,0.0
542,0.0
592,0.0
632,5513412.936057354
686,0.9999999999999997
687,0.9999999999999997
688,1.9999999999999993
2,1, 1,21, 0, 5,40.00,50.00,WinterDesignDay
250,18.05160067446801
251,10005177.06322492
336,0.0
385,18.093616181303343
386,25.055831616563424
387,-17.663377248279346
388,0.0
425,0.0
450,0.0
451,0.0
452,-18.358154039485704
453,0.0
490,0.0
515,0.0
516,0.0
542,0.0
592,0.0
632,9860033.958635187
686,1.0
687,1.0
688,2.0
2,1, 1,21, 0, 5,50.00,60.00,WinterDesignDay
250,17.14783953401023
251,8513088.468891744
336,0.0
385,17.093616181303318
386,25.05583161656339
387,-17.663552720576522
388,0.0
425,0.0
450,0.0
451,0.0
452,-18.35820925968789
453,0.0
490,0.0
515,0.0
516,0.0
542,0.0
592,0.0
632,8510259.425902344
686,0.6666666666666657
687,0.5401286253425699
688,1.3333333333333315
2,1, 1,21, 0, 6, 0.00,10.00,WinterDesignDay
250,17.56957975610933
251,8816796.250753257
336,0.0
385,17.593616181303343
386,25.055831616563424
387,-17.66375468970568
388,0.0
425,0.0
450,0.0
451,0.0
452,-18.358547162157777
453,0.0
490,0.0
515,0.0
516,0.0
542,0.0
592,0.0
632,8659819.745459452
686,1.0
687,1.0
688,2.0
2,1, 1,21, 0, 6,10.00,20.00,WinterDesignDay
250,18.04304992113103
251,9879131.961309511
336,0.0
385,18.093616181303343
386,25.055831616563424
387,-17.663872744311618
388,0.0
425,0.0
450,0.0
451,0.0
452,-18.358903899919838
453,0.0
490,0.0
515,0.0
516,0.0
542,0.0
592,0.0
632,9757066.475222252
686,1.0
687,1.0
688,2.0
2,1, 1,21, 0, 6,20.00,30.00,WinterDesignDay
250,17.15796515838901
251,8440251.447735611
336,0.0
385,17.093616181303357
386,25.055831616563445
387,-17.663846901121495
388,0.0
425,0.0
450,0.0
451,0.0
452,-18.359032868347587
453,0.0
490,0.0
515,0.0
516,0.0
542,0.0
592,0.0
632,8490865.671645626
686,0.6192968068124749
687,0.5000000000000004
688,1.1666666666666676
2,1, 1,21, 0, 6,30.00,40.00,WinterDesignDay
250,17.569856123378244
251,8750931.437363693
336,0.0
385,17.593616181303343
386,25.055831616563424
387,-17.663713631770506
388,0.0
425,0.0
450,0.0
451,0.0
452,-18.358922042003833
453,0.0
490,0.0
515,0.0
516,0.0
542,0.0
592,0.0
632,8592585.037244432
686,1.0
687,1.0
688,2.0
2,1, 1,21, 0, 6,40.00,50.00,WinterDesignDay
250,18.04303919445401
251,9837005.42825304
336,0.0
385,18.093616181303343
386,25.055831616563424
387,-17.663496904392247
388,0.0
425,0.0
450,0.0
451,0.0
452,-18.358614361705634
453,0.0
490,0.0
515,0.0
516,0.0
542,0.0
592,0.0
632,9714863.138963431
686,1.0
687,1.0
688,2.0
2,1, 1,21, 0, 6,50.00,60.00,WinterDesignDay
250,17.161733432558325
251,8416255.007747043
336,0.0
385,17.093616181303318
386,25.05583161656339
387,-17.663247567020953
388,0.0
425,0.0
450,0.0
451,0.0
452,-18.358115863380107
453,0.0
490,0.0
515,0.0
516,0.0
542,0.0
592,0.0
632,8488852.901590498
686,0.5964200065687612
687,0.49999999999999933
688,1.166666666666665
2,1, 1,21, 0, 7, 0.00,10.00,WinterDesignDay
250,17.462418641649553
251,6593616.050047591
336,0.0
385,17.426949514636675
386,25.055831616563424
387,-17.662968860470098
388,0.0
425,0.0
450,0.0
451,0.0
452,-18.35753139528208
453,0.0
490,0.0
515,0.0
516,0.0
542,0.0
592,0.0
632,6186799.661362225
686,1.0
687,1.0
688,2.0
2,1, 1,21, 0, 7,10.00,20.00,WinterDesignDay
250,17.657780045955924
251,5045584.087296747
336,0.0
385,18.093616181303343
386,25.055831616563424
387,-17.66263856312943
388,0.0
425,0.0
450,0.0
451,0.0
452,-18.35680004110206
453,0.0
490,0.0
515,0.0
516,0.0
542,0.0
592,0.0
632,5496425.725737414
686,1.0
687,1.0
688,2.0
2,1, 1,21, 0, 7,20.00,30.00,WinterDesignDay
250,18.051571419601153
251,9989466.795176432
336,0.0
385,18.093616181303343
386,25.055831616563424
387,-17.662545991327114
388,0.0
425,0.0
450,0.0
451,0.0
452,-18.356320720433537
453,0.0
490,0.0
515,0.0
516,0.0
542,0.0
592,0.0
632,9844373.918399485
686,1.0
687,1.0
688,2.0
2,1, 1,21, 0, 7,30.00,40.00,WinterDesignDay
250,17.14935643882622
251,8503224.268206673
336,0.0
385,17.093616181303332
386,25.055831616563406
387,-17.662746494478398
388,0.0
425,0.0
450,0.0
451,0.0
452,-18.3564207240761
453,0.0
490,0.0
515,0.0
516,0.0
542,0.0
592,0.0
632,8509144.157140512
686,0.6665176403132554
687,0.49999999999999967
688,1.166666666666666
2,1, 1,21, 0, 7,40.00,50.00,WinterDesignDay
250,17.569621084157635
251,8804979.383866768
336,0.0
385,17.593616181303343
386,25.055831616563424
387,-17.662991547561752
388,0.0
425,0.0
450,0.0
451,0.0
452,-18.35685717162678
453,0.0
490,0.0
515,0.0
516,0.0
542,0.0
592,0.0
632,8647797.610862095
686,1.0
687,1.0
688,2.0
2,1, 1,21, 0, 7,50.00,60.00,WinterDesignDay
250,18.043046836001935
251,9869616.581189074
336,0.0
385,18.093616181303343
386,25.055831616563424
387,-17.663165136460435
388,0.0
425,0.0
450,0.0
451,0.0
452,-18.357352240489828
453,0.0
490,0.0
515,0.0
516,0.0
542,0.0
592,0.0
632,9747539.426111955
686,1.0
687,1.0
688,2.0
2,1, 1,21, 0, 8, 0.00,10.00,WinterDesignDay
250,17.158978803942617
251,8433783.346667495
336,0.0
385,17.09361618130334
386,25.055831616563424
387,-17.663196081241985
388,0.0
425,0.0
450,0.0
451,0.0
452,-18.357633607650353
453,0.0
490,0.0
515,0.0
516,0.0
542,0.0
592,0.0
632,8490358.253852554
686,0.6130667508683306
687,0.5
688,1.1666666666666665
2,1, 1,21, 0, 8,10.00,20.00,WinterDesignDay
250,17.462280140723024
251,6611706.819991037
336,0.0
385,17.426949514636675
386,25.055831616563424
387,-17.663122174013566
388,0.0
425,0.0
450,0.0
451,0.0
452,-18.357684787238405
453,0.0
490,0.0
515,0.0
516,0.0
542,0.0
592,0.0
632,6205373.817205979
686,1.0
687,1.0
688,2.0
2,1, 1,21, 0, 8,20.00,30.00,WinterDesignDay
250,17.657918290607046
251,5056534.7873487
336,0.0
385,18.093616181303343
386,25.055831616563424
387,-17.662953151517453
388,0.0
425,0.0
450,0.0
451,0.0
452,-18.35748017260534
453,0.0
490,0.0
515,0.0
516,0.0
542,0.0
592,0.0
632,5507477.298389914
686,1.0
687,1.0
688,2.0
2,1, 1,21, 0, 8,30.00,40.00,WinterDesignDay
250,18.05159149378495
251,9999156.963493276
336,0.0
385,18.093616181303343
386,25.055831616563424
387,-17.662939889428227
388,0.0
425,0.0
450,0.0
451,0.0
452,-18.35726106702925
453,0.0
490,0.0
515,0.0
516,0.0
542,0.0
592,0.0
632,9854028.827550672
686,1.0
687,1.0
688,2.0
2,1, 1,21, 0, 8,40.00,50.00,WinterDesignDay
250,17.1484864319996
251,8508882.877681855
336,0.0
385,17.093616181303318
386,25.05583161656339
387,-17.663157448020996
388,0.0
425,0.0
450,0.0
451,0.0
452,-18.357424665900083
453,0.0
490,0.0
515,0.0
516,0.0
542,0.0
592,0.0
632,8509803.86082383
686,0.6666666666666657
687,0.5226293999119
688,1.3333333333333315
2,1, 1,21, 0, 8,50.00,60.00,WinterDesignDay
250,17.56959737806484
251,8811356.961519256
336,0.0
385,17.593616181303343
386,25.055831616563424
387,-17.663398764716476
388,0.0
425,0.0
450,0.0
451,0.0
452,-18.357862657671504
453,0.0
490,0.0
515,0.0
516,0.0
542,0.0
592,0.0
632,8654292.916366637
686,1.0
687,1.0
688,2.0
2,1, 1,21, 0, 9, 0.00,10.00,WinterDesignDay
250,18.04304833710374
251,9874397.834076412
336,0.0
385,18.093616181303343
386,25.055831616563424
387,-17.663555144525976
388,0.0
425,0.0
450,0.0
451,0.0
452,-18.35831393512481
453,0.0
490,0.0
515,0.0
516,0.0
542,0.0
592,0.0
632,9752327.339079462
686,1.0
687,1.0
688,2.0
2,1, 1,21, 0, 9,10.00,20.00,WinterDesignDay
250,17.158499470870904
251,8436841.13685256
336,0.0
385,17.093616181303343
386,25.055831616563424
387,-17.663560508412655
388,0.0
425,0.0
450,0.0
451,0.0
452,-18.35851865951306
453,0.0
490,0.0
515,0.0
516,0.0
542,0.0
592,0.0
632,8490605.759398077
686,0.6160017361941211
687,0.5000000000000002
688,1.166666666666667
2,1, 1,21, 0, 9,20.00,30.00,WinterDesignDay
250,17.462256043035183
251,6615362.781484018
336,0.0
385,17.426949514636668
386,25.055831616563417
387,-17.663456522094467
388,0.0
425,0.0
450,0.0
451,0.0
452,-18.358479682285804
453,0.0
490,0.0
515,0.0
516,0.0
542,0.0
592,0.0
632,6209113.887383965
686,0.9999999999999996
687,0.9999999999999996
688,1.9999999999999991
2,1, 1,21, 0, 9,30.00,40.00,WinterDesignDay
250,17.657946863463067
251,5059260.15645137
336,0.0
385,18.093616181303336
386,25.055831616563417
387,-17.663249587520635
388,0.0
425,0.0
450,0.0
451,0.0
452,-18.358163791309078
453,0.0
490,0.0
515,0.0
516,0.0
542,0.0
592,0.0
632,5510222.658062432
686,0.9999999999999997
687,0.9999999999999997
688,1.9999999999999993
2,1, 1,21, 0, 9,40.00,50.00,WinterDesignDay
250,18.05159587462147
251,10001863.92744733
336,0.0
385,18.093616181303343
386,25.055831616563424
387,-17.663203455217797
388,0.0
425,0.0
450,0.0
451,0.0
452,-18.357850358510433
453,0.0
490,0.0
515,0.0
516,0.0
542,0.0
592,0.0
632,9856728.532794401
686,1.0
687,1.0
688,2.0
2,1, 1,21, 0, 9,50.00,60.00,WinterDesignDay
250,17.148204511475956
251,8510715.592567634
336,0.0
385,17.093616181303318
386,25.05583161656339
387,-17.663394549796752
388,0.0
425,0.0
450,0.0
451,0.0
452,-18.35793910297462
453,0.0
490,0.0
515,0.0
516,0.0
542,0.0
592,0.0
632,8510004.431336531
686,0.6666666666666657
687,0.5302412723599154
688,1.3333333333333315
2,1, 1,21, 0,10, 0.00,10.00,WinterDesignDay
250,17.569589698445036
251,8813674.766437838
336,0.0
385,17.593616181303343
386,25.055831616563424
387,-17.66361053006102
388,0.0
425,0.0
450,0.0
451,0.0
452,-18.35830697991705
453,0.0
490,0.0
515,0.0
516,0.0
542,0.0
592,0.0
632,8656648.871745566
686,1.0
687,1.0
688,2.0
2,1, 1,21, 0,10,10.00,20.00,WinterDesignDay
250,18.043048995203783
251,9876369.767558856
336,0.0
385,18.093616181303343
386,25.055831616563424
387,-17.663741866424914
388,0.0
425,0.0
450,0.0
451,0.0
452,-18.358691430393833
453,0.0
490,0.0
515,0.0
516,0.0
542,0.0
592,0.0
632,9754301.451437568
686,1.0
687,1.0
688,2.0
2,1, 1,21, 0,10,20.00,30.00,WinterDesignDay
250,17.158280733111777
251,8438236.92367476
336,0.0
385,17.093616181303357
386,25.055831616563445
387,-17.663726562468707
388,0.0
425,0.0
450,0.0
451,0.0
452,-18.358842233028962
453,0.0
490,0.0
515,0.0
516,0.0
542,0.0
592,0.0
632,8490712.785559008
686,0.6173489777403111
687,0.5000000000000004
688,1.1666666666666676
2,1, 1,21, 0,10,30.00,40.00,WinterDesignDay
250,17.46224504529026
251,6617164.047393015
336,0.0
385,17.42694951463669
386,25.05583161656344
387,-17.663603569793832
388,0.0
425,0.0
450,0.0
451,0.0
452,-18.35875566854109
453,0.0
490,0.0
515,0.0
516,0.0
542,0.0
592,0.0
632,6210953.532569916
686,1.0000000000000009
687,1.0000000000000009
688,2.0000000000000018
2,1, 1,21, 0,10,40.00,50.00,WinterDesignDay
250,17.657961148639814
251,5060728.769199368
336,0.0
385,18.093616181303343
386,25.055831616563424
387,-17.663376319278175
388,0.0
425,0.0
450,0.0
451,0.0
452,-18.35839163525153
453,0.0
490,0.0
515,0.0
516,0.0
542,0.0
592,0.0
632,5511701.069539577
686,1.0
687,1.0
688,2.0
2,1, 1,21, 0,10,50.00,60.00,WinterDesignDay
250,18.051598120991763
251,10003389.289818835
336,0.0
385,18.093616181303343
386,25.055831616563424
387,-17.663314602833218
388,0.0
425,0.0
450,0.0
451,0.0
452,-18.358042821150825
453,0.0
490,0.0
515,0.0
516,0.0
542,0.0
592,0.0
632,9858250.273096202
686,1.0
687,1.0
688,2.0
2,1, 1,21, 0,11, 0.00,10.00,WinterDesignDay
250,17.148037658547324
251,8511800.252671054
336,0.0
385,17.09361618130334
386,25.055831616563424
387,-17.663494748157355
388,0.0
425,0.0
450,0.0
451,0.0
452,-18.358107206431438
453,0.0
490,0.0
515,0.0
516,0.0
542,0.0
592,0.0
632,8510121.19257316
686,0.6666666666666666
687,0.5347584198019795
688,1.3333333333333333
2,1, 1,21, 0,11,10.00,20.00,WinterDesignDay
250,17.56958515411774
251,8815094.474306501
336,0.0
385,17.593616181303343
386,25.055831616563424
387,-17.663700919581338
388,0.0
425,0.0
450,0.0
451,0.0
452,-18.358453433094223
453,0.0
490,0.0
515,0.0
516,0.0
542,0.0
592,0.0
632,8658091.159341604
686,1.0
687,1.0
688,2.0
2,1, 1,21, 0,11,20.00,30.00,WinterDesignDay
250,18.043049417832243
251,9877619.542360567
336,0.0
385,18.093616181303343
386,25.055831616563424
387,-17.663822984382826
388,0.0
425,0.0
450,0.0
451,0.0
452,-18.35881802794563
453,0.0
490,0.0
515,0.0
516,0.0
542,0.0
592,0.0
632,9755552.519686539
686,1.0
687,1.0
688,2.0
2,1, 1,21, 0,11,30.00,40.00,WinterDesignDay
250,17.158138562267595
251,8439144.368517727
336,0.0
385,17.093616181303332
386,25.055831616563406
387,-17.663800361698556
388,0.0
425,0.0
450,0.0
451,0.0
452,-18.358953397272092
453,0.0
490,0.0
515,0.0
516,0.0
542,0.0
592,0.0
632,8490781.787721995
686,0.6182259828268194
687,0.49999999999999967
688,1.166666666666666
2,1, 1,21, 0,11,40.00,50.00,WinterDesignDay
250,17.462237897511176
251,6618356.646529842
336,0.0
385,17.42694951463669
386,25.05583161656344
387,-17.663670802678872
388,0.0
425,0.0
450,0.0
451,0.0
452,-18.35885344926089
453,0.0
490,0.0
515,0.0
516,0.0
542,0.0
592,0.0
632,6212171.076890091
686,1.0000000000000009
687,1.0000000000000009
688,2.0000000000000018
2,1, 1,21, 0,11,50.00,60.00,WinterDesignDay
250,17.657970610541188
251,5061721.097802124
336,0.0
385,18.093616181303343
386,25.055831616563424
387,-17.66343666468464
388,0.0
425,0.0
450,0.0
451,0.0
452,-18.35847601229281
453,0.0
490,0.0
515,0.0
516,0.0
542,0.0
592,0.0
632,5512699.861343159
686,1.0
687,1.0
688,2.0
2,1, 1,21, 0,12, 0.00,10.00,WinterDesignDay
250,18.051599617609174
251,10004430.820062403
336,0.0
385,18.093616181303343
386,25.055831616563424
387,-17.663369729501483
388,0.0
425,0.0
450,0.0
451,0.0
452,-18.358117357319323
453,0.0
490,0.0
515,0.0
516,0.0
542,0.0
592,0.0
632,9859289.405314049
686,1.0
687,1.0
688,2.0
2,1, 1,21, 0,12,10.00,20.00,WinterDesignDay
250,17.147922428594097
251,8512549.445481544
336,0.0
385,17.093616181303343
386,25.055831616563424
387,-17.663546245244074
388,0.0
425,0.0
450,0.0
451,0.0
452,-18.358174929962694
453,0.0
490,0.0
515,0.0
516,0.0
542,0.0
592,0.0
632,8510201.654011337
686,0.6666666666666667
687,0.5378808415031207
688,1.3333333333333335
2,1, 1,21, 0,12,20.00,30.00,WinterDesignDay
250,17.56958201517736
251,8816083.013403304
336,0.0
385,17.593616181303343
386,25.055831616563424
387,-17.663749154622906
388,0.0
425,0.0
450,0.0
451,0.0
452,-18.358515031088483
453,0.0
490,0.0
515,0.0
516,0.0
542,0.0
592,0.0
632,8659095.291574186
686,1.0
687,1.0
688,2.0
2,1, 1,21, 0,12,30.00,40.00,WinterDesignDay
250,18.043049712040386
251,9878496.949022114
336,0.0
385,18.093616181303343
386,25.055831616563424
387,-17.66386810886588
388,0.0
425,0.0
450,0.0
451,0.0
452,-18.358873908364977
453,0.0
490,0.0
515,0.0
516,0.0
542,0.0
592,0.0
632,9756430.820064317
686,1.0
687,1.0
688,2.0
2,1, 1,21, 0,12,40.00,50.00,WinterDesignDay
250,17.158038091294884
251,8439785.779663615
336,0.0
385,17.093616181303318
386,25.05583161656339
387,-17.663842990753874
388,0.0
425,0.0
450,0.0
451,0.0
452,-18.35900469201805
453,0.0
490,0.0
515,0.0
516,0.0
542,0.0
592,0.0
632,8490830.460929358
686,0.6188462376398567
687,0.49999999999999933
688,1.166666666666665
2,1, 1,21, 0,12,50.00,60.00,WinterDesignDay
250,17.462232847489357
251,6619203.76733391
336,0.0
385,17.42694951463669
386,25.05583161656344
387,-17.66371115090048
388,0.0
425,0.0
450,0.0
451,0.0
452,-18.358900645993472
453,0.0
490,0.0
515,0.0
516,0.0
542,0.0
592,0.0
632,6213035.828113193
686,1.0000000000000009
687,1.0000000000000009
688,2.0000000000000018
2,1, 1,21, 0,13, 0.00,10.00,WinterDesignDay
250,17.657977281321372
251,5062429.841601639
336,0.0
385,18.093616181303343
386,25.055831616563424
387,-17.66347456964403
388,0.0
425,0.0
450,0.0
451,0.0
452,-18.358518955247877
453,0.0
490,0.0
515,0.0
516,0.0
542,0.0
592,0.0
632,5513413.158540047
686,1.0
687,1.0
688,2.0
2,1, 1,21, 0,13,10.00,20.00,WinterDesignDay
250,18.051600674813702
251,10005177.30366665
336,0.0
385,18.093616181303343
386,25.055831616563424
387,-17.663405733094738
388,0.0
425,0.0
450,0.0
451,0.0
452,-18.358157040163803
453,0.0
490,0.0
515,0.0
516,0.0
542,0.0
592,0.0
632,9860034.198530978
686,1.0
687,1.0
688,2.0
2,1, 1,21, 0,13,20.00,30.00,WinterDesignDay
250,17.147839506421946
251,8513088.64830499
336,0.0
385,17.093616181303357
386,25.055831616563445
387,-17.663580868636625
388,0.0
425,0.0
450,0.0
451,0.0
452,-18.35821221992095
453,0.0
490,0.0
515,0.0
516,0.0
542,0.0
592,0.0
632,8510259.445387911
686,0.6666666666666672
687,0.5401293724896437
688,1.3333333333333344
2,1, 1,21, 0,13,30.00,40.00,WinterDesignDay
250,17.569579755360056
251,8816796.494872464
336,0.0
385,17.593616181303343
386,25.055831616563424
387,-17.663782491852793
388,0.0
425,0.0
450,0.0
451,0.0
452,-18.358550086263588
453,0.0
490,0.0
515,0.0
516,0.0
542,0.0
592,0.0
632,8659819.993314022
686,1.0
687,1.0
688,2.0
2,1, 1,21, 0,13,40.00,50.00,WinterDesignDay
250,18.04304992121547
251,9879132.186127197
336,0.0
385,18.093616181303343
386,25.055831616563424
387,-17.663900175041242
388,0.0
425,0.0
450,0.0
451,0.0
452,-18.35890678978594
453,0.0
490,0.0
515,0.0
516,0.0
542,0.0
592,0.0
632,9757066.700255038
686,1.0
687,1.0
688,2.0
2,1, 1,21, 0,13,50.00,60.00,WinterDesignDay
250,17.15796513179395
251,8440251.617573142
336,0.0
385,17.093616181303318
386,25.05583161656339
387,-17.66387398726935
388,0.0
425,0.0
450,0.0
451,0.0
452,-18.359035725390857
453,0.0
490,0.0
515,0.0
516,0.0
542,0.0
592,0.0
632,8490865.684833148
686,0.6192969708208151
687,0.49999999999999933
688,1.166666666666665
2,1, 1,21, 0,14, 0.00,10.00,WinterDesignDay
250,17.56985612265513
251,8750931.670584263
336,0.0
385,17.593616181303343
386,25.055831616563424
387,-17.663740372237257
388,0.0
425,0.0
450,0.0
451,0.0
452,-18.35892486479789
453,0.0
490,0.0
515,0.0
516,0.0
542,0.0
592,0.0
632,8592585.274066092
686,1.0
687,1.0
688,2.0
2,1, 1,21, 0,14,10.00,20.00,WinterDesignDay
250,18.043039194535904
251,9837005.64354
336,0.0
385,18.093616181303343
386,25.055831616563424
387,-17.663523285217714
388,0.0
425,0.0
450,0.0
451,0.0
452,-18.358617148338332
453,0.0
490,0.0
515,0.0
516,0.0
542,0.0
592,0.0
632,9714863.354458034
686,1.0
687,1.0
688,2.0
2,1, 1,21, 0,14,20.00,30.00,WinterDesignDay
250,17.16173340691908
251,8416255.170248337
336,0.0
385,17.093616181303357
386,25.055831616563445
387,-17.663273617599078
388,0.0
425,0.0
450,0.0
451,0.0
452,-18.35811861225713
453,0.0
490,0.0
515,0.0
516,0.0
542,0.0
592,0.0
632,8488852.9118977
686,0.5964201637456974
687,0.5000000000000004
688,1.1666666666666676
2,1, 1,21, 0,14,30.00,40.00,WinterDesignDay
250,17.462418640356944
251,6593616.2719431855
336,0.0
385,17.42694951463669
386,25.05583161656344
387,-17.66299457247964
388,0.0
425,0.0
450,0.0
451,0.0
452,-18.357534102731552
453,0.0
490,0.0
515,0.0
516,0.0
542,0.0
592,0.0
632,6186799.887751904
686,1.0000000000000009
687,1.0000000000000009
688,2.0000000000000018
2,1, 1,21, 0,14,40.00,50.00,WinterDesignDay
250,17.65778004785518
251,5045584.280653346
336,0.0
385,18.093616181303343
386,25.055831616563424
387,-17.66266387292058
388,0.0
425,0.0
450,0.0
451,0.0
452,-18.35680269541157
453,0.0
490,0.0
515,0.0