Program Version,EnergyPlus, Version 24.2.0-94a887817b, YMD=2025.01.22 00:03
1,5,Environment Title[],Latitude[deg],Longitude[deg],Time Zone[],Elevation[m]
2,8,Day of Simulation[],Month[],Day of Month[],DST Indicator[1=yes 0=no],Hour[],StartMinute[],EndMinute[],DayType
3,5,Cumulative Day of Simulation[],Month[],Day of Month[],DST Indicator[1=yes 0=no],DayType  ! When Daily Meters Requested
4,2,Cumulative Days of Simulation[],Month[]  ! When Monthly Meters Requested
5,1,Cumulative Days of Simulation[] ! When Run Period Meters Requested
6,1,Calendar Year of Simulation[] ! When Annual Meters Requested
11,9,Electricity:Facility [J] !Monthly [Value,Min,Day,Hour,Minute,Max,Day,Hour,Minute]
23,9,Electricity:Building [J] !Monthly [Value,Min,Day,Hour,Minute,Max,Day,Hour,Minute]
59,9,InteriorLights:Electricity [J] !Monthly [Value,Min,Day,Hour,Minute,Max,Day,Hour,Minute]
521,9,Electricity:HVAC [J] !Monthly [Value,Min,Day,Hour,Minute,Max,Day,Hour,Minute]
637,9,NaturalGas:Facility [J] !Monthly [Value,Min,Day,Hour,Minute,Max,Day,Hour,Minute]
649,9,NaturalGas:HVAC [J] !Monthly [Value,Min,Day,Hour,Minute,Max,Day,Hour,Minute]
13,11,Electricity:Facility [J] !RunPeriod [Value,Min,Month,Day,Hour,Minute,Max,Month,Day,Hour,Minute]
25,11,Electricity:Building [J] !RunPeriod [Value,Min,Month,Day,Hour,Minute,Max,Month,Day,Hour,Minute]
61,11,InteriorLights:Electricity [J] !RunPeriod [Value,Min,Month,Day,Hour,Minute,Max,Month,Day,Hour,Minute]
523,11,Electricity:HVAC [J] !RunPeriod [Value,Min,Month,Day,Hour,Minute,Max,Month,Day,Hour,Minute]
639,11,NaturalGas:Facility [J] !RunPeriod [Value,Min,Month,Day,Hour,Minute,Max,Month,Day,Hour,Minute]
651,11,NaturalGas:HVAC [J] !RunPeriod [Value,Min,Month,Day,Hour,Minute,Max,Month,Day,Hour,Minute]
End of Data Dictionary
1,RUN PERIOD 1,  41.98, -87.92,  -6.00, 201.00
4,31, 1
11,9831607162.382608,408891.4285714286, 5, 6,50,2985674.0087318653,16,13,60
23,992557061.1516291,30000.0, 1, 1,10,616200.7689504405, 1, 9,10
59,970200000.0,30000.0, 1, 1,10,600000.0, 1, 8,10
521,8839050101.230986,378891.4285714286, 5, 6,50,2369473.239781425,16,13,60
637,179059879657.86288,28275155.245319735,21,16,10,41250000.0, 1, 1,10
649,179059879657.86288,28275155.245319735,21,16,10,41250000.0, 1, 1,10
4,59, 2
11,9363977043.804405,99999999999999.0, 5, 6,50,3027135.448994987,22,15,30
23,867600922.7405461,99999999999999.0, 1, 1,10,-99999999999999.0, 1, 9,10
59,848160000.0,99999999999999.0, 1, 1,10,-99999999999999.0, 1, 8,10
521,8496376121.063895,99999999999999.0, 5, 6,50,2410934.680044547,22,15,30
637,158455833416.20584,26585866.509028263,23,12,10,-99999999999999.0, 1, 1,10
649,158455833416.20584,26585866.509028263,23,12,10,-99999999999999.0, 1, 1,10
4,90, 3
11,10830605458.458748,30000.0,26,19,10,3029329.1554068406,26,14,50
23,917892968.8775738,99999999999999.0, 1, 1,10,-99999999999999.0, 1, 9,10
59,897480000.0,99999999999999.0, 1, 1,10,-99999999999999.0, 1, 8,10
521,9912712489.581198,0.0,19,17,10,2413128.3864564,26,14,50
637,161126699357.2819,0.0,19,17,10,-99999999999999.0, 1, 1,10
649,161126699357.2819,0.0,19,17,10,-99999999999999.0, 1, 1,10
4,120, 4
11,8860783742.790863,99999999999999.0,26,19,10,3030055.460396733,10,15,40
23,950905015.0146013,99999999999999.0, 1, 1,10,-99999999999999.0, 1, 9,10
59,929520000.0,99999999999999.0, 1, 1,10,-99999999999999.0, 1, 8,10
521,7909878727.776284,99999999999999.0,19,17,10,2413854.6914462927,10,15,40
637,115194591835.23827,99999999999999.0,19,17,10,-99999999999999.0, 1, 1,10
649,115194591835.23827,99999999999999.0,19,17,10,-99999999999999.0, 1, 1,10
4,151, 5
11,7261090177.682371,99999999999999.0,26,19,10,3037368.569700782,13,12,60
23,992818565.058589,99999999999999.0, 1, 1,10,632117.6966473724,28,13,10
59,970200000.0,99999999999999.0, 1, 1,10,-99999999999999.0, 1, 8,10
521,6268271612.623784,99999999999999.0,19,17,10,2421167.8007503417,11,13,60
637,78724399253.97617,99999999999999.0,19,17,10,-99999999999999.0, 1, 1,10
649,78724399253.97617,99999999999999.0,19,17,10,-99999999999999.0, 1, 1,10
4,181, 6
11,4024396219.896355,99999999999999.0,26,19,10,-99999999999999.0,13,12,60
23,876327247.736083,99999999999999.0, 1, 1,10,-99999999999999.0,28,13,10
59,856800000.0,99999999999999.0, 1, 1,10,-99999999999999.0, 1, 8,10
521,3148068972.1602654,99999999999999.0,19,17,10,-99999999999999.0,11,13,60
637,21994142894.802105,99999999999999.0,19,17,10,-99999999999999.0, 1, 1,10
649,21994142894.802105,99999999999999.0,19,17,10,-99999999999999.0, 1, 1,10
4,212, 7
11,3645478159.6441545,99999999999999.0,26,19,10,-99999999999999.0,13,12,60
23,992829426.0365055,99999999999999.0, 1, 1,10,-99999999999999.0,28,13,10
59,970200000.0,99999999999999.0, 1, 1,10,-99999999999999.0, 1, 8,10
521,2652648733.6076574,99999999999999.0,19,17,10,-99999999999999.0,11,13,60
637,2595623142.0775385,99999999999999.0,19,17,10,-99999999999999.0, 1, 1,10
649,2595623142.0775385,99999999999999.0,19,17,10,-99999999999999.0, 1, 1,10
4,243, 8
11,2415778748.731222,99999999999999.0,26,19,10,-99999999999999.0,13,12,60
23,955503521.360663,99999999999999.0, 1, 1,10,632263.0720058186,12,14,10
59,933840000.0,99999999999999.0, 1, 1,10,-99999999999999.0, 1, 8,10
521,1460275227.3705552,99999999999999.0,19,17,10,-99999999999999.0,11,13,60
637,8530569912.246479,99999999999999.0,19,17,10,-99999999999999.0, 1, 1,10
649,8530569912.246479,99999999999999.0,19,17,10,-99999999999999.0, 1, 1,10
4,273, 9
11,4480686228.755145,99999999999999.0,26,19,10,-99999999999999.0,13,12,60
23,913572968.8775738,99999999999999.0, 1, 1,10,-99999999999999.0,12,14,10
59,893160000.0,99999999999999.0, 1, 1,10,-99999999999999.0, 1, 8,10
521,3567113259.877573,99999999999999.0,19,17,10,-99999999999999.0,11,13,60
637,40765560207.91983,99999999999999.0,19,17,10,-99999999999999.0, 1, 1,10
649,40765560207.91983,99999999999999.0,19,17,10,-99999999999999.0, 1, 1,10
4,304,10
11,9860232756.416664,99999999999999.0,26,19,10,-99999999999999.0,13,12,60
23,992557061.1516291,99999999999999.0, 1, 1,10,-99999999999999.0,12,14,10
59,970200000.0,99999999999999.0, 1, 1,10,-99999999999999.0, 1, 8,10
521,8867675695.26511,99999999999999.0,19,17,10,-99999999999999.0,11,13,60
637,121753444479.47453,99999999999999.0,19,17,10,-99999999999999.0, 1, 1,10
649,121753444479.47453,99999999999999.0,19,17,10,-99999999999999.0, 1, 1,10
4,334,11
11,9762614138.790676,99999999999999.0,26,19,10,-99999999999999.0,13,12,60
23,913572968.8775738,99999999999999.0, 1, 1,10,-99999999999999.0,12,14,10
59,893160000.0,99999999999999.0, 1, 1,10,-99999999999999.0, 1, 8,10
521,8849041169.913122,99999999999999.0,19,17,10,-99999999999999.0,11,13,60
637,140611309733.00723,99999999999999.0,19,17,10,-99999999999999.0, 1, 1,10
649,140611309733.00723,99999999999999.0,19,17,10,-99999999999999.0, 1, 1,10
4,365,12
11,10444175635.398386,99999999999999.0,26,19,10,-99999999999999.0,13,12,60
23,955225015.0146016,99999999999999.0, 1, 1,10,-99999999999999.0,12,14,10
59,933840000.0,99999999999999.0, 1, 1,10,-99999999999999.0, 1, 8,10
521,9488950620.383821,99999999999999.0,19,17,10,-99999999999999.0,11,13,60
637,179901391240.36444,99999999999999.0,19,17,10,-99999999999999.0, 1, 1,10
649,179901391240.36444,99999999999999.0,19,17,10,-99999999999999.0, 1, 1,10
5,365
13,90781425472.76054,30000.0, 3,26,19,10,3037368.569700782, 5,13,12,60
25,11321362741.894062,30000.0, 1, 1, 1,10,632263.0720058186, 8,12,14,10
61,11066760000.0,30000.0, 1, 1, 1,10,600000.0, 1, 1, 8,10
523,79460062730.85721,0.0, 3,19,17,10,2421167.8007503417, 5,11,13,60
639,1208713445130.4558,0.0, 3,19,17,10,41250000.0, 1, 1, 1,10
651,1208713445130.4558,0.0, 3,19,17,10,41250000.0, 1, 1, 1,10
1,RUN PERIOD 2,  41.98, -87.92,  -6.00, 201.00
4,1, 7
11,84901613.67911868,99999999999999.0,26,19,10,-99999999999999.0,13,12,60
23,41652046.1370264,99999999999999.0, 1, 1,10,-99999999999999.0,12,14,10
59,40680000.0,99999999999999.0, 1, 1,10,-99999999999999.0, 1, 8,10
521,43249567.542092144,99999999999999.0,19,17,10,-99999999999999.0,11,13,60
637,0.0,99999999999999.0,19,17,10,-99999999999999.0, 1, 1,10
649,0.0,99999999999999.0,19,17,10,-99999999999999.0, 1, 1,10
5,1
13,84901613.67911868,99999999999999.0, 3,26,19,10,-99999999999999.0, 5,13,12,60
25,41652046.1370264,99999999999999.0, 1, 1, 1,10,-99999999999999.0, 8,12,14,10
61,40680000.0,99999999999999.0, 1, 1, 1,10,-99999999999999.0, 1, 1, 8,10
523,43249567.542092144,99999999999999.0, 3,19,17,10,-99999999999999.0, 5,11,13,60
639,0.0,99999999999999.0, 3,19,17,10,-99999999999999.0, 1, 1, 1,10
651,0.0,99999999999999.0, 3,19,17,10,-99999999999999.0, 1, 1, 1,10
End of Data
 Number of Records Written=          90
