Program Version,EnergyPlus, Version 24.2.0-94a887817b, YMD=2025.01.30 20:34
1,5,Environment Title[],Latitude[deg],Longitude[deg],Time Zone[],Elevation[m]
2,8,Day of Simulation[],Month[],Day of Month[],DST Indicator[1=yes 0=no],Hour[],StartMinute[],EndMinute[],DayType
3,5,Cumulative Day of Simulation[],Month[],Day of Month[],DST Indicator[1=yes 0=no],DayType  ! When Daily Meters Requested
4,2,Cumulative Days of Simulation[],Month[]  ! When Monthly Meters Requested
5,1,Cumulative Days of Simulation[] ! When Run Period Meters Requested
6,1,Calendar Year of Simulation[] ! When Annual Meters Requested
11,9,Electricity:Facility [J] !Monthly [Value,Min,Day,Hour,Minute,Max,Day,Hour,Minute]
23,9,Electricity:Building [J] !Monthly [Value,Min,Day,Hour,Minute,Max,Day,Hour,Minute]
59,9,InteriorLights:Electricity [J] !Monthly [Value,Min,Day,Hour,Minute,Max,Day,Hour,Minute]
521,9,Electricity:HVAC [J] !Monthly [Value,Min,Day,Hour,Minute,Max,Day,Hour,Minute]
637,9,NaturalGas:Facility [J] !Monthly [Value,Min,Day,Hour,Minute,Max,Day,Hour,Minute]
649,9,NaturalGas:HVAC [J] !Monthly [Value,Min,Day,Hour,Minute,Max,Day,Hour,Minute]
13,11,Electricity:Facility [J] !RunPeriod [Value,Min,Month,Day,Hour,Minute,Max,Month,Day,Hour,Minute]
25,11,Electricity:Building [J] !RunPeriod [Value,Min,Month,Day,Hour,Minute,Max,Month,Day,Hour,Minute]
61,11,InteriorLights:Electricity [J] !RunPeriod [Value,Min,Month,Day,Hour,Minute,Max,Month,Day,Hour,Minute]
523,11,Electricity:HVAC [J] !RunPeriod [Value,Min,Month,Day,Hour,Minute,Max,Month,Day,Hour,Minute]
639,11,NaturalGas:Facility [J] !RunPeriod [Value,Min,Month,Day,Hour,Minute,Max,Month,Day,Hour,Minute]
651,11,NaturalGas:HVAC [J] !RunPeriod [Value,Min,Month,Day,Hour,Minute,Max,Month,Day,Hour,Minute]
End of Data Dictionary
1,RUN PERIOD 1,  41.98, -87.92,  -6.00, 201.00
4,31, 1
11,6112264326.6148,150000.0, 5,14,40,3254690.933365558,14, 9,60
23,1615751849.1808288,30000.0, 1, 2,60,1028104.0256016606, 7,10,50
59,970200000.0,30000.0, 1, 1,10,600000.0, 1, 8,10
521,4496512477.43395,0.0,16,15,60,2266381.014751246,12,22,20
637,13110512080.398264,0.0, 1, 3,30,20643451.552439786,27, 8,10
649,13110512080.398264,0.0, 1, 3,30,20643451.552439786,27, 8,10
4,59, 2
11,4856449978.653554,30000.0,23, 8,20,-99999999999999.0,14, 9,60
23,1380257384.9798217,99999999999999.0, 1, 2,60,-99999999999999.0, 7,10,50
59,848160000.0,99999999999999.0, 1, 1,10,-99999999999999.0, 1, 8,10
521,3476192593.6737804,99999999999999.0,16,15,60,2289069.448978774, 3, 8,60
637,7624178577.686107,99999999999999.0, 1, 3,30,-99999999999999.0,27, 8,10
649,7624178577.686107,99999999999999.0, 1, 3,30,-99999999999999.0,27, 8,10
4,90, 3
11,3732674807.2846804,99999999999999.0,23, 8,20,-99999999999999.0,14, 9,60
23,1451051831.304461,99999999999999.0, 1, 2,60,-99999999999999.0, 7,10,50
59,897480000.0,99999999999999.0, 1, 1,10,-99999999999999.0, 1, 8,10
521,2281622975.98024,99999999999999.0,16,15,60,-99999999999999.0, 3, 8,60
637,2805559431.1619844,99999999999999.0, 1, 3,30,-99999999999999.0,27, 8,10
649,2805559431.1619844,99999999999999.0, 1, 3,30,-99999999999999.0,27, 8,10
4,120, 4
11,2951979065.484623,99999999999999.0,23, 8,20,-99999999999999.0,14, 9,60
23,1478807668.8799093,99999999999999.0, 1, 2,60,-99999999999999.0, 7,10,50
59,929520000.0,99999999999999.0, 1, 1,10,-99999999999999.0, 1, 8,10
521,1473171396.604719,99999999999999.0,16,15,60,-99999999999999.0, 3, 8,60
637,1258168243.2180846,99999999999999.0, 1, 3,30,-99999999999999.0,27, 8,10
649,1258168243.2180846,99999999999999.0, 1, 3,30,-99999999999999.0,27, 8,10
4,151, 5
11,2320901629.4260335,99999999999999.0,23, 8,20,-99999999999999.0,14, 9,60
23,1598849123.4383233,99999999999999.0, 1, 2,60,-99999999999999.0, 7,10,50
59,970200000.0,99999999999999.0, 1, 1,10,-99999999999999.0, 1, 8,10
521,722052505.9877207,99999999999999.0,16,15,60,-99999999999999.0, 3, 8,60
637,26266262.79349374,99999999999999.0, 1, 3,30,-99999999999999.0,27, 8,10
649,26266262.79349374,99999999999999.0, 1, 3,30,-99999999999999.0,27, 8,10
4,181, 6
11,2818000438.912121,99999999999999.0,23, 8,20,-99999999999999.0,14, 9,60
23,1407726107.7873158,99999999999999.0, 1, 2,60,-99999999999999.0, 7,10,50
59,856800000.0,99999999999999.0, 1, 1,10,-99999999999999.0, 1, 8,10
521,1410274331.1248145,99999999999999.0,16,15,60,-99999999999999.0, 3, 8,60
637,0.0,99999999999999.0, 1, 3,30,-99999999999999.0,27, 8,10
649,0.0,99999999999999.0, 1, 3,30,-99999999999999.0,27, 8,10
4,212, 7
11,3782364391.389858,99999999999999.0,23, 8,20,-99999999999999.0,14, 9,60
23,1508838699.2482233,99999999999999.0, 1, 2,60,-99999999999999.0, 7,10,50
59,970200000.0,99999999999999.0, 1, 1,10,-99999999999999.0, 1, 8,10
521,2273525692.141662,99999999999999.0,16,15,60,-99999999999999.0, 3, 8,60
637,0.0,99999999999999.0, 1, 3,30,-99999999999999.0,27, 8,10
649,0.0,99999999999999.0, 1, 3,30,-99999999999999.0,27, 8,10
4,243, 8
11,3023028708.415574,99999999999999.0,23, 8,20,-99999999999999.0,14, 9,60
23,1519366704.4524415,99999999999999.0, 1, 2,60,-99999999999999.0, 7,10,50
59,933840000.0,99999999999999.0, 1, 1,10,-99999999999999.0, 1, 8,10
521,1503662003.963141,99999999999999.0,16,15,60,-99999999999999.0, 3, 8,60
637,0.0,99999999999999.0, 1, 3,30,-99999999999999.0,27, 8,10
649,0.0,99999999999999.0, 1, 3,30,-99999999999999.0,27, 8,10
4,273, 9
11,2289626560.2151613,99999999999999.0,23, 8,20,-99999999999999.0,14, 9,60
23,1484880402.771526,99999999999999.0, 1, 2,60,-99999999999999.0, 7,10,50
59,893160000.0,99999999999999.0, 1, 1,10,-99999999999999.0, 1, 8,10
521,804746157.4436426,99999999999999.0,16,15,60,-99999999999999.0, 3, 8,60
637,6161771.519814006,99999999999999.0, 1, 3,30,-99999999999999.0,27, 8,10
649,6161771.519814006,99999999999999.0, 1, 3,30,-99999999999999.0,27, 8,10
4,304,10
11,2125261800.8733437,99999999999999.0,23, 8,20,-99999999999999.0,14, 9,60
23,1567286065.283662,99999999999999.0, 1, 2,60,-99999999999999.0, 7,10,50
59,970200000.0,99999999999999.0, 1, 1,10,-99999999999999.0, 1, 8,10
521,557975735.5896786,99999999999999.0,16,15,60,-99999999999999.0, 3, 8,60
637,428529269.0243654,99999999999999.0, 1, 3,30,-99999999999999.0,27, 8,10
649,428529269.0243654,99999999999999.0, 1, 3,30,-99999999999999.0,27, 8,10
4,334,11
11,3855126728.9287467,99999999999999.0,23, 8,20,-99999999999999.0,14, 9,60
23,1440212217.638071,99999999999999.0, 1, 2,60,-99999999999999.0, 7,10,50
59,893160000.0,99999999999999.0, 1, 1,10,-99999999999999.0, 1, 8,10
521,2414914511.2907066,99999999999999.0,16,15,60,2293702.3559857267,22, 5,40
637,3741205706.5466967,99999999999999.0, 1, 3,30,-99999999999999.0,27, 8,10
649,3741205706.5466967,99999999999999.0, 1, 3,30,-99999999999999.0,27, 8,10
4,365,12
11,6491502865.922218,99999999999999.0,23, 8,20,-99999999999999.0,14, 9,60
23,1544853848.1962395,99999999999999.0, 1, 2,60,-99999999999999.0, 7,10,50
59,933840000.0,99999999999999.0, 1, 1,10,-99999999999999.0, 1, 8,10
521,4946649017.725969,99999999999999.0,16,15,60,2301201.3164107376,31, 1,40
637,9262759620.592571,99999999999999.0, 1, 3,30,-99999999999999.0,27, 8,10
649,9262759620.592571,99999999999999.0, 1, 3,30,-99999999999999.0,27, 8,10
5,365
13,44359181302.12226,30000.0, 2,23, 8,20,3254690.933365558, 1,14, 9,60
25,17997881903.161297,30000.0, 1, 1, 2,60,1028104.0256016606, 1, 7,10,50
61,11066760000.0,30000.0, 1, 1, 1,10,600000.0, 1, 1, 8,10
523,26361299398.95985,0.0, 1,16,15,60,2301201.3164107376,12,31, 1,40
639,38263340962.94138,0.0, 1, 1, 3,30,20643451.552439786, 1,27, 8,10
651,38263340962.94138,0.0, 1, 1, 3,30,20643451.552439786, 1,27, 8,10
1,RUN PERIOD 2,  41.98, -87.92,  -6.00, 201.00
4,1, 7
11,115304838.82520017,99999999999999.0,23, 8,20,-99999999999999.0,14, 9,60
23,63657525.295944184,99999999999999.0, 1, 2,60,-99999999999999.0, 7,10,50
59,40680000.0,99999999999999.0, 1, 1,10,-99999999999999.0, 1, 8,10
521,51647313.52925601,99999999999999.0,16,15,60,-99999999999999.0,31, 1,40
637,0.0,99999999999999.0, 1, 3,30,-99999999999999.0,27, 8,10
649,0.0,99999999999999.0, 1, 3,30,-99999999999999.0,27, 8,10
5,1
13,115304838.82520017,99999999999999.0, 2,23, 8,20,-99999999999999.0, 1,14, 9,60
25,63657525.295944184,99999999999999.0, 1, 1, 2,60,-99999999999999.0, 1, 7,10,50
61,40680000.0,99999999999999.0, 1, 1, 1,10,-99999999999999.0, 1, 1, 8,10
523,51647313.52925601,99999999999999.0, 1,16,15,60,-99999999999999.0,12,31, 1,40
639,0.0,99999999999999.0, 1, 1, 3,30,-99999999999999.0, 1,27, 8,10
651,0.0,99999999999999.0, 1, 1, 3,30,-99999999999999.0, 1,27, 8,10
End of Data
 Number of Records Written=          90
