Program Version,EnergyPlus, Version 24.1.0-9d7789a3ac, YMD=2024.06.19 21:16
1,5,Environment Title[],Latitude[deg],Longitude[deg],Time Zone[],Elevation[m]
2,8,Day of Simulation[],Month[],Day of Month[],DST Indicator[1=yes 0=no],Hour[],StartMinute[],EndMinute[],DayType
3,5,Cumulative Day of Simulation[],Month[],Day of Month[],DST Indicator[1=yes 0=no],DayType  ! When Daily Report Variables Requested
4,2,Cumulative Days of Simulation[],Month[]  ! When Monthly Report Variables Requested
5,1,Cumulative Days of Simulation[] ! When Run Period Report Variables Requested
6,1,Calendar Year of Simulation[] ! When Annual Report Variables Requested
250,1,LIVING ZONE,Zone Air Temperature [C] !TimeStep,REPORTSCH
251,1,LIVING ZONE,Zone Air System Sensible Heating Energy [J] !TimeStep,REPORTSCH
336,1,LIVING ZONE,Zone Air System Sensible Cooling Energy [J] !TimeStep,REPORTSCH
385,1,LIVING ZONE,Zone Thermostat Heating Setpoint Temperature [C] !TimeStep,REPORTSCH
386,1,LIVING ZONE,Zone Thermostat Cooling Setpoint Temperature [C] !TimeStep,REPORTSCH
387,1,GARAGE ZONE,Zone Air Temperature [C] !TimeStep,REPORTSCH
388,1,GARAGE ZONE,Zone Air System Sensible Heating Energy [J] !TimeStep,REPORTSCH
425,1,GARAGE ZONE,Zone Air System Sensible Cooling Energy [J] !TimeStep,REPORTSCH
450,1,GARAGE ZONE,Zone Thermostat Heating Setpoint Temperature [C] !TimeStep,REPORTSCH
451,1,GARAGE ZONE,Zone Thermostat Cooling Setpoint Temperature [C] !TimeStep,REPORTSCH
452,1,ATTIC ZONE,Zone Air Temperature [C] !TimeStep,REPORTSCH
453,1,ATTIC ZONE,Zone Air System Sensible Heating Energy [J] !TimeStep,REPORTSCH
490,1,ATTIC ZONE,Zone Air System Sensible Cooling Energy [J] !TimeStep,REPORTSCH
515,1,ATTIC ZONE,Zone Thermostat Heating Setpoint Temperature [C] !TimeStep,REPORTSCH
516,1,ATTIC ZONE,Zone Thermostat Cooling Setpoint Temperature [C] !TimeStep,REPORTSCH
542,1,ACDXCOIL 1,Cooling Coil Total Cooling Energy [J] !TimeStep,REPORTSCH
592,1,HEAT PUMP DX HEATING COIL 1,Heating Coil Heating Energy [J] !TimeStep,REPORTSCH
632,1,SUPP HEATING COIL 1,Heating Coil Heating Energy [J] !TimeStep,REPORTSCH
686,1,TWOSPEED HEAT PUMP 1,Unitary System DX Coil Cycling Ratio [] !TimeStep,REPORTSCH
687,1,TWOSPEED HEAT PUMP 1,Unitary System DX Coil Speed Ratio [] !TimeStep,REPORTSCH
688,1,TWOSPEED HEAT PUMP 1,Unitary System DX Coil Speed Level [] !TimeStep
End of Data Dictionary
1,CHICAGO_IL_USA ANNUAL HEATING 99% DESIGN CONDITIONS DB,  41.98, -87.92,  -6.00, 201.00
2,1, 1,21, 0, 1, 0.00,10.00,WinterDesignDay
250,16.724518467000248
251,5776952.207790672
336,0.0
385,16.770520345741268
386,27.880721818198605
387,-17.695242496854874
388,0.0
425,0.0
450,0.0
451,0.0
452,-18.397164650149193
453,0.0
490,0.0
515,0.0
516,0.0
542,0.0
592,0.0
632,5687083.304174361
686,1.0
687,1.0
688,2.0
2,1, 1,21, 0, 1,10.00,20.00,WinterDesignDay
250,16.874577183171652
251,4231607.0632161405
336,0.0
385,16.770520345741268
386,27.8807218181986
387,-17.695268257610547
388,0.0
425,0.0
450,0.0
451,0.0
452,-18.39714253857627
453,0.0
490,0.0
515,0.0
516,0.0
542,0.0
592,0.0
632,4184329.164098407
686,0.6666666666666667
687,0.6666666666666667
688,1.3333333333333335
2,1, 1,21, 0, 1,20.00,30.00,WinterDesignDay
250,16.460935320018628
251,4156956.776138555
336,0.0
385,16.237187012407933
386,27.880721818198605
387,-17.695268920485237
388,0.0
425,0.0
450,0.0
451,0.0
452,-18.397193698079498
453,0.0
490,0.0
515,0.0
516,0.0
542,0.0
592,0.0
632,4161424.6600695257
686,0.6000000000000001
687,0.6000000000000001
688,1.2000000000000002
2,1, 1,21, 0, 1,30.00,40.00,WinterDesignDay
250,16.72451846686978
251,5776952.2422610875
336,0.0
385,16.77052034574128
386,27.880721818198623
387,-17.69524600079589
388,0.0
425,0.0
450,0.0
451,0.0
452,-18.397165032862375
453,0.0
490,0.0
515,0.0
516,0.0
542,0.0
592,0.0
632,5687083.339177591
686,1.0000000000000009
687,1.0000000000000009
688,2.0000000000000018
2,1, 1,21, 0, 1,40.00,50.00,WinterDesignDay
250,16.874577180309036
251,4231607.085704582
336,0.0
385,16.77052034574128
386,27.880721818198623
387,-17.695271703689304
388,0.0
425,0.0
450,0.0
451,0.0
452,-18.39714291514785
453,0.0
490,0.0
515,0.0
516,0.0
542,0.0
592,0.0
632,4184329.186610979
686,0.6666666666666672
687,0.6666666666666672
688,1.3333333333333344
2,1, 1,21, 0, 1,50.00,60.00,WinterDesignDay
250,16.460935317165024
251,4156956.801019252
336,0.0
385,16.237187012407933
386,27.880721818198605
387,-17.695272327658767
388,0.0
425,0.0
450,0.0
451,0.0
452,-18.397194070264263
453,0.0
490,0.0
515,0.0
516,0.0
542,0.0
592,0.0
632,4161424.685814325
686,0.6000000000000001
687,0.6000000000000001
688,1.2000000000000002
2,1, 1,21, 0, 2, 0.00,10.00,WinterDesignDay
250,16.724518466744414
251,5776952.27537659
336,0.0
385,16.770520345741268
386,27.880721818198605
387,-17.6952493670773
388,0.0
425,0.0
450,0.0
451,0.0
452,-18.397165400533446
453,0.0
490,0.0
515,0.0
516,0.0
542,0.0
592,0.0
632,5687083.3728049705
686,1.0
687,1.0
688,2.0
2,1, 1,21, 0, 2,10.00,20.00,WinterDesignDay
250,16.8745771775589
251,4231607.107309183
336,0.0
385,16.770520345741268
386,27.8807218181986
387,-17.695275014382624
388,0.0
425,0.0
450,0.0
451,0.0
452,-18.397143276918797
453,0.0
490,0.0
515,0.0
516,0.0
542,0.0
592,0.0
632,4184329.2082387647
686,0.6666666666666667
687,0.6666666666666667
688,1.3333333333333335
2,1, 1,21, 0, 2,20.00,30.00,WinterDesignDay
250,16.460935314423583
251,4156956.824922069
336,0.0
385,16.237187012407933
386,27.880721818198605
387,-17.695275600974984
388,0.0
425,0.0
450,0.0
451,0.0
452,-18.397194427820896
453,0.0
490,0.0
515,0.0
516,0.0
542,0.0
592,0.0
632,4161424.710547283
686,0.6000000000000001
687,0.6000000000000001
688,1.2000000000000002
2,1, 1,21, 0, 2,30.00,40.00,WinterDesignDay
250,16.724518466623998
251,5776952.307190647
336,0.0
385,16.77052034574128
386,27.880721818198623
387,-17.69525260110718
388,0.0
425,0.0
450,0.0
451,0.0
452,-18.39716575375387
453,0.0
490,0.0
515,0.0
516,0.0
542,0.0
592,0.0
632,5687083.405110786
686,1.0000000000000009
687,1.0000000000000009
688,2.0000000000000018
2,1, 1,21, 0, 2,40.00,50.00,WinterDesignDay
250,16.874577174916887
251,4231607.128064647
336,0.0
385,16.77052034574128
386,27.880721818198623
387,-17.695278195007248
388,0.0
425,0.0
450,0.0
451,0.0
452,-18.39714362447106
453,0.0
490,0.0
515,0.0
516,0.0
542,0.0
592,0.0
632,4184329.2290165005
686,0.6666666666666672
687,0.6666666666666672
688,1.3333333333333344
2,1, 1,21, 0, 2,50.00,60.00,WinterDesignDay
250,16.460935311789886
251,4156956.8478854327
336,0.0
385,16.237187012407933
386,27.880721818198605
387,-17.69527874569097
388,0.0
425,0.0
450,0.0
451,0.0
452,-18.397194771324507
453,0.0
490,0.0
515,0.0
516,0.0
542,0.0
592,0.0
632,4161424.73430816
686,0.6000000000000001
687,0.6000000000000001
688,1.2000000000000002
2,1, 1,21, 0, 3, 0.00,10.00,WinterDesignDay
250,16.724518466508286
251,5776952.33775429
336,0.0
385,16.770520345741268
386,27.880721818198605
387,-17.695255708080385
388,0.0
425,0.0
450,0.0
451,0.0
452,-18.39716609309173
453,0.0
490,0.0
515,0.0
516,0.0
542,0.0
592,0.0
632,5687083.436146859
686,1.0
687,1.0
688,2.0
2,1, 1,21, 0, 3,10.00,20.00,WinterDesignDay
250,16.87457717237868
251,4231607.148004374
336,0.0
385,16.770520345741268
386,27.8807218181986
387,-17.695281250673396
388,0.0
425,0.0
450,0.0
451,0.0
452,-18.3971439583636
453,0.0
490,0.0
515,0.0
516,0.0
542,0.0
592,0.0
632,4184329.248977624
686,0.6666666666666667
687,0.6666666666666667
688,1.3333333333333335
2,1, 1,21, 0, 3,20.00,30.00,WinterDesignDay
250,16.460935309259703
251,4156956.8699462577
336,0.0
385,16.237187012407933
386,27.880721818198605
387,-17.695281766858958
388,0.0
425,0.0
450,0.0
451,0.0
452,-18.397195101327593
453,0.0
490,0.0
515,0.0
516,0.0
542,0.0
592,0.0
632,4161424.7571351533
686,0.6000000000000001
687,0.6000000000000001
688,1.2000000000000002
2,1, 1,21, 0, 3,30.00,40.00,WinterDesignDay
250,16.72451846639715
251,5776952.367116753
336,0.0
385,16.77052034574128
386,27.880721818198623
387,-17.695258692988332
388,0.0
425,0.0
450,0.0
451,0.0
452,-18.397166419092876
453,0.0
490,0.0
515,0.0
516,0.0
542,0.0
592,0.0
632,5687083.465963183
686,1.0000000000000009
687,1.0000000000000009
688,2.0000000000000018
2,1, 1,21, 0, 3,40.00,50.00,WinterDesignDay
250,16.87457716994026
251,4231607.167160409
336,0.0
385,16.77052034574128
386,27.880721818198623
387,-17.695284186290312
388,0.0
425,0.0
450,0.0
451,0.0
452,-18.397144279133496
453,0.0
490,0.0
515,0.0
516,0.0
542,0.0
592,0.0
632,4184329.268154215
686,0.6666666666666672
687,0.6666666666666672
688,1.3333333333333344
2,1, 1,21, 0, 3,50.00,60.00,WinterDesignDay
250,16.460935306828958
251,4156956.8911400912
336,0.0
385,16.237187012407933
386,27.880721818198605
387,-17.69528466933332
388,0.0
425,0.0
450,0.0
451,0.0
452,-18.397195418360937
453,0.0
490,0.0
515,0.0
516,0.0
542,0.0
592,0.0
632,4161424.779065044
686,0.6000000000000001
687,0.6000000000000001
688,1.2000000000000002
2,1, 1,21, 0, 4, 0.00,10.00,WinterDesignDay
250,16.72451846629036
251,5776952.395325163
336,0.0
385,16.770520345741268
386,27.880721818198605
387,-17.695261560627316
388,0.0
425,0.0
450,0.0
451,0.0
452,-18.39716673228158
453,0.0
490,0.0
515,0.0
516,0.0
542,0.0
592,0.0
632,5687083.49460762
686,1.0
687,1.0
688,2.0
2,1, 1,21, 0, 4,10.00,20.00,WinterDesignDay
250,16.874577167597646
251,4231607.185563583
336,0.0
385,16.770520345741268
386,27.8807218181986
387,-17.695287006574556
388,0.0
425,0.0
450,0.0
451,0.0
452,-18.39714458729661
453,0.0
490,0.0
515,0.0
516,0.0
542,0.0
592,0.0
632,4184329.2865771395
686,0.6666666666666667
687,0.6666666666666667
688,1.3333333333333335
2,1, 1,21, 0, 4,20.00,30.00,WinterDesignDay
250,16.460935304493745
251,4156956.911500958
336,0.0
385,16.237187012407933
386,27.880721818198605
387,-17.695287457776644
388,0.0
425,0.0
450,0.0
451,0.0
452,-18.397195722934413
453,0.0
490,0.0
515,0.0
516,0.0
542,0.0
592,0.0
632,4161424.800133041
686,0.6000000000000001
687,0.6000000000000001
688,1.2000000000000002
2,1, 1,21, 0, 4,30.00,40.00,WinterDesignDay
250,16.72451846618779
251,5776952.422425005
336,0.0
385,16.77052034574128
386,27.880721818198623
387,-17.69526431560329
388,0.0
425,0.0
450,0.0
451,0.0
452,-18.397167033161594
453,0.0
490,0.0
515,0.0
516,0.0
542,0.0
592,0.0
632,5687083.52212635
686,1.0000000000000009
687,1.0000000000000009
688,2.0000000000000018
2,1, 1,21, 0, 4,40.00,50.00,WinterDesignDay
250,16.874577165347123
251,4231607.203243526
336,0.0
385,16.77052034574128
386,27.880721818198623
387,-17.695289716055697
388,0.0
425,0.0
450,0.0
451,0.0
452,-18.397144883348588
453,0.0
490,0.0
515,0.0
516,0.0
542,0.0
592,0.0
632,4184329.3042760533
686,0.6666666666666672
687,0.6666666666666672
688,1.3333333333333344
2,1, 1,21, 0, 4,50.00,60.00,WinterDesignDay
250,16.460935302250302
251,4156956.9310616674
336,0.0
385,16.237187012407933
386,27.880721818198605
387,-17.695290136668028
388,0.0
425,0.0
450,0.0
451,0.0
452,-18.397196015537844
453,0.0
490,0.0
515,0.0
516,0.0
542,0.0
592,0.0
632,4161424.8203730904
686,0.6000000000000001
687,0.6000000000000001
688,1.2000000000000002
2,1, 1,21, 0, 5, 0.00,10.00,WinterDesignDay
250,16.72451846608923
251,5776952.448459812
336,0.0
385,16.770520345741268
386,27.880721818198605
387,-17.695266962342494
388,0.0
425,0.0
450,0.0
451,0.0
452,-18.39716732221674
453,0.0
490,0.0
515,0.0
516,0.0
542,0.0
592,0.0
632,5687083.548563583
686,1.0
687,1.0
688,2.0
2,1, 1,21, 0, 5,10.00,20.00,WinterDesignDay
250,16.87457716318502
251,4231607.220228635
336,0.0
385,16.770520345741268
386,27.8807218181986
387,-17.69529231908789
388,0.0
425,0.0
450,0.0
451,0.0
452,-18.397145167765494
453,0.0
490,0.0
515,0.0
516,0.0
542,0.0
592,0.0
632,4184329.3212793893
686,0.6666666666666667
687,0.6666666666666667
688,1.3333333333333335
2,1, 1,21, 0, 5,20.00,30.00,WinterDesignDay
250,16.46093530009503
251,4156956.949853607
336,0.0
385,16.237187012407933
386,27.880721818198605
387,-17.695292710312092
388,0.0
425,0.0
450,0.0
451,0.0
452,-18.397196296641795
453,0.0
490,0.0
515,0.0
516,0.0
542,0.0
592,0.0
632,4161424.8398176706
686,0.6000000000000001
687,0.6000000000000001
688,1.2000000000000002
2,1, 1,21, 0, 5,30.00,40.00,WinterDesignDay
250,16.724518465994564
251,5776952.473471494
336,0.0
385,16.77052034574128
386,27.880721818198623
387,-17.69526950509729
388,0.0
425,0.0
450,0.0
451,0.0
452,-18.39716759991191
453,0.0
490,0.0
515,0.0
516,0.0
542,0.0
592,0.0
632,5687083.573961876
686,1.0000000000000009
687,1.0000000000000009
688,2.0000000000000018
2,1, 1,21, 0, 5,40.00,50.00,WinterDesignDay
250,16.874577161107915
251,4231607.236546217
336,0.0
385,16.77052034574128
386,27.880721818198623
387,-17.69529481985241
388,0.0
425,0.0
450,0.0
451,0.0
452,-18.39714544100476
453,0.0
490,0.0
515,0.0
516,0.0
542,0.0
592,0.0
632,4184329.3376144813
686,0.6666666666666672
687,0.6666666666666672
688,1.3333333333333344
2,1, 1,21, 0, 5,50.00,60.00,WinterDesignDay
250,16.46093529802447
251,4156956.9679069906
336,0.0
385,16.237187012407933
386,27.880721818198605
387,-17.69529518284306
388,0.0
425,0.0
450,0.0
451,0.0
452,-18.397196566698312
453,0.0
490,0.0
515,0.0
516,0.0
542,0.0
592,0.0
632,4161424.8584980443
686,0.6000000000000001
687,0.6000000000000001
688,1.2000000000000002
2,1, 1,21, 0, 6, 0.00,10.00,WinterDesignDay
250,16.724518465903593
251,5776952.497500102
336,0.0
385,16.770520345741268
386,27.880721818198605
387,-17.695271947952634
388,0.0
425,0.0
450,0.0
451,0.0
452,-18.397167866693636
453,0.0
490,0.0
515,0.0
516,0.0
542,0.0
592,0.0
632,5687083.598361898
686,1.0
687,1.0
688,2.0
2,1, 1,21, 0, 6,10.00,20.00,WinterDesignDay
250,16.874577159112405
251,4231607.252222568
336,0.0
385,16.770520345741268
386,27.8807218181986
387,-17.695297222367245
388,0.0
425,0.0
450,0.0
451,0.0
452,-18.397145703505736
453,0.0
490,0.0
515,0.0
516,0.0
542,0.0
592,0.0
632,4184329.353307654
686,0.6666666666666667
687,0.6666666666666667
688,1.3333333333333335
2,1, 1,21, 0, 6,20.00,30.00,WinterDesignDay
250,16.460935296035277
251,4156956.985250875
336,0.0
385,16.237187012407933
386,27.880721818198605
387,-17.695297558233527
388,0.0
425,0.0
450,0.0
451,0.0
452,-18.397196826141688
453,0.0
490,0.0
515,0.0
516,0.0
542,0.0
592,0.0
632,4161424.8764442806
686,0.6000000000000001
687,0.6000000000000001
688,1.2000000000000002
2,1, 1,21, 0, 6,30.00,40.00,WinterDesignDay
250,16.724518465816224
251,5776952.520584428
336,0.0
385,16.77052034574128
386,27.880721818198623
387,-17.69527429483351
388,0.0
425,0.0
450,0.0
451,0.0
452,-18.397168122990976
453,0.0
490,0.0
515,0.0
516,0.0
542,0.0
592,0.0
632,5687083.6218030425
686,1.0000000000000009
687,1.0000000000000009
688,2.0000000000000018
2,1, 1,21, 0, 6,40.00,50.00,WinterDesignDay
250,16.87457715719536
251,4231607.267282797
336,0.0
385,16.77052034574128
386,27.880721818198623
387,-17.695299530492363
388,0.0
425,0.0
450,0.0
451,0.0
452,-18.397145955690597
453,0.0
490,0.0
515,0.0
516,0.0
542,0.0
592,0.0
632,4184329.3683840437
686,0.6666666666666672
687,0.6666666666666672
688,1.3333333333333344
2,1, 1,21, 0, 6,50.00,60.00,WinterDesignDay
250,16.46093529412425
251,4156957.001913219
336,0.0
385,16.237187012407933
386,27.880721818198605
387,-17.695299840299715
388,0.0
425,0.0
450,0.0
451,0.0
452,-18.39719707538911
453,0.0
490,0.0
515,0.0
516,0.0
542,0.0
592,0.0
632,4161424.8936853027
686,0.6000000000000001
687,0.6000000000000001
688,1.2000000000000002
2,1, 1,21, 0, 7, 0.00,10.00,WinterDesignDay
250,16.72451846573226
251,5776952.542761647
336,0.0
385,16.770520345741268
386,27.880721818198605
387,-17.69527654950987
388,0.0
425,0.0
450,0.0
451,0.0
452,-18.397168369216
453,0.0
490,0.0
515,0.0
516,0.0
542,0.0
592,0.0
632,5687083.644323061
686,1.0
687,1.0
688,2.0
2,1, 1,21, 0, 7,10.00,20.00,WinterDesignDay
250,16.874577155353617
251,4231607.281751192
336,0.0
385,16.770520345741268
386,27.8807218181986
387,-17.695301747935734
388,0.0
425,0.0
450,0.0
451,0.0
452,-18.397146197964794
453,0.0
490,0.0
515,0.0
516,0.0
542,0.0
592,0.0
632,4184329.382867965
686,0.6666666666666667
687,0.6666666666666667
688,1.3333333333333335
2,1, 1,21, 0, 7,20.00,30.00,WinterDesignDay
250,16.46093529228833
251,4156957.0179207283
336,0.0
385,16.237187012407933
386,27.880721818198605
387,-17.69530203270796
388,0.0
425,0.0
450,0.0
451,0.0
452,-18.397197314841357
453,0.0
490,0.0
515,0.0
516,0.0
542,0.0
592,0.0
632,4161424.91024875
686,0.6000000000000001
687,0.6000000000000001
688,1.2000000000000002
2,1, 1,21, 0, 7,30.00,40.00,WinterDesignDay
250,16.724518465651624
251,5776952.564067283
336,0.0
385,16.77052034574128
386,27.880721818198623
387,-17.695278715604132
388,0.0
425,0.0
450,0.0
451,0.0
452,-18.39716860576469
453,0.0
490,0.0
515,0.0
516,0.0
542,0.0
592,0.0
632,5687083.665958022
686,1.0000000000000009
687,1.0000000000000009
688,2.0000000000000018
2,1, 1,21, 0, 7,40.00,50.00,WinterDesignDay
250,16.874577153584276
251,4231607.295651035
336,0.0
385,16.77052034574128
386,27.880721818198623
387,-17.695303878259327
388,0.0
425,0.0
450,0.0
451,0.0
452,-18.397146430717946
453,0.0
490,0.0
515,0.0
516,0.0
542,0.0
592,0.0
632,4184329.396782724
686,0.6666666666666672
687,0.6666666666666672
688,1.3333333333333344
2,1, 1,21, 0, 7,50.00,60.00,WinterDesignDay
250,16.46093529052456
251,4156957.0332991784
336,0.0
385,16.237187012407933
386,27.880721818198605
387,-17.695304138980145
388,0.0
425,0.0
450,0.0
451,0.0
452,-18.397197544883458
453,0.0
490,0.0
515,0.0
516,0.0
542,0.0
592,0.0
632,4161424.9261612915
686,0.6000000000000001
687,0.6000000000000001
688,1.2000000000000002
2,1, 1,21, 0, 8, 0.00,10.00,WinterDesignDay
250,16.724518465574132
251,5776952.5845355885
336,0.0
385,16.770520345741268
386,27.880721818198605
387,-17.695280796596606
388,0.0
425,0.0
450,0.0
451,0.0
452,-18.397168833017325
453,0.0
490,0.0
515,0.0
516,0.0
542,0.0
592,0.0
632,5687083.686742713
686,1.0
687,1.0
688,2.0
2,1, 1,21, 0, 8,10.00,20.00,WinterDesignDay
250,16.874577151884445
251,4231607.309004609
336,0.0
385,16.770520345741268
386,27.8807218181986
387,-17.69530592488699
388,0.0
425,0.0
450,0.0
451,0.0
452,-18.397146654324242
453,0.0
490,0.0
515,0.0
516,0.0
542,0.0
592,0.0
632,4184329.4101506257
686,0.6666666666666667
687,0.6666666666666667
688,1.3333333333333335
2,1, 1,21, 0, 8,20.00,30.00,WinterDesignDay
250,16.460935288830093
251,4156957.0480733267
336,0.0
385,16.237187012407933
386,27.880721818198605
387,-17.695306162500984
388,0.0
425,0.0
450,0.0
451,0.0
452,-18.39719776588529
453,0.0
490,0.0
515,0.0
516,0.0
542,0.0
592,0.0
632,4161424.941448542
686,0.6000000000000001
687,0.6000000000000001
688,1.2000000000000002
2,1, 1,21, 0, 8,30.00,40.00,WinterDesignDay
250,16.724518465499706
251,5776952.604199693
336,0.0
385,16.77052034574128
386,27.880721818198623
387,-17.69528279583039
388,0.0
425,0.0
450,0.0
451,0.0
452,-18.39716905133938
453,0.0
490,0.0
515,0.0
516,0.0
542,0.0
592,0.0
632,5687083.706710768
686,1.0000000000000009
687,1.0000000000000009
688,2.0000000000000018
2,1, 1,21, 0, 8,40.00,50.00,WinterDesignDay
250,16.874577150251437
251,4231607.321833403
336,0.0
385,16.77052034574128
386,27.880721818198623
387,-17.695307891105703
388,0.0
425,0.0
450,0.0
451,0.0
452,-18.397146869143263
453,0.0
490,0.0
515,0.0
516,0.0
542,0.0
592,0.0
632,4184329.4229931873
686,0.6666666666666672
687,0.6666666666666672
688,1.3333333333333344
2,1, 1,21, 0, 8,50.00,60.00,WinterDesignDay
250,16.460935287202226
251,4156957.062266819
336,0.0
385,16.237187012407933
386,27.880721818198605
387,-17.695308106521225
388,0.0
425,0.0
450,0.0
451,0.0
452,-18.397197978202197
453,0.0
490,0.0
515,0.0
516,0.0
542,0.0
592,0.0
632,4161424.9561349717
686,0.6000000000000001
687,0.6000000000000001
688,1.2000000000000002
2,1, 1,21, 0, 9, 0.00,10.00,WinterDesignDay
250,16.72451846542819
251,5776952.623090891
336,0.0
385,16.770520345741268
386,27.880721818198605
387,-17.69528471651824
388,0.0
425,0.0
450,0.0
451,0.0
452,-18.397169261081807
453,0.0
490,0.0
515,0.0
516,0.0
542,0.0
592,0.0
632,5687083.7258939715
686,1.0
687,1.0
688,2.0
2,1, 1,21, 0, 9,10.00,20.00,WinterDesignDay
250,16.874577148682576
251,4231607.334158104
336,0.0
385,16.770520345741268
386,27.8807218181986
387,-17.695309780075632
388,0.0
425,0.0
450,0.0
451,0.0
452,-18.39714707552037
453,0.0
490,0.0
515,0.0
516,0.0
542,0.0
592,0.0
632,4184329.4353311146
686,0.6666666666666667
687,0.6666666666666667
688,1.3333333333333335
2,1, 1,21, 0, 9,20.00,30.00,WinterDesignDay
250,16.460935285638325
251,4156957.075902545
336,0.0
385,16.237187012407933
386,27.880721818198605
387,-17.69530997416405
388,0.0
425,0.0
450,0.0
451,0.0
452,-18.397198182175572
453,0.0
490,0.0
515,0.0
516,0.0
542,0.0
592,0.0
632,4161424.970244263
686,0.6000000000000001
687,0.6000000000000001
688,1.2000000000000002
2,1, 1,21, 0, 9,30.00,40.00,WinterDesignDay
250,16.724518465359502
251,5776952.641239715
336,0.0
385,16.77052034574128
386,27.880721818198623
387,-17.695286561744943
388,0.0
425,0.0
450,0.0
451,0.0
452,-18.397169462581918
453,0.0
490,0.0
515,0.0
516,0.0
542,0.0
592,0.0
632,5687083.744323328
686,1.0000000000000009
687,1.0000000000000009
688,2.0000000000000018
2,1, 1,21, 0, 9,40.00,50.00,WinterDesignDay
250,16.874577147175394
251,4231607.3459984455
336,0.0
385,16.77052034574128
386,27.880721818198623
387,-17.69531159483083
388,0.0
425,0.0
450,0.0
451,0.0
452,-18.39714727378741
453,0.0
490,0.0
515,0.0
516,0.0
542,0.0
592,0.0
632,4184329.447184161
686,0.6666666666666672
687,0.6666666666666672
688,1.3333333333333344
2,1, 1,21, 0, 9,50.00,60.00,WinterDesignDay
250,16.460935284135886
251,4156957.0890024467
336,0.0
385,16.237187012407933
386,27.880721818198605
387,-17.695311768430678
388,0.0
425,0.0
450,0.0
451,0.0
452,-18.39719837813333
453,0.0
490,0.0
515,0.0
516,0.0
542,0.0
592,0.0
632,4161424.9837991227
686,0.6000000000000001
687,0.6000000000000001
688,1.2000000000000002
2,1, 1,21, 0,10, 0.00,10.00,WinterDesignDay
250,16.724518465293485
251,5776952.658675456
336,0.0
385,16.770520345741268
386,27.880721818198605
387,-17.695288334476185
388,0.0
425,0.0
450,0.0
451,0.0
452,-18.397169656163605
453,0.0
490,0.0
515,0.0
516,0.0
542,0.0
592,0.0
632,5687083.762028577
686,1.0
687,1.0
688,2.0
2,1, 1,21, 0,10,10.00,20.00,WinterDesignDay
250,16.874577145727407
251,4231607.357373544
336,0.0
385,16.770520345741268
386,27.8807218181986
387,-17.695313338286955
388,0.0
425,0.0
450,0.0
451,0.0
452,-18.39714746426311
453,0.0
490,0.0
515,0.0
516,0.0
542,0.0
592,0.0
632,4184329.4585714648
686,0.6666666666666667
687,0.6666666666666667
688,1.3333333333333335
2,1, 1,21, 0,10,20.00,30.00,WinterDesignDay
250,16.46093528269248
251,4156957.1015876043
336,0.0
385,16.237187012407933
386,27.880721818198605
387,-17.695313492202807
388,0.0
425,0.0
450,0.0
451,0.0
452,-18.39719856639053
453,0.0
490,0.0
515,0.0
516,0.0
542,0.0
592,0.0
632,4161424.9968213616
686,0.6000000000000001
687,0.6000000000000001
688,1.2000000000000002
2,1, 1,21, 0,10,30.00,40.00,WinterDesignDay
250,16.724518465230094
251,5776952.67542595
336,0.0
385,16.77052034574128
386,27.880721818198623
387,-17.695290037559065
388,0.0
425,0.0
450,0.0
451,0.0
452,-18.397169842138148
453,0.0
490,0.0
515,0.0
516,0.0
542,0.0
592,0.0
632,5687083.779037986
686,1.0000000000000009
687,1.0000000000000009
688,2.0000000000000018
2,1, 1,21, 0,10,40.00,50.00,WinterDesignDay
250,16.874577144336353
251,4231607.368301592
336,0.0
385,16.77052034574128
386,27.880721818198623
387,-17.695315013245548
388,0.0
425,0.0
450,0.0
451,0.0
452,-18.397147647253743
453,0.0
490,0.0
515,0.0
516,0.0
542,0.0
592,0.0
632,4184329.469511239
686,0.6666666666666672
687,0.6666666666666672
688,1.3333333333333344
2,1, 1,21, 0,10,50.00,60.00,WinterDesignDay
250,16.4609352813058
251,4156957.113678162
336,0.0
385,16.237187012407933
386,27.880721818198605
387,-17.69531514825076
388,0.0
425,0.0
450,0.0
451,0.0
452,-18.39719874724983
453,0.0
490,0.0
515,0.0
516,0.0
542,0.0
592,0.0
632,4161425.00933182
686,0.6000000000000001
687,0.6000000000000001
688,1.2000000000000002
2,1, 1,21, 0,11, 0.00,10.00,WinterDesignDay
250,16.724518465169165
251,5776952.691518275
336,0.0
385,16.770520345741268
386,27.880721818198605
387,-17.69529167373035
388,0.0
425,0.0
450,0.0
451,0.0
452,-18.397170020804488
453,0.0
490,0.0
515,0.0
516,0.0
542,0.0
592,0.0
632,5687083.795379052
686,1.0
687,1.0
688,2.0
2,1, 1,21, 0,11,10.00,20.00,WinterDesignDay
250,16.874577142999943
251,4231607.3788001975
336,0.0
385,16.770520345741268
386,27.8807218181986
387,-17.69531662239689
388,0.0
425,0.0
450,0.0
451,0.0
452,-18.39714782305344
453,0.0
490,0.0
515,0.0
516,0.0
542,0.0
592,0.0
632,4184329.480021111
686,0.6666666666666667
687,0.6666666666666667
688,1.3333333333333335
2,1, 1,21, 0,11,20.00,30.00,WinterDesignDay
250,16.46093527997361
251,4156957.125293602
336,0.0
385,16.237187012407933
386,27.880721818198605
387,-17.695316739234645
388,0.0
425,0.0
450,0.0
451,0.0
452,-18.397198921001994
453,0.0
490,0.0
515,0.0
516,0.0
542,0.0
592,0.0
632,4161425.021350661
686,0.6000000000000001
687,0.6000000000000001
688,1.2000000000000002
2,1, 1,21, 0,11,30.00,40.00,WinterDesignDay
250,16.72451846511066
251,5776952.706978172
336,0.0
385,16.77052034574128
386,27.880721818198623
387,-17.695293245619123
388,0.0
425,0.0
450,0.0
451,0.0
452,-18.397170192449902
453,0.0
490,0.0
515,0.0
516,0.0
542,0.0
592,0.0
632,5687083.811077913
686,1.0000000000000009
687,1.0000000000000009
688,2.0000000000000018
2,1, 1,21, 0,11,40.00,50.00,WinterDesignDay
250,16.87457714171607
251,4231607.388886254
336,0.0
385,16.77052034574128
386,27.880721818198623
387,-17.695318168327976
388,0.0
425,0.0
450,0.0
451,0.0
452,-18.397147991944884
453,0.0
490,0.0
515,0.0
516,0.0
542,0.0
592,0.0
632,4184329.4901179904
686,0.6666666666666672
687,0.6666666666666672
688,1.3333333333333344
2,1, 1,21, 0,11,50.00,60.00,WinterDesignDay
250,16.460935278693775
251,4156957.1364525817
336,0.0
385,16.237187012407933
386,27.880721818198605
387,-17.69531826771154
388,0.0
425,0.0
450,0.0
451,0.0
452,-18.397199087926353
453,0.0
490,0.0
515,0.0
516,0.0
542,0.0
592,0.0
632,4161425.0328971907
686,0.6000000000000001
687,0.6000000000000001
688,1.2000000000000002
2,1, 1,21, 0,12, 0.00,10.00,WinterDesignDay
250,16.724518465054423
251,5776952.721830526
336,0.0
385,16.770520345741268
386,27.880721818198605
387,-17.695294755750297
388,0.0
425,0.0
450,0.0
451,0.0
452,-18.39717035735029
453,0.0
490,0.0
515,0.0
516,0.0
542,0.0
592,0.0
632,5687083.826159848
686,1.0
687,1.0
688,2.0
2,1, 1,21, 0,12,10.00,20.00,WinterDesignDay
250,16.874577140482618
251,4231607.398576017
336,0.0
385,16.770520345741268
386,27.8807218181986
387,-17.695319653520503
388,0.0
425,0.0
450,0.0
451,0.0
452,-18.397148154199527
453,0.0
490,0.0
515,0.0
516,0.0
542,0.0
592,0.0
632,4184329.499818151
686,0.6666666666666667
687,0.6666666666666667
688,1.3333333333333335
2,1, 1,21, 0,12,20.00,30.00,WinterDesignDay
250,16.460935277464227
251,4156957.1471731025
336,0.0
385,16.237187012407933
386,27.880721818198605
387,-17.695319736136284
388,0.0
425,0.0
450,0.0
451,0.0
452,-18.397199248291248
453,0.0
490,0.0
515,0.0
516,0.0
542,0.0
592,0.0
632,4161425.0439900323
686,0.6000000000000001
687,0.6000000000000001
688,1.2000000000000002
2,1, 1,21, 0,12,30.00,40.00,WinterDesignDay
250,16.724518465000425
251,5776952.736099278
336,0.0
385,16.77052034574128
386,27.880721818198623
387,-17.69529620655055
388,0.0
425,0.0
450,0.0
451,0.0
452,-18.397170515770792
453,0.0
490,0.0
515,0.0
516,0.0
542,0.0
592,0.0
632,5687083.840649152
686,1.0000000000000009
687,1.0000000000000009
688,2.0000000000000018
2,1, 1,21, 0,12,40.00,50.00,WinterDesignDay
250,16.874577139297664
251,4231607.407884973
336,0.0
385,16.77052034574128
386,27.880721818198623
387,-17.69532108036207
388,0.0
425,0.0
450,0.0
451,0.0
452,-18.397148310078272
453,0.0
490,0.0
515,0.0
516,0.0
542,0.0
592,0.0
632,4184329.5091370973
686,0.6666666666666672
687,0.6666666666666672
688,1.3333333333333344
2,1, 1,21, 0,12,50.00,60.00,WinterDesignDay
250,16.460935276282992
251,4156957.1574723683
336,0.0
385,16.237187012407933
386,27.880721818198605
387,-17.69532114686819
388,0.0
425,0.0
450,0.0
451,0.0
452,-18.397199402354484
453,0.0
490,0.0
515,0.0
516,0.0
542,0.0
592,0.0
632,4161425.054646989
686,0.6000000000000001
687,0.6000000000000001
688,1.2000000000000002
2,1, 1,21, 0,13, 0.00,10.00,WinterDesignDay
250,16.724518464948524
251,5776952.749807393
336,0.0
385,16.770520345741268
386,27.880721818198605
387,-17.695297600350393
388,0.0
425,0.0
450,0.0
451,0.0
452,-18.397170667966016
453,0.0
490,0.0
515,0.0
516,0.0
542,0.0
592,0.0
632,5687083.854569156
686,1.0
687,1.0
688,2.0
2,1, 1,21, 0,13,10.00,20.00,WinterDesignDay
250,16.874577138159253
251,4231607.416828091
336,0.0
385,16.770520345741268
386,27.8807218181986
387,-17.695322451145095
388,0.0
425,0.0
450,0.0
451,0.0
452,-18.39714845983163
453,0.0
490,0.0
515,0.0
516,0.0
542,0.0
592,0.0
632,4184329.5180898113
686,0.6666666666666667
687,0.6666666666666667
688,1.3333333333333335
2,1, 1,21, 0,13,20.00,30.00,WinterDesignDay
250,16.46093527514818
251,4156957.1673668656
336,0.0
385,16.237187012407933
386,27.880721818198605
387,-17.69532250217492
388,0.0
425,0.0
450,0.0
451,0.0
452,-18.397199550363723
453,0.0
490,0.0
515,0.0
516,0.0
542,0.0
592,0.0
632,4161425.0648851213
686,0.6000000000000001
687,0.6000000000000001
688,1.2000000000000002
2,1, 1,21, 0,13,30.00,40.00,WinterDesignDay
250,16.724518464898686
251,5776952.762976754
336,0.0
385,16.77052034574128
386,27.880721818198623
387,-17.69529893938999
388,0.0
425,0.0
450,0.0
451,0.0
452,-18.3971708141807
453,0.0
490,0.0
515,0.0
516,0.0
542,0.0
592,0.0
632,5687083.867942081
686,1.0000000000000009
687,1.0000000000000009
688,2.0000000000000018
2,1, 1,21, 0,13,40.00,50.00,WinterDesignDay
250,16.874577137065597
251,4231607.425419858
336,0.0
385,16.77052034574128
386,27.880721818198623
387,-17.695323768071543
388,0.0
425,0.0
450,0.0
451,0.0
452,-18.397148603700423
453,0.0
490,0.0
515,0.0
516,0.0
542,0.0
592,0.0
632,4184329.5266907956
686,0.6666666666666672
687,0.6666666666666672
688,1.3333333333333344
2,1, 1,21, 0,13,50.00,60.00,WinterDesignDay
250,16.46093527405796
251,4156957.1768725654
336,0.0
385,16.237187012407933
386,27.880721818198605
387,-17.695323804232817
388,0.0
425,0.0
450,0.0
451,0.0
452,-18.397199692556914
453,0.0
490,0.0
515,0.0
516,0.0
542,0.0
592,0.0
632,4161425.0747209513
686,0.6000000000000001
687,0.6000000000000001
688,1.2000000000000002