Program Version,EnergyPlus, Version 24.2.0-94a887817b, YMD=2025.02.04 15:37
1,5,Environment Title[],Latitude[deg],Longitude[deg],Time Zone[],Elevation[m]
2,8,Day of Simulation[],Month[],Day of Month[],DST Indicator[1=yes 0=no],Hour[],StartMinute[],EndMinute[],DayType
3,5,Cumulative Day of Simulation[],Month[],Day of Month[],DST Indicator[1=yes 0=no],DayType  ! When Daily Meters Requested
4,2,Cumulative Days of Simulation[],Month[]  ! When Monthly Meters Requested
5,1,Cumulative Days of Simulation[] ! When Run Period Meters Requested
6,1,Calendar Year of Simulation[] ! When Annual Meters Requested
11,9,Electricity:Facility [J] !Monthly [Value,Min,Day,Hour,Minute,Max,Day,Hour,Minute]
23,9,Electricity:Building [J] !Monthly [Value,Min,Day,Hour,Minute,Max,Day,Hour,Minute]
59,9,InteriorLights:Electricity [J] !Monthly [Value,Min,Day,Hour,Minute,Max,Day,Hour,Minute]
521,9,Electricity:HVAC [J] !Monthly [Value,Min,Day,Hour,Minute,Max,Day,Hour,Minute]
637,9,NaturalGas:Facility [J] !Monthly [Value,Min,Day,Hour,Minute,Max,Day,Hour,Minute]
649,9,NaturalGas:HVAC [J] !Monthly [Value,Min,Day,Hour,Minute,Max,Day,Hour,Minute]
13,11,Electricity:Facility [J] !RunPeriod [Value,Min,Month,Day,Hour,Minute,Max,Month,Day,Hour,Minute]
25,11,Electricity:Building [J] !RunPeriod [Value,Min,Month,Day,Hour,Minute,Max,Month,Day,Hour,Minute]
61,11,InteriorLights:Electricity [J] !RunPeriod [Value,Min,Month,Day,Hour,Minute,Max,Month,Day,Hour,Minute]
523,11,Electricity:HVAC [J] !RunPeriod [Value,Min,Month,Day,Hour,Minute,Max,Month,Day,Hour,Minute]
639,11,NaturalGas:Facility [J] !RunPeriod [Value,Min,Month,Day,Hour,Minute,Max,Month,Day,Hour,Minute]
651,11,NaturalGas:HVAC [J] !RunPeriod [Value,Min,Month,Day,Hour,Minute,Max,Month,Day,Hour,Minute]
End of Data Dictionary
1,RUN PERIOD 1,  41.98, -87.92,  -6.00, 201.00
4,31, 1
11,9834622833.759167,408891.4285714286, 5, 6,50,2987859.277845307,16,13,60
23,995572732.5281595,30000.0, 1, 1,10,618386.0380638819, 1, 9,10
59,970200000.0,30000.0, 1, 1,10,600000.0, 1, 8,10
521,8839050101.230986,378891.4285714286, 5, 6,50,2369473.239781425,16,13,60
637,179094701231.1163,28292946.625757135,21,16,10,41250000.0, 1, 1,10
649,179094701231.1163,28292946.625757135,21,16,10,41250000.0, 1, 1,10
4,59, 2
11,9366599366.74053,99999999999999.0, 5, 6,50,3029320.718108429,22,15,30
23,870223245.6766604,99999999999999.0, 1, 1,10,-99999999999999.0, 1, 9,10
59,848160000.0,99999999999999.0, 1, 1,10,-99999999999999.0, 1, 8,10
521,8496376121.063895,99999999999999.0, 5, 6,50,2410934.680044547,22,15,30
637,158499343882.77533,26603051.323499538,23,12,10,-99999999999999.0, 1, 1,10
649,158499343882.77533,26603051.323499538,23,12,10,-99999999999999.0, 1, 1,10
4,90, 3
11,10957955515.669958,318386.03806388186,27,18,10,3199300.1921507,27,13,60
23,920646407.9604934,99999999999999.0, 1, 1,10,-99999999999999.0, 1, 9,10
59,897480000.0,99999999999999.0, 1, 1,10,-99999999999999.0, 1, 8,10
521,10037309107.709442,0.0,27,14,10,2580914.154086818,27,13,60
637,162474288512.1213,0.0,27,14,10,-99999999999999.0, 1, 1,10
649,162474288512.1213,0.0,27,14,10,-99999999999999.0, 1, 1,10
4,120, 4
11,9561282658.49962,30000.0,11,19,10,-99999999999999.0,27,13,60
23,953789570.2443265,99999999999999.0, 1, 1,10,-99999999999999.0, 1, 9,10
59,929520000.0,99999999999999.0, 1, 1,10,-99999999999999.0, 1, 8,10
521,8607493088.255299,99999999999999.0,27,14,10,-99999999999999.0,27,13,60
637,119095201833.44235,99999999999999.0,27,14,10,-99999999999999.0, 1, 1,10
649,119095201833.44235,99999999999999.0,27,14,10,-99999999999999.0, 1, 1,10
4,151, 5
11,8877425865.89238,99999999999999.0,11,19,10,-99999999999999.0,27,13,60
23,995834151.5460831,99999999999999.0, 1, 1,10,634306.7792008334,28,13,10
59,970200000.0,99999999999999.0, 1, 1,10,-99999999999999.0, 1, 8,10
521,7881591714.346332,99999999999999.0,27,14,10,-99999999999999.0,27,13,60
637,88510916211.89612,99999999999999.0,27,14,10,-99999999999999.0, 1, 1,10
649,88510916211.89612,99999999999999.0,27,14,10,-99999999999999.0, 1, 1,10
4,181, 6
11,7213903989.715484,99999999999999.0,11,19,10,3206043.8451809324,24,11,60
23,878889252.8984,99999999999999.0, 1, 1,10,-99999999999999.0,28,13,10
59,856800000.0,99999999999999.0, 1, 1,10,-99999999999999.0, 1, 8,10
521,6335014736.817074,99999999999999.0,27,14,10,2587657.8071170505,24,11,60
637,36223999430.7101,99999999999999.0,27,14,10,-99999999999999.0, 1, 1,10
649,36223999430.7101,99999999999999.0,27,14,10,-99999999999999.0, 1, 1,10
4,212, 7
11,6906680069.571214,99999999999999.0,11,19,10,-99999999999999.0,24,11,60
23,995816223.3566719,99999999999999.0, 1, 1,10,-99999999999999.0,28,13,10
59,970200000.0,99999999999999.0, 1, 1,10,-99999999999999.0, 1, 8,10
521,5910863846.214536,99999999999999.0,27,14,10,-99999999999999.0,24,11,60
637,10667992817.655731,99999999999999.0,27,14,10,-99999999999999.0, 1, 1,10
649,10667992817.655731,99999999999999.0,27,14,10,-99999999999999.0, 1, 1,10
4,243, 8
11,6007988561.530024,99999999999999.0,11,19,10,-99999999999999.0,24,11,60
23,958387729.6024417,99999999999999.0, 1, 1,10,634407.3515567144,12,14,10
59,933840000.0,99999999999999.0, 1, 1,10,-99999999999999.0, 1, 8,10
521,5049600831.927545,99999999999999.0,27,14,10,-99999999999999.0,24,11,60
637,21919830449.7185,99999999999999.0,27,14,10,-99999999999999.0, 1, 1,10
649,21919830449.7185,99999999999999.0,27,14,10,-99999999999999.0, 1, 1,10
4,273, 9
11,6780519061.627622,99999999999999.0,11,19,10,3206409.7934463555,25,13,30
23,916326407.9604936,99999999999999.0, 1, 1,10,-99999999999999.0,12,14,10
59,893160000.0,99999999999999.0, 1, 1,10,-99999999999999.0, 1, 8,10
521,5864192653.667096,99999999999999.0,27,14,10,2588023.7553824736,25,13,30
637,55320794430.82476,99999999999999.0,27,14,10,-99999999999999.0, 1, 1,10
649,55320794430.82476,99999999999999.0,27,14,10,-99999999999999.0, 1, 1,10
4,304,10
11,10387966955.412987,99999999999999.0,11,19,10,-99999999999999.0,25,13,30
23,995572732.5281595,99999999999999.0, 1, 1,10,-99999999999999.0,12,14,10
59,970200000.0,99999999999999.0, 1, 1,10,-99999999999999.0, 1, 8,10
521,9392394222.884834,99999999999999.0,27,14,10,-99999999999999.0,25,13,30
637,126702055036.53935,99999999999999.0,27,14,10,-99999999999999.0, 1, 1,10
649,126702055036.53935,99999999999999.0,27,14,10,-99999999999999.0, 1, 1,10
4,334,11
11,10349813722.173874,99999999999999.0,11,19,10,-99999999999999.0,25,13,30
23,916326407.9604934,99999999999999.0, 1, 1,10,-99999999999999.0,12,14,10
59,893160000.0,99999999999999.0, 1, 1,10,-99999999999999.0, 1, 8,10
521,9433487314.213402,99999999999999.0,27,14,10,-99999999999999.0,25,13,30
637,146733126558.3462,99999999999999.0,27,14,10,-99999999999999.0, 1, 1,10
649,146733126558.3462,99999999999999.0,27,14,10,-99999999999999.0, 1, 1,10
4,365,12
11,10447060190.628136,99999999999999.0,11,19,10,-99999999999999.0,25,13,30
23,958109570.2443266,99999999999999.0, 1, 1,10,-99999999999999.0,12,14,10
59,933840000.0,99999999999999.0, 1, 1,10,-99999999999999.0, 1, 8,10
521,9488950620.383821,99999999999999.0,27,14,10,-99999999999999.0,25,13,30
637,179939379998.73245,99999999999999.0,27,14,10,-99999999999999.0, 1, 1,10
649,179939379998.73245,99999999999999.0,27,14,10,-99999999999999.0, 1, 1,10
5,365
13,106691818791.2275,30000.0, 4,11,19,10,3206409.7934463555, 9,25,13,30
25,11355494432.50441,30000.0, 1, 1, 1,10,634407.3515567144, 8,12,14,10
61,11066760000.0,30000.0, 1, 1, 1,10,600000.0, 1, 1, 8,10
523,95336324358.71927,0.0, 3,27,14,10,2588023.7553824736, 9,25,13,30
639,1285181630393.8738,0.0, 3,27,14,10,41250000.0, 1, 1, 1,10
651,1285181630393.8738,0.0, 3,27,14,10,41250000.0, 1, 1, 1,10
1,RUN PERIOD 2,  41.98, -87.92,  -6.00, 201.00
4,1, 7
11,159196762.89217263,99999999999999.0,11,19,10,-99999999999999.0,25,13,30
23,41783162.28383299,99999999999999.0, 1, 1,10,-99999999999999.0,12,14,10
59,40680000.0,99999999999999.0, 1, 1,10,-99999999999999.0, 1, 8,10
521,117413600.60833968,99999999999999.0,27,14,10,-99999999999999.0,25,13,30
637,0.0,99999999999999.0,27,14,10,-99999999999999.0, 1, 1,10
649,0.0,99999999999999.0,27,14,10,-99999999999999.0, 1, 1,10
5,1
13,159196762.89217263,99999999999999.0, 4,11,19,10,-99999999999999.0, 9,25,13,30
25,41783162.28383299,99999999999999.0, 1, 1, 1,10,-99999999999999.0, 8,12,14,10
61,40680000.0,99999999999999.0, 1, 1, 1,10,-99999999999999.0, 1, 1, 8,10
523,117413600.60833968,99999999999999.0, 3,27,14,10,-99999999999999.0, 9,25,13,30
639,0.0,99999999999999.0, 3,27,14,10,-99999999999999.0, 1, 1, 1,10
651,0.0,99999999999999.0, 3,27,14,10,-99999999999999.0, 1, 1, 1,10
End of Data
 Number of Records Written=          90
