Program Version,EnergyPlus, Version 24.2.0-94a887817b, YMD=2025.02.04 15:40
1,5,Environment Title[],Latitude[deg],Longitude[deg],Time Zone[],Elevation[m]
2,8,Day of Simulation[],Month[],Day of Month[],DST Indicator[1=yes 0=no],Hour[],StartMinute[],EndMinute[],DayType
3,5,Cumulative Day of Simulation[],Month[],Day of Month[],DST Indicator[1=yes 0=no],DayType  ! When Daily Meters Requested
4,2,Cumulative Days of Simulation[],Month[]  ! When Monthly Meters Requested
5,1,Cumulative Days of Simulation[] ! When Run Period Meters Requested
6,1,Calendar Year of Simulation[] ! When Annual Meters Requested
11,9,Electricity:Facility [J] !Monthly [Value,Min,Day,Hour,Minute,Max,Day,Hour,Minute]
23,9,Electricity:Building [J] !Monthly [Value,Min,Day,Hour,Minute,Max,Day,Hour,Minute]
59,9,InteriorLights:Electricity [J] !Monthly [Value,Min,Day,Hour,Minute,Max,Day,Hour,Minute]
521,9,Electricity:HVAC [J] !Monthly [Value,Min,Day,Hour,Minute,Max,Day,Hour,Minute]
637,9,NaturalGas:Facility [J] !Monthly [Value,Min,Day,Hour,Minute,Max,Day,Hour,Minute]
649,9,NaturalGas:HVAC [J] !Monthly [Value,Min,Day,Hour,Minute,Max,Day,Hour,Minute]
13,11,Electricity:Facility [J] !RunPeriod [Value,Min,Month,Day,Hour,Minute,Max,Month,Day,Hour,Minute]
25,11,Electricity:Building [J] !RunPeriod [Value,Min,Month,Day,Hour,Minute,Max,Month,Day,Hour,Minute]
61,11,InteriorLights:Electricity [J] !RunPeriod [Value,Min,Month,Day,Hour,Minute,Max,Month,Day,Hour,Minute]
523,11,Electricity:HVAC [J] !RunPeriod [Value,Min,Month,Day,Hour,Minute,Max,Month,Day,Hour,Minute]
639,11,NaturalGas:Facility [J] !RunPeriod [Value,Min,Month,Day,Hour,Minute,Max,Month,Day,Hour,Minute]
651,11,NaturalGas:HVAC [J] !RunPeriod [Value,Min,Month,Day,Hour,Minute,Max,Month,Day,Hour,Minute]
End of Data Dictionary
1,RUN PERIOD 1,  41.98, -87.92,  -6.00, 201.00
4,31, 1
11,9834765134.847754,408891.4285714286, 5, 6,50,2987962.394576184,16,13,60
23,995715033.6167974,30000.0, 1, 1,10,618489.1547947591, 1, 9,10
59,970200000.0,30000.0, 1, 1,10,600000.0, 1, 8,10
521,8839050101.230986,378891.4285714286, 5, 6,50,2369473.239781425,16,13,60
637,178881314445.86746,28185836.129288193,21,16,10,41250000.0, 1, 1,10
649,178881314445.86746,28185836.129288193,21,16,10,41250000.0, 1, 1,10
4,59, 2
11,9366723106.817577,99999999999999.0, 5, 6,50,3029423.8348393063,22,15,30
23,870346985.753732,99999999999999.0, 1, 1,10,-99999999999999.0, 1, 9,10
59,848160000.0,99999999999999.0, 1, 1,10,-99999999999999.0, 1, 8,10
521,8496376121.063895,99999999999999.0, 5, 6,50,2410934.680044547,22,15,30
637,158234532984.29727,26499662.543778658,23,12,10,-99999999999999.0, 1, 1,10
649,158234532984.29727,26499662.543778658,23,12,10,-99999999999999.0, 1, 1,10
4,90, 3
11,11007404303.035362,99999999999999.0, 5, 6,50,3274681.583609069,27,15,60
23,920776335.0414207,99999999999999.0, 1, 1,10,-99999999999999.0, 1, 9,10
59,897480000.0,99999999999999.0, 1, 1,10,-99999999999999.0, 1, 8,10
521,10086627967.993963,0.0,27,16,10,2656192.42881431,27,15,60
637,162402058301.15973,0.0,27,16,10,-99999999999999.0, 1, 1,10
649,162402058301.15973,0.0,27,16,10,-99999999999999.0, 1, 1,10
4,120, 4
11,9789625198.371397,30000.0,11,19,10,-99999999999999.0,27,15,60
23,953925684.3291087,99999999999999.0, 1, 1,10,-99999999999999.0, 1, 9,10
59,929520000.0,99999999999999.0, 1, 1,10,-99999999999999.0, 1, 8,10
521,8835699514.042341,99999999999999.0,27,16,10,-99999999999999.0,27,15,60
637,122085024460.97905,99999999999999.0,27,16,10,-99999999999999.0, 1, 1,10
649,122085024460.97905,99999999999999.0,27,16,10,-99999999999999.0, 1, 1,10
4,151, 5
11,9459540353.33348,99999999999999.0,11,19,10,-99999999999999.0,27,15,60
23,996098171.8638844,99999999999999.0, 1, 1,10,634387.4420617586,28,13,10
59,970200000.0,99999999999999.0, 1, 1,10,-99999999999999.0, 1, 8,10
521,8463442181.469646,99999999999999.0,27,16,10,-99999999999999.0,27,15,60
637,96146904982.02562,99999999999999.0,27,16,10,-99999999999999.0, 1, 1,10
649,96146904982.02562,99999999999999.0,27,16,10,-99999999999999.0, 1, 1,10
4,181, 6
11,7122955975.44964,99999999999999.0,11,19,10,-99999999999999.0,27,15,60
23,879131927.8391284,99999999999999.0, 1, 1,10,-99999999999999.0,28,13,10
59,856800000.0,99999999999999.0, 1, 1,10,-99999999999999.0, 1, 8,10
521,6243824047.61057,99999999999999.0,27,16,10,-99999999999999.0,27,15,60
637,45692500417.29511,99999999999999.0,27,16,10,-99999999999999.0, 1, 1,10
649,45692500417.29511,99999999999999.0,27,16,10,-99999999999999.0, 1, 1,10
4,212, 7
11,6718918785.685392,99999999999999.0,11,19,10,-99999999999999.0,27,15,60
23,995978667.6058024,99999999999999.0, 1, 1,10,-99999999999999.0,28,13,10
59,970200000.0,99999999999999.0, 1, 1,10,-99999999999999.0, 1, 8,10
521,5722940118.079645,99999999999999.0,27,16,10,2656989.644464278, 6,24,50
637,19449762995.522038,99999999999999.0,27,16,10,-99999999999999.0, 1, 1,10
649,19449762995.522038,99999999999999.0,27,16,10,-99999999999999.0, 1, 1,10
4,243, 8
11,5938007687.058504,99999999999999.0,11,19,10,3274791.8525976418,16,10,20
23,958585989.1117544,99999999999999.0, 1, 1,10,645847.6464395092, 6,11,60
59,933840000.0,99999999999999.0, 1, 1,10,-99999999999999.0, 1, 8,10
521,4979421697.946818,99999999999999.0,27,16,10,-99999999999999.0, 6,24,50
637,32865795555.427086,99999999999999.0,27,16,10,-99999999999999.0, 1, 1,10
649,32865795555.427086,99999999999999.0,27,16,10,-99999999999999.0, 1, 1,10
4,273, 9
11,8045547952.701494,99999999999999.0,11,19,10,3274795.1770448396,19,14,20
23,916583280.7262142,99999999999999.0, 1, 1,10,-99999999999999.0, 6,11,60
59,893160000.0,99999999999999.0, 1, 1,10,-99999999999999.0, 1, 8,10
521,7128964671.975339,99999999999999.0,27,16,10,-99999999999999.0, 6,24,50
637,71586193082.07411,99999999999999.0,27,16,10,-99999999999999.0, 1, 1,10
649,71586193082.07411,99999999999999.0,27,16,10,-99999999999999.0, 1, 1,10
4,304,10
11,10746352601.813635,99999999999999.0,11,19,10,-99999999999999.0,19,14,20
23,995836676.6525304,99999999999999.0, 1, 1,10,-99999999999999.0, 6,11,60
59,970200000.0,99999999999999.0, 1, 1,10,-99999999999999.0, 1, 8,10
521,9750515925.161137,99999999999999.0,27,16,10,-99999999999999.0, 6,24,50
637,129706755094.34944,99999999999999.0,27,16,10,-99999999999999.0, 1, 1,10
649,129706755094.34944,99999999999999.0,27,16,10,-99999999999999.0, 1, 1,10
4,334,11
11,10517010066.998049,99999999999999.0,11,19,10,-99999999999999.0,19,14,20
23,916456335.0414207,99999999999999.0, 1, 1,10,-99999999999999.0, 6,11,60
59,893160000.0,99999999999999.0, 1, 1,10,-99999999999999.0, 1, 8,10
521,9600553731.956675,99999999999999.0,27,16,10,2657833.78106265, 2,13,30
637,147842502753.27948,99999999999999.0,27,16,10,-99999999999999.0, 1, 1,10
649,147842502753.27948,99999999999999.0,27,16,10,-99999999999999.0, 1, 1,10
4,365,12
11,10447196304.712894,99999999999999.0,11,19,10,-99999999999999.0,19,14,20
23,958245684.3291091,99999999999999.0, 1, 1,10,-99999999999999.0, 6,11,60
59,933840000.0,99999999999999.0, 1, 1,10,-99999999999999.0, 1, 8,10
521,9488950620.383821,99999999999999.0,27,16,10,-99999999999999.0, 2,13,30
637,179708011868.56613,99999999999999.0,27,16,10,-99999999999999.0, 1, 1,10
649,179708011868.56613,99999999999999.0,27,16,10,-99999999999999.0, 1, 1,10
5,365
13,108994047470.83067,30000.0, 4,11,19,10,3274795.1770448396, 9,19,14,20
25,11357680771.909689,30000.0, 1, 1, 1,10,645847.6464395092, 8, 6,11,60
61,11066760000.0,30000.0, 1, 1, 1,10,600000.0, 1, 1, 8,10
523,97636366698.92082,0.0, 3,27,16,10,2657833.78106265,11, 2,13,30
639,1344601356940.838,0.0, 3,27,16,10,41250000.0, 1, 1, 1,10
651,1344601356940.838,0.0, 3,27,16,10,41250000.0, 1, 1, 1,10
1,RUN PERIOD 2,  41.98, -87.92,  -6.00, 201.00
4,1, 7
11,112231510.50266461,99999999999999.0,11,19,10,-99999999999999.0,19,14,20
23,41789349.287685595,99999999999999.0, 1, 1,10,-99999999999999.0, 6,11,60
59,40680000.0,99999999999999.0, 1, 1,10,-99999999999999.0, 1, 8,10
521,70442161.2149791,99999999999999.0,27,16,10,-99999999999999.0, 2,13,30
637,0.0,99999999999999.0,27,16,10,-99999999999999.0, 1, 1,10
649,0.0,99999999999999.0,27,16,10,-99999999999999.0, 1, 1,10
5,1
13,112231510.50266461,99999999999999.0, 4,11,19,10,-99999999999999.0, 9,19,14,20
25,41789349.287685595,99999999999999.0, 1, 1, 1,10,-99999999999999.0, 8, 6,11,60
61,40680000.0,99999999999999.0, 1, 1, 1,10,-99999999999999.0, 1, 1, 8,10
523,70442161.2149791,99999999999999.0, 3,27,16,10,-99999999999999.0,11, 2,13,30
639,0.0,99999999999999.0, 3,27,16,10,-99999999999999.0, 1, 1, 1,10
651,0.0,99999999999999.0, 3,27,16,10,-99999999999999.0, 1, 1, 1,10
End of Data
 Number of Records Written=          90
