Program Version,EnergyPlus, Version 24.1.0-9d7789a3ac, YMD=2025.04.05 15:40
1,5,Environment Title[],Latitude[deg],Longitude[deg],Time Zone[],Elevation[m]
2,8,Day of Simulation[],Month[],Day of Month[],DST Indicator[1=yes 0=no],Hour[],StartMinute[],EndMinute[],DayType
3,5,Cumulative Day of Simulation[],Month[],Day of Month[],DST Indicator[1=yes 0=no],DayType  ! When Daily Meters Requested
4,2,Cumulative Days of Simulation[],Month[]  ! When Monthly Meters Requested
5,1,Cumulative Days of Simulation[] ! When Run Period Meters Requested
6,1,Calendar Year of Simulation[] ! When Annual Meters Requested
11,9,Electricity:Facility [J] !Monthly [Value,Min,Day,Hour,Minute,Max,Day,Hour,Minute]
23,9,Electricity:Building [J] !Monthly [Value,Min,Day,Hour,Minute,Max,Day,Hour,Minute]
59,9,InteriorLights:Electricity [J] !Monthly [Value,Min,Day,Hour,Minute,Max,Day,Hour,Minute]
521,9,Electricity:HVAC [J] !Monthly [Value,Min,Day,Hour,Minute,Max,Day,Hour,Minute]
637,9,NaturalGas:Facility [J] !Monthly [Value,Min,Day,Hour,Minute,Max,Day,Hour,Minute]
649,9,NaturalGas:HVAC [J] !Monthly [Value,Min,Day,Hour,Minute,Max,Day,Hour,Minute]
13,11,Electricity:Facility [J] !RunPeriod [Value,Min,Month,Day,Hour,Minute,Max,Month,Day,Hour,Minute]
25,11,Electricity:Building [J] !RunPeriod [Value,Min,Month,Day,Hour,Minute,Max,Month,Day,Hour,Minute]
61,11,InteriorLights:Electricity [J] !RunPeriod [Value,Min,Month,Day,Hour,Minute,Max,Month,Day,Hour,Minute]
523,11,Electricity:HVAC [J] !RunPeriod [Value,Min,Month,Day,Hour,Minute,Max,Month,Day,Hour,Minute]
639,11,NaturalGas:Facility [J] !RunPeriod [Value,Min,Month,Day,Hour,Minute,Max,Month,Day,Hour,Minute]
651,11,NaturalGas:HVAC [J] !RunPeriod [Value,Min,Month,Day,Hour,Minute,Max,Month,Day,Hour,Minute]
End of Data Dictionary
1,RUN PERIOD 1,  41.98, -87.92,  -6.00, 201.00
4,31, 1
11,8114573850.427402,224622.34882882438,11,20,60,3564635.651682926,14,13,20
23,1886782710.9741263,103680.3904764126,11,20,40,1047867.9639750177,31,14,40
59,942511363.4655318,29143.826946988007, 1, 1,10,582876.5389397601, 1, 8,10
521,6227791139.453253,0.0,11,13,30,2593880.739836379,27,21,60
637,12015829526.501152,0.0, 1, 9,20,17214867.353959087,31, 7,10
649,12015829526.501152,0.0, 1, 9,20,17214867.353959087,31, 7,10
4,59, 2
11,6528181757.428118,150111.5200012611,27,19,20,-99999999999999.0,14,13,20
23,1663752377.8377807,99999999999999.0,11,20,40,1049053.7702266949, 4, 9,60
59,823954275.445201,99999999999999.0, 1, 1,10,-99999999999999.0, 1, 8,10
521,4864429379.590329,99999999999999.0,11,13,30,-99999999999999.0,27,21,60
637,9917895337.258345,99999999999999.0, 1, 9,20,17451930.652626604, 3, 8,30
649,9917895337.258345,99999999999999.0, 1, 9,20,17451930.652626604, 3, 8,30
4,90, 3
11,6259495901.511871,92256.99249011678,31,16,60,-99999999999999.0,14,13,20
23,1754331546.0246558,92256.99249011678,31,16,60,1057637.3794114017,18, 9,60
59,871866726.946041,99999999999999.0, 1, 1,10,-99999999999999.0, 1, 8,10
521,4505164355.487243,99999999999999.0,11,13,30,-99999999999999.0,27,21,60
637,7247657221.009443,99999999999999.0, 1, 9,20,-99999999999999.0, 3, 8,30
649,7247657221.009443,99999999999999.0, 1, 9,20,-99999999999999.0, 3, 8,30
4,120, 4
11,3811762811.863217,29143.826946988007, 5, 1,50,-99999999999999.0,14,13,20
23,1700475994.57077,29143.826946988007, 5, 1,50,-99999999999999.0,18, 9,60
59,902992334.1254203,99999999999999.0, 1, 1,10,-99999999999999.0, 1, 8,10
521,2111286817.2924638,99999999999999.0,11,13,30,-99999999999999.0,27,21,60
637,2479296360.6795306,99999999999999.0, 1, 9,20,-99999999999999.0, 3, 8,30
649,2479296360.6795306,99999999999999.0, 1, 9,20,-99999999999999.0, 3, 8,30
4,151, 5
11,2871179803.2260194,99999999999999.0, 5, 1,50,-99999999999999.0,14,13,20
23,1699454706.9915004,99999999999999.0, 5, 1,50,-99999999999999.0,18, 9,60
59,942511363.4655355,99999999999999.0, 1, 1,10,-99999999999999.0, 1, 8,10
521,1171725096.2345147,99999999999999.0,11,13,30,-99999999999999.0,27,21,60
637,493370167.3392417,99999999999999.0, 1, 9,20,-99999999999999.0, 3, 8,30
649,493370167.3392417,99999999999999.0, 1, 9,20,-99999999999999.0, 3, 8,30
4,181, 6
11,2875018887.5683055,99999999999999.0, 5, 1,50,-99999999999999.0,14,13,20
23,1448119336.071851,99999999999999.0, 5, 1,50,-99999999999999.0,18, 9,60
59,832347697.6059294,99999999999999.0, 1, 1,10,-99999999999999.0, 1, 8,10
521,1426899551.4964328,99999999999999.0,11,13,30,-99999999999999.0,27,21,60
637,11290585.416572807,99999999999999.0, 1, 9,20,-99999999999999.0, 3, 8,30
649,11290585.416572807,99999999999999.0, 1, 9,20,-99999999999999.0, 3, 8,30
4,212, 7
11,3765630064.494573,99999999999999.0, 5, 1,50,-99999999999999.0,14,13,20
23,1567441095.6517437,99999999999999.0, 5, 1,50,-99999999999999.0,18, 9,60
59,942511363.4655318,99999999999999.0, 1, 1,10,-99999999999999.0, 1, 8,10
521,2198188968.842815,99999999999999.0,11,13,30,-99999999999999.0,27,21,60
637,0.0,99999999999999.0, 1, 9,20,-99999999999999.0, 3, 8,30
649,0.0,99999999999999.0, 1, 9,20,-99999999999999.0, 3, 8,30
4,243, 8
11,3286090400.468468,99999999999999.0, 5, 1,50,-99999999999999.0,14,13,20
23,1544115675.5321157,99999999999999.0, 5, 1,50,-99999999999999.0,18, 9,60
59,907189045.2057883,99999999999999.0, 1, 1,10,-99999999999999.0, 1, 8,10
521,1741974724.9363348,99999999999999.0,11,13,30,-99999999999999.0,27,21,60
637,789018.89491296,99999999999999.0, 1, 9,20,-99999999999999.0, 3, 8,30
649,789018.89491296,99999999999999.0, 1, 9,20,-99999999999999.0, 3, 8,30
4,273, 9
11,2577842457.310628,99999999999999.0, 5, 1,50,-99999999999999.0,14,13,20
23,1524710794.9885228,99999999999999.0, 5, 1,50,-99999999999999.0,18, 9,60
59,867670015.8656749,99999999999999.0, 1, 1,10,-99999999999999.0, 1, 8,10
521,1053131662.322098,99999999999999.0,11,13,30,-99999999999999.0,27,21,60
637,14504450.563067988,99999999999999.0, 1, 9,20,-99999999999999.0, 3, 8,30
649,14504450.563067988,99999999999999.0, 1, 9,20,-99999999999999.0, 3, 8,30
4,304,10
11,3061321417.8461237,99999999999999.0, 5, 1,50,-99999999999999.0,14,13,20
23,1732145346.989213,99999999999999.0, 5, 1,50,-99999999999999.0,18, 9,60
59,942511363.4655318,99999999999999.0, 1, 1,10,-99999999999999.0, 1, 8,10
521,1329176070.856901,99999999999999.0,11,13,30,-99999999999999.0,27,21,60
637,1106035862.5518568,99999999999999.0, 1, 9,20,-99999999999999.0, 3, 8,30
649,1106035862.5518568,99999999999999.0, 1, 9,20,-99999999999999.0, 3, 8,30
4,334,11
11,5343870314.583653,99999999999999.0, 5, 1,50,-99999999999999.0,14,13,20
23,1691813010.0304172,99999999999999.0, 5, 1,50,-99999999999999.0,18, 9,60
59,867670015.8656768,99999999999999.0, 1, 1,10,-99999999999999.0, 1, 8,10
521,3652057304.5532417,99999999999999.0,11,13,30,-99999999999999.0,27,21,60
637,5868389449.103739,99999999999999.0, 1, 9,20,-99999999999999.0, 3, 8,30
649,5868389449.103739,99999999999999.0, 1, 9,20,-99999999999999.0, 3, 8,30
4,365,12
11,6627176970.962699,99999999999999.0, 5, 1,50,-99999999999999.0,14,13,20
23,1783673578.3120673,99999999999999.0, 5, 1,50,-99999999999999.0,18, 9,60
59,907189045.2057863,99999999999999.0, 1, 1,10,-99999999999999.0, 1, 8,10
521,4843503392.650608,99999999999999.0,11,13,30,-99999999999999.0,27,21,60
637,7628541285.562439,99999999999999.0, 1, 9,20,-99999999999999.0, 3, 8,30
649,7628541285.562439,99999999999999.0, 1, 9,20,-99999999999999.0, 3, 8,30
5,365
13,55122144637.69079,29143.826946988007, 4, 5, 1,50,3564635.651682926, 1,14,13,20
25,19996816173.97372,29143.826946988007, 4, 5, 1,50,1057637.3794114017, 3,18, 9,60
61,10750924610.12898,29143.826946988007, 1, 1, 1,10,582876.5389397601, 1, 1, 8,10
523,35125328463.71612,0.0, 1,11,13,30,2593880.739836379, 1,27,21,60
639,46783599264.88012,0.0, 1, 1, 9,20,17451930.652626604, 2, 3, 8,30
651,46783599264.88012,0.0, 1, 1, 9,20,17451930.652626604, 2, 3, 8,30
End of Data
 Number of Records Written=          78
