Program Version,EnergyPlus, Version 24.2.0-94a887817b, YMD=2025.02.04 15:53
1,5,Environment Title[],Latitude[deg],Longitude[deg],Time Zone[],Elevation[m]
2,8,Day of Simulation[],Month[],Day of Month[],DST Indicator[1=yes 0=no],Hour[],StartMinute[],EndMinute[],DayType
3,5,Cumulative Day of Simulation[],Month[],Day of Month[],DST Indicator[1=yes 0=no],DayType  ! When Daily Meters Requested
4,2,Cumulative Days of Simulation[],Month[]  ! When Monthly Meters Requested
5,1,Cumulative Days of Simulation[] ! When Run Period Meters Requested
6,1,Calendar Year of Simulation[] ! When Annual Meters Requested
11,9,Electricity:Facility [J] !Monthly [Value,Min,Day,Hour,Minute,Max,Day,Hour,Minute]
23,9,Electricity:Building [J] !Monthly [Value,Min,Day,Hour,Minute,Max,Day,Hour,Minute]
59,9,InteriorLights:Electricity [J] !Monthly [Value,Min,Day,Hour,Minute,Max,Day,Hour,Minute]
521,9,Electricity:HVAC [J] !Monthly [Value,Min,Day,Hour,Minute,Max,Day,Hour,Minute]
637,9,NaturalGas:Facility [J] !Monthly [Value,Min,Day,Hour,Minute,Max,Day,Hour,Minute]
649,9,NaturalGas:HVAC [J] !Monthly [Value,Min,Day,Hour,Minute,Max,Day,Hour,Minute]
13,11,Electricity:Facility [J] !RunPeriod [Value,Min,Month,Day,Hour,Minute,Max,Month,Day,Hour,Minute]
25,11,Electricity:Building [J] !RunPeriod [Value,Min,Month,Day,Hour,Minute,Max,Month,Day,Hour,Minute]
61,11,InteriorLights:Electricity [J] !RunPeriod [Value,Min,Month,Day,Hour,Minute,Max,Month,Day,Hour,Minute]
523,11,Electricity:HVAC [J] !RunPeriod [Value,Min,Month,Day,Hour,Minute,Max,Month,Day,Hour,Minute]
639,11,NaturalGas:Facility [J] !RunPeriod [Value,Min,Month,Day,Hour,Minute,Max,Month,Day,Hour,Minute]
651,11,NaturalGas:HVAC [J] !RunPeriod [Value,Min,Month,Day,Hour,Minute,Max,Month,Day,Hour,Minute]
End of Data Dictionary
1,RUN PERIOD 1,  41.98, -87.92,  -6.00, 201.00
4,31, 1
11,13061295039.768755,288978.5416073877,12, 1,20,5103007.298922935,31,14,60
23,5130483569.815838,167659.8542378305,19,16,60,3204620.5464071124,31,14,60
59,2457332581.2994456,75984.30987320942, 1, 1,10,1519686.1974641883, 1, 8,10
521,7930811469.952886,120000.0, 1, 7,10,2578343.3771823416,27,19,50
637,4154302940.0975223,0.0, 1, 1,10,14509297.840025749,31, 7,60
649,4154302940.0975223,0.0, 1, 1,10,14509297.840025749,31, 7,60
4,59, 2
11,11613280018.110018,99999999999999.0,12, 1,20,5103631.544362366, 4, 9,60
23,4495278161.699662,167120.93031825643, 9,13,60,3205244.7918465445, 4, 9,60
59,2148228408.735285,99999999999999.0, 1, 1,10,-99999999999999.0, 1, 8,10
521,7118001856.410293,0.0,15, 7,20,-99999999999999.0,27,19,50
637,6172084020.5446,99999999999999.0, 1, 1,10,21310632.175353937, 3, 8,20
649,6172084020.5446,99999999999999.0, 1, 1,10,21310632.175353937, 3, 8,20
4,90, 3
11,12001102121.82368,143063.29476437063,31,16,60,5113984.557755638,18, 9,60
23,4740569209.03068,143063.29476437063,31,16,60,3215597.8052398157,18, 9,60
59,2273146614.166791,99999999999999.0, 1, 1,10,-99999999999999.0, 1, 8,10
521,7260532912.792927,99999999999999.0,15, 7,20,-99999999999999.0,27,19,50
637,2974373148.40567,99999999999999.0, 1, 1,10,-99999999999999.0, 3, 8,20
649,2974373148.40567,99999999999999.0, 1, 1,10,-99999999999999.0, 3, 8,20
4,120, 4
11,11363903413.624054,75984.30987320942,20,17,50,5269223.970646465,15,14,60
23,4819142684.992216,75984.30987320942,13,12,60,-99999999999999.0,18, 9,60
59,2354297857.1113935,99999999999999.0, 1, 1,10,-99999999999999.0, 1, 8,10
521,6544760728.631737,99999999999999.0,15, 7,20,-99999999999999.0,27,19,50
637,912017216.7164614,99999999999999.0, 1, 1,10,-99999999999999.0, 3, 8,20
649,912017216.7164614,99999999999999.0, 1, 1,10,-99999999999999.0, 3, 8,20
4,151, 5
11,11640007386.44926,99999999999999.0,20,17,50,5400736.642356141,30,16,60
23,4968605086.328943,99999999999999.0,13,12,60,-99999999999999.0,18, 9,60
59,2457332581.2994456,99999999999999.0, 1, 1,10,-99999999999999.0, 1, 8,10
521,6671402300.120262,99999999999999.0,15, 7,20,-99999999999999.0,27,19,50
637,150877732.89195395,99999999999999.0, 1, 1,10,-99999999999999.0, 3, 8,20
649,150877732.89195395,99999999999999.0, 1, 1,10,-99999999999999.0, 3, 8,20
4,181, 6
11,10621288638.729704,99999999999999.0,20,17,50,5423692.960358363,24,16,60
23,4323895373.798045,99999999999999.0,13,12,60,-99999999999999.0,18, 9,60
59,2170111889.978739,99999999999999.0, 1, 1,10,-99999999999999.0, 1, 8,10
521,6297393264.93163,99999999999999.0,15, 7,20,-99999999999999.0,27,19,50
637,14138439.708376542,99999999999999.0, 1, 1,10,-99999999999999.0, 3, 8,20
649,14138439.708376542,99999999999999.0, 1, 1,10,-99999999999999.0, 3, 8,20
4,212, 7
11,12278018796.740377,99999999999999.0,20,17,50,-99999999999999.0,24,16,60
23,4870806171.787901,99999999999999.0,13,12,60,-99999999999999.0,18, 9,60
59,2457332581.2994456,99999999999999.0, 1, 1,10,-99999999999999.0, 1, 8,10
521,7407212624.952379,99999999999999.0,15, 7,20,-99999999999999.0,27,19,50
637,0.0,99999999999999.0, 1, 1,10,-99999999999999.0, 3, 8,20
649,0.0,99999999999999.0, 1, 1,10,-99999999999999.0, 3, 8,20
4,243, 8
11,11746506348.461327,99999999999999.0,20,17,50,5557791.029675901,23,16,60
23,4695622821.386828,99999999999999.0,13,12,60,-99999999999999.0,18, 9,60
59,2365239597.73312,99999999999999.0, 1, 1,10,-99999999999999.0, 1, 8,10
521,7050883527.074447,99999999999999.0,15, 7,20,-99999999999999.0,27,19,50
637,4534178.651008971,99999999999999.0, 1, 1,10,-99999999999999.0, 3, 8,20
649,4534178.651008971,99999999999999.0, 1, 1,10,-99999999999999.0, 3, 8,20
4,273, 9
11,10756537240.291323,99999999999999.0,20,17,50,-99999999999999.0,23,16,60
23,4531061232.077466,99999999999999.0,13,12,60,-99999999999999.0,18, 9,60
59,2262204873.5450664,99999999999999.0, 1, 1,10,-99999999999999.0, 1, 8,10
521,6225476008.213766,99999999999999.0,15, 7,20,-99999999999999.0,27,19,50
637,22162797.64594308,99999999999999.0, 1, 1,10,-99999999999999.0, 3, 8,20
649,22162797.64594308,99999999999999.0, 1, 1,10,-99999999999999.0, 3, 8,20
4,304,10
11,11474065882.192633,99999999999999.0,20,17,50,-99999999999999.0,23,16,60
23,5000483262.941627,99999999999999.0,13,12,60,-99999999999999.0,18, 9,60
59,2457332581.2994456,99999999999999.0, 1, 1,10,-99999999999999.0, 1, 8,10
521,6473582619.250918,99999999999999.0,15, 7,20,-99999999999999.0,27,19,50
637,159449241.53302458,99999999999999.0, 1, 1,10,-99999999999999.0, 3, 8,20
649,159449241.53302458,99999999999999.0, 1, 1,10,-99999999999999.0, 3, 8,20
4,334,11
11,11446818979.53803,99999999999999.0,20,17,50,-99999999999999.0,23,16,60
23,4674194111.778724,99999999999999.0,13,12,60,-99999999999999.0,18, 9,60
59,2262204873.545064,99999999999999.0, 1, 1,10,-99999999999999.0, 1, 8,10
521,6772624867.759262,99999999999999.0,15, 7,20,-99999999999999.0,27,19,50
637,2227724488.083588,99999999999999.0, 1, 1,10,-99999999999999.0, 3, 8,20
649,2227724488.083588,99999999999999.0, 1, 1,10,-99999999999999.0, 3, 8,20
4,365,12
11,12114964091.447662,99999999999999.0,20,17,50,-99999999999999.0,23,16,60
23,4900248805.794598,99999999999999.0,13,12,60,-99999999999999.0,18, 9,60
59,2365239597.7331185,99999999999999.0, 1, 1,10,-99999999999999.0, 1, 8,10
521,7214715285.65307,99999999999999.0,15, 7,20,-99999999999999.0,27,19,50
637,2832691925.8890038,99999999999999.0, 1, 1,10,-99999999999999.0, 3, 8,20
649,2832691925.8890038,99999999999999.0, 1, 1,10,-99999999999999.0, 3, 8,20
5,365
13,140117787957.17755,75984.30987320942, 4,20,17,50,5557791.029675901, 8,23,16,60
25,57150390491.43223,75984.30987320942, 4,13,12,60,3215597.8052398157, 3,18, 9,60
61,28030004037.730892,75984.30987320942, 1, 1, 1,10,1519686.1974641883, 1, 1, 8,10
523,82967397465.7738,0.0, 2,15, 7,20,2578343.3771823416, 1,27,19,50
639,19624356130.16719,0.0, 1, 1, 1,10,21310632.175353937, 2, 3, 8,20
651,19624356130.16719,0.0, 1, 1, 1,10,21310632.175353937, 2, 3, 8,20
1,RUN PERIOD 2,  41.98, -87.92,  -6.00, 201.00
4,1, 7
11,493366002.27424717,99999999999999.0,20,17,50,-99999999999999.0,23,16,60
23,206264473.031602,99999999999999.0,13,12,60,-99999999999999.0,18, 9,60
59,103034724.18807189,99999999999999.0, 1, 1,10,-99999999999999.0, 1, 8,10
521,287101529.24264497,99999999999999.0,15, 7,20,-99999999999999.0,27,19,50
637,0.0,99999999999999.0, 1, 1,10,-99999999999999.0, 3, 8,20
649,0.0,99999999999999.0, 1, 1,10,-99999999999999.0, 3, 8,20
5,1
13,493366002.27424717,99999999999999.0, 4,20,17,50,-99999999999999.0, 8,23,16,60
25,206264473.031602,99999999999999.0, 4,13,12,60,-99999999999999.0, 3,18, 9,60
61,103034724.18807189,99999999999999.0, 1, 1, 1,10,-99999999999999.0, 1, 1, 8,10
523,287101529.24264497,99999999999999.0, 2,15, 7,20,-99999999999999.0, 1,27,19,50
639,0.0,99999999999999.0, 1, 1, 1,10,-99999999999999.0, 2, 3, 8,20
651,0.0,99999999999999.0, 1, 1, 1,10,-99999999999999.0, 2, 3, 8,20
End of Data
 Number of Records Written=          90
