Program Version,EnergyPlus, Version 24.2.0-94a887817b, YMD=2025.02.12 11:47
1,5,Environment Title[],Latitude[deg],Longitude[deg],Time Zone[],Elevation[m]
2,8,Day of Simulation[],Month[],Day of Month[],DST Indicator[1=yes 0=no],Hour[],StartMinute[],EndMinute[],DayType
3,5,Cumulative Day of Simulation[],Month[],Day of Month[],DST Indicator[1=yes 0=no],DayType  ! When Daily Report Variables Requested
4,2,Cumulative Days of Simulation[],Month[]  ! When Monthly Report Variables Requested
5,1,Cumulative Days of Simulation[] ! When Run Period Report Variables Requested
6,1,Calendar Year of Simulation[] ! When Annual Report Variables Requested
250,1,LIVING ZONE,Zone Air Temperature [C] !TimeStep,REPORTSCH
251,1,LIVING ZONE,Zone Air System Sensible Heating Energy [J] !TimeStep,REPORTSCH
336,1,LIVING ZONE,Zone Air System Sensible Cooling Energy [J] !TimeStep,REPORTSCH
385,1,LIVING ZONE,Zone Thermostat Heating Setpoint Temperature [C] !TimeStep,REPORTSCH
386,1,LIVING ZONE,Zone Thermostat Cooling Setpoint Temperature [C] !TimeStep,REPORTSCH
387,1,GARAGE ZONE,Zone Air Temperature [C] !TimeStep,REPORTSCH
388,1,GARAGE ZONE,Zone Air System Sensible Heating Energy [J] !TimeStep,REPORTSCH
425,1,GARAGE ZONE,Zone Air System Sensible Cooling Energy [J] !TimeStep,REPORTSCH
450,1,GARAGE ZONE,Zone Thermostat Heating Setpoint Temperature [C] !TimeStep,REPORTSCH
451,1,GARAGE ZONE,Zone Thermostat Cooling Setpoint Temperature [C] !TimeStep,REPORTSCH
452,1,ATTIC ZONE,Zone Air Temperature [C] !TimeStep,REPORTSCH
453,1,ATTIC ZONE,Zone Air System Sensible Heating Energy [J] !TimeStep,REPORTSCH
490,1,ATTIC ZONE,Zone Air System Sensible Cooling Energy [J] !TimeStep,REPORTSCH
515,1,ATTIC ZONE,Zone Thermostat Heating Setpoint Temperature [C] !TimeStep,REPORTSCH
516,1,ATTIC ZONE,Zone Thermostat Cooling Setpoint Temperature [C] !TimeStep,REPORTSCH
542,1,ACDXCOIL 1,Cooling Coil Total Cooling Energy [J] !TimeStep,REPORTSCH
592,1,HEAT PUMP DX HEATING COIL 1,Heating Coil Heating Energy [J] !TimeStep,REPORTSCH
632,1,SUPP HEATING COIL 1,Heating Coil Heating Energy [J] !TimeStep,REPORTSCH
686,1,TWOSPEED HEAT PUMP 1,Unitary System DX Coil Cycling Ratio [] !TimeStep,REPORTSCH
687,1,TWOSPEED HEAT PUMP 1,Unitary System DX Coil Speed Ratio [] !TimeStep,REPORTSCH
688,1,TWOSPEED HEAT PUMP 1,Unitary System DX Coil Speed Level [] !TimeStep,REPORTSCH
End of Data Dictionary
1,RUN PERIOD 1,  41.98, -87.92,  -6.00, 201.00
2,21, 1,21, 0, 1, 0.00,10.00,Monday
250,22.497980827578196
251,5677050.786365859
336,0.0
385,22.256666666666668
386,26.29
387,0.6153687236640686
388,0.0
425,0.0
450,0.0
451,0.0
452,-1.6338857239419244
453,0.0
490,0.0
515,0.0
516,0.0
542,0.0
592,2588381.745386075
632,2989519.5155665614
686,0.5423622460056077
687,0.5
688,1.1666666666666667
2,21, 1,21, 0, 1,10.00,20.00,Monday
250,22.87876398586139
251,5518280.56110051
336,0.0
385,22.923333333333332
386,26.29
387,0.5909053181845882
388,0.0
425,0.0
450,0.0
451,0.0
452,-1.6221634143588948
453,0.0
490,0.0
515,0.0
516,0.0
542,0.0
592,3364931.57112612
632,2134648.568130217
686,0.7019961985173263
687,0.6666666666666667
688,1.6666666666666667
2,21, 1,21, 0, 1,20.00,30.00,Monday
250,23.11467596388712
251,6804304.370462006
336,0.0
385,23.59
386,26.29
387,0.5614151189767422
388,0.0
425,0.0
450,0.0
451,0.0
452,-1.6105849382025776
453,0.0
490,0.0
515,0.0
516,0.0
542,0.0
592,4846761.733937547
632,2506061.278898849
686,1.0
687,1.0
688,2.0
2,21, 1,21, 0, 1,30.00,40.00,Monday
250,23.544820015316034
251,7908596.106875252
336,0.0
385,23.59
386,26.29
387,0.5354357724610328
388,0.0
425,0.0
450,0.0
451,0.0
452,-1.6034046314985146
453,0.0
490,0.0
515,0.0
516,0.0
542,0.0
592,4829217.093357858
632,2945022.23741635
686,1.0
687,1.0
688,2.0
2,21, 1,21, 0, 1,40.00,50.00,Monday
250,22.49384759079079
251,5757913.612406984
336,0.0
385,22.256666666666636
386,26.289999999999964
387,0.5135438722515172
388,0.0
425,0.0
450,0.0
451,0.0
452,-1.600147472598983
453,0.0
490,0.0
515,0.0
516,0.0
542,0.0
592,2570369.2795314128
632,3089634.1552157267
686,0.5468475311694175
687,0.49999999999999933
688,1.166666666666665
2,21, 1,21, 0, 1,50.00,60.00,Monday
250,22.880182872549994
251,5602953.797672567
336,0.0
385,22.923333333333353
386,26.29000000000002
387,0.4902330348622941
388,0.0
425,0.0
450,0.0
451,0.0
452,-1.598051968558217
453,0.0
490,0.0
515,0.0
516,0.0
542,0.0
592,3344356.4936394403
632,2233416.814203795
686,0.7087075748120023
687,0.6666666666666672
688,1.6666666666666679
2,21, 1,21, 0, 2, 0.00,10.00,Monday
250,23.11675264986472
251,6867269.580610564
336,0.0
385,23.59
386,26.29
387,0.46198941185070824
388,0.0
425,0.0
450,0.0
451,0.0
452,-1.597716499212243
453,0.0
490,0.0
515,0.0
516,0.0
542,0.0
592,4799295.479378991
632,2615289.321997393
686,1.0
687,1.0
688,2.0
2,21, 1,21, 0, 2,10.00,20.00,Monday
250,23.545055982523458
251,7956928.932989251
336,0.0
385,23.59
386,26.29
387,0.43683094709228076
388,0.0
425,0.0
450,0.0
451,0.0
452,-1.601016483851153
453,0.0
490,0.0
515,0.0
516,0.0
542,0.0
592,4797577.066828383
632,3024480.3318155687
686,1.0
687,1.0
688,2.0
2,21, 1,21, 0, 2,20.00,30.00,Monday
250,22.4922192773912
251,5789585.6917554885
336,0.0
385,22.256666666666685
386,26.290000000000024
387,0.4152593228658311
388,0.0
425,0.0
450,0.0
451,0.0
452,-1.6083826840039732
453,0.0
490,0.0
515,0.0
516,0.0
542,0.0
592,2567910.52704206
632,3124265.5311341067
686,0.5485774023384182
687,0.5000000000000004
688,1.1666666666666674
2,21, 1,21, 0, 2,30.00,40.00,Monday
250,22.880438748171713
251,5622706.144209192
336,0.0
385,22.923333333333353
386,26.29000000000002
387,0.39193069208757814
388,0.0
425,0.0
450,0.0
451,0.0
452,-1.6193025847763018
453,0.0
490,0.0
515,0.0
516,0.0
542,0.0
592,3349069.244106908
632,2247305.931601994
686,0.7100690407914718
687,0.6666666666666672
688,1.6666666666666679
2,21, 1,21, 0, 2,40.00,50.00,Monday
250,23.1173689338564
251,6883971.891725685
336,0.0
385,23.59
386,26.29
387,0.36323808968183446
388,0.0
425,0.0
450,0.0
451,0.0
452,-1.635124207407738
453,0.0
490,0.0
515,0.0
516,0.0
542,0.0
592,4799296.981374809
632,2631926.8209212827
686,1.0
687,1.0
688,2.0
2,21, 1,21, 0, 2,50.00,60.00,Monday
250,23.545126489829027
251,7971658.850111987
336,0.0
385,23.59
386,26.29
387,0.33744672255745656
388,0.0
425,0.0
450,0.0
451,0.0
452,-1.6516346696746176
453,0.0
490,0.0
515,0.0
516,0.0
542,0.0
592,4797576.143123185
632,3039065.567722084
686,1.0
687,1.0
688,2.0
2,21, 1,21, 0, 3, 0.00,10.00,Monday
250,22.491004239145145
251,5812789.643602986
336,0.0
385,22.256666666666668
386,26.29
387,0.31571104584297205
388,0.0
425,0.0
450,0.0
451,0.0
452,-1.6662098024079022
453,0.0
490,0.0
515,0.0
516,0.0
542,0.0
592,2571995.7339069415
632,3143775.507686344
686,0.5497575775325161
687,0.5
688,1.1666666666666667
2,21, 1,21, 0, 3,10.00,20.00,Monday
250,22.88103048714289
251,5658764.39520635
336,0.0
385,22.923333333333332
386,26.29
387,0.29294505525927717
388,0.0
425,0.0
450,0.0
451,0.0
452,-1.6780657902435465
453,0.0
490,0.0
515,0.0
516,0.0
542,0.0
592,3358450.0711717405
632,2271299.296905029
686,0.7127793147485314
687,0.6666666666666667
688,1.6666666666666667
2,21, 1,21, 0, 3,20.00,30.00,Monday
250,23.118419779600217
251,6928648.028113751
336,0.0
385,23.59
386,26.29
387,0.26592991051122805
388,0.0
425,0.0
450,0.0
451,0.0
452,-1.685893788490676
453,0.0
490,0.0
515,0.0
516,0.0
542,0.0
592,4799300.131595137
632,2676223.9315221123
686,1.0
687,1.0
688,2.0
2,21, 1,21, 0, 3,30.00,40.00,Monday
250,23.54526381650126
251,8026647.491893703
336,0.0
385,23.59
386,26.29
387,0.24289456847879348
388,0.0
425,0.0
450,0.0
451,0.0
452,-1.6864530787323164
453,0.0
490,0.0
515,0.0
516,0.0
542,0.0
592,4797574.457644708
632,3093793.0054784035
686,1.0
687,1.0
688,2.0
2,21, 1,21, 0, 3,40.00,50.00,Monday
250,22.48825286541555
251,5865156.772480703
336,0.0
385,22.256666666666636
386,26.289999999999964
387,0.22439353700315517
388,0.0
425,0.0
450,0.0
451,0.0
452,-1.6819952952056065
453,0.0
490,0.0
515,0.0
516,0.0
542,0.0
592,2581136.0817602123
632,3187888.7936513503
686,0.5523981399957005
687,0.49999999999999933
688,1.166666666666665
2,21, 1,21, 0, 3,50.00,60.00,Monday
250,22.881906067076677
251,5714218.883278247
336,0.0
385,22.923333333333353
386,26.29000000000002
387,0.20540915625300865
388,0.0
425,0.0
450,0.0
451,0.0
452,-1.674482982553395
453,0.0
490,0.0
515,0.0
516,0.0
542,0.0
592,3373160.6252071233
632,2307980.8352408293
686,0.7170293431991672
687,0.6666666666666672
688,1.6666666666666679
2,21, 1,21, 0, 4, 0.00,10.00,Monday
250,23.120161196069237
251,7044676.546098997
336,0.0
385,23.59
386,26.29
387,0.17874088688260759
388,0.0
425,0.0
450,0.0
451,0.0
452,-1.664503486242412
453,0.0
490,0.0
515,0.0
516,0.0
542,0.0
592,4794902.734401092
632,2796056.7606811435
686,1.0
687,1.0
688,2.0
2,21, 1,21, 0, 4,10.00,20.00,Monday
250,23.545524253641247
251,8209867.882657689
336,0.0
385,23.59
386,26.29
387,0.15061907610483277
388,0.0
425,0.0
450,0.0
451,0.0
452,-1.6573214036815558
453,0.0
490,0.0
515,0.0
516,0.0
542,0.0
592,4787735.207042072
632,3286412.0000088997
686,1.0
687,1.0
688,2.0
2,21, 1,21, 0, 4,20.00,30.00,Monday
250,22.47508479122713
251,6114493.149493796
336,0.0
385,22.256666666666685
386,26.290000000000024
387,0.123387568204362
388,0.0
425,0.0
450,0.0
451,0.0
452,-1.6548804264739934
453,0.0
490,0.0
515,0.0
516,0.0
542,0.0
592,2617176.0144709223
632,3405442.6370392144
686,0.565121694622976
687,0.5000000000000004
688,1.1666666666666674
2,21, 1,21, 0, 4,30.00,40.00,Monday
250,22.88763085035579
251,6054186.484383154
336,0.0
385,22.923333333333353
386,26.29000000000002
387,0.0927610326742419
388,0.0
425,0.0
450,0.0
451,0.0
452,-1.6562967066700853
453,0.0
490,0.0
515,0.0
516,0.0
542,0.0
592,3453791.3781393934
632,2540410.011273583
686,0.7446287003273079
687,0.6666666666666672
688,1.6666666666666679
2,21, 1,21, 0, 4,40.00,50.00,Monday
250,23.12704153068761
251,7354231.173230951
336,0.0
385,23.59
386,26.29
387,0.05377708545889348
388,0.0
425,0.0
450,0.0
451,0.0
452,-1.6630571790952406
453,0.0
490,0.0
515,0.0
516,0.0
542,0.0
592,4775772.405828973
632,3118383.131552912
686,1.0
687,1.0
688,2.0
2,21, 1,21, 0, 4,50.00,60.00,Monday
250,23.546333485048315
251,8528380.9806692
336,0.0
385,23.59
386,26.29
387,0.017661292172481226
388,0.0
425,0.0
450,0.0
451,0.0
452,-1.6730658511817682
453,0.0
490,0.0
515,0.0
516,0.0
542,0.0
592,4766201.781239077
632,3624667.2192422627
686,1.0
687,1.0
688,2.0
2,21, 1,21, 0, 5, 0.00,10.00,Monday
250,22.464224176091335
251,6321088.838390576
336,0.0
385,22.256666666666668
386,26.29
387,-0.005213549638948504
388,0.0
425,0.0
450,0.0
451,0.0
452,-1.6805685197354734
453,0.0
490,0.0
515,0.0
516,0.0
542,0.0
592,2642232.4481279682
632,3590491.97703566
686,0.5759037114378598
687,0.5
688,1.1666666666666667
2,21, 1,21, 0, 5,10.00,20.00,Monday
250,22.88907291613941
251,6160407.342281579
336,0.0
385,22.923333333333332
386,26.29
387,-0.02286026780024525
388,0.0
425,0.0
450,0.0
451,0.0
452,-1.6829366212069594
453,0.0
490,0.0
515,0.0
516,0.0
542,0.0
592,3466767.451465907
632,2626584.1601499687
686,0.7532266471226161
687,0.6666666666666667
688,1.6666666666666667
2,21, 1,21, 0, 5,20.00,30.00,Monday
250,23.128815984957363
251,7333297.905112642
336,0.0
385,23.59
386,26.29
387,-0.03855229197532189
388,0.0
425,0.0
450,0.0
451,0.0
452,-1.676742532108881
453,0.0
490,0.0
515,0.0
516,0.0
542,0.0
592,4751068.37217802
632,3120007.247264207
686,1.0
687,1.0
688,2.0
2,21, 1,21, 0, 5,30.00,40.00,Monday
250,23.546471481006098
251,8397328.137115574
336,0.0
385,23.59
386,26.29
387,-0.04839090944943254
388,0.0
425,0.0
450,0.0
451,0.0
452,-1.661566036463201
453,0.0
490,0.0
515,0.0
516,0.0
542,0.0
592,4741097.955683708
632,3518245.607640723
686,1.0
687,1.0
688,2.0
2,21, 1,21, 0, 5,40.00,50.00,Monday
250,22.471281496420115
251,6187949.715873264
336,0.0
385,22.256666666666636
386,26.289999999999964
387,-0.05302231970803708
388,0.0
425,0.0
450,0.0
451,0.0
452,-1.6397099640794353
453,0.0
490,0.0
515,0.0
516,0.0
542,0.0
592,2605332.740416508
632,3491868.057154623
686,0.5695132666864675
687,0.49999999999999933
688,1.166666666666665
2,21, 1,21, 0, 5,50.00,60.00,Monday
250,22.8867997843642
251,6017152.912526832
336,0.0
385,22.923333333333353
386,26.29000000000002
387,-0.05564369113105308
388,0.0
425,0.0
450,0.0
451,0.0
452,-1.6111989829800821
453,0.0
490,0.0
515,0.0
516,0.0
542,0.0
592,3406661.9687121487
632,2554346.4676688835
686,0.7416071507339762
687,0.6666666666666672
688,1.6666666666666679
2,21, 1,21, 0, 6, 0.00,10.00,Monday
250,23.12685352833489
251,7291255.644858177
336,0.0
385,23.59
386,26.29
387,-0.06508949313656344
388,0.0
425,0.0
450,0.0
451,0.0
452,-1.5790984645797412
453,0.0
490,0.0
515,0.0
516,0.0
542,0.0
592,4724159.51165648
632,3108082.687290953
686,1.0
687,1.0
688,2.0
2,21, 1,21, 0, 6,10.00,20.00,Monday
250,23.546304809980438
251,8436332.844693266
336,0.0
385,23.59
386,26.29
387,-0.08183317877474608
388,0.0
425,0.0
450,0.0
451,0.0
452,-1.561604237220868
453,0.0
490,0.0
515,0.0
516,0.0
542,0.0
592,4717787.749604856
632,3581092.575309803
686,1.0
687,1.0
688,2.0
2,21, 1,21, 0, 6,20.00,30.00,Monday
250,22.464740966138656
251,6311630.289357189
336,0.0
385,22.256666666666685
386,26.290000000000024
387,-0.10245065821306645
388,0.0
425,0.0
450,0.0
451,0.0
452,-1.560954368120398
453,0.0
490,0.0
515,0.0
516,0.0
542,0.0
592,2616775.548071958
632,3606212.9032310303
686,0.5761424108887196
687,0.5000000000000004
688,1.1666666666666674
2,21, 1,21, 0, 6,30.00,40.00,Monday
250,22.89072577604756
251,6241191.358250836
336,0.0
385,22.923333333333353
386,26.29000000000002
387,-0.12742199775509427
388,0.0
425,0.0
450,0.0
451,0.0
452,-1.5704609264473652
453,0.0
490,0.0
515,0.0
516,0.0
542,0.0
592,3457933.5771432966
632,2708657.894461108
686,0.7604209155032933
687,0.6666666666666672
688,1.6666666666666679
2,21, 1,21, 0, 6,40.00,50.00,Monday
250,23.131159016471923
251,7496700.681917011
336,0.0
385,23.59
386,26.29
387,-0.16110096381540015
388,0.0
425,0.0
450,0.0
451,0.0
452,-1.5922065206211367
453,0.0
490,0.0
515,0.0
516,0.0
542,0.0
592,4708138.187302496
632,3325180.5809993087
686,1.0
687,1.0
688,2.0
2,21, 1,21, 0, 6,50.00,60.00,Monday
250,23.546796932307434
251,8646390.481951553
336,0.0
385,23.59
386,26.29
387,-0.19348516307576352
388,0.0
425,0.0
450,0.0
451,0.0
452,-1.6204464135055314
453,0.0
490,0.0
515,0.0
516,0.0
542,0.0
592,4699379.6864309795
632,3808441.566322484
686,1.0
687,1.0
688,2.0
2,21, 1,21, 0, 7, 0.00,10.00,Monday
250,22.45402345943944
251,6514550.021969618
336,0.0
385,22.256666666666668
386,26.29
387,-0.22714198388744936
388,0.0
425,0.0
450,0.0
451,0.0
452,-1.665531235954675
453,0.0
490,0.0
515,0.0
516,0.0
542,0.0
592,2656067.387073445
632,3773405.8196618157
686,0.5864133062467914
687,0.5
688,1.1666666666666667
2,21, 1,21, 0, 7,10.00,20.00,Monday
250,22.893598967389316
251,6431165.042480333
336,0.0
385,22.923333333333332
386,26.29
387,-0.27029733452745575
388,0.0
425,0.0
450,0.0
451,0.0
452,-1.745887468423942
453,0.0
490,0.0
515,0.0
516,0.0
542,0.0
592,3534069.6963040023
632,2808628.130266169
686,0.7757228945725877
687,0.6666666666666667
688,1.6666666666666667
2,21, 1,21, 0, 7,20.00,30.00,Monday
250,23.134041300662478
251,7625418.4234601315
336,0.0
385,23.59
386,26.29
387,-0.33184910390891936
388,0.0
425,0.0
450,0.0
451,0.0
452,-1.8824517587513714
453,0.0
490,0.0
515,0.0
516,0.0
542,0.0
592,4767752.310487689
632,3390267.2208877015
686,1.0
687,1.0
688,2.0
2,21, 1,21, 0, 7,30.00,40.00,Monday
250,23.547074506628633
251,8734972.898551444
336,0.0
385,23.59
386,26.29
387,-0.39457251723576126
388,0.0
425,0.0
450,0.0
451,0.0
452,-2.0442823937477366
453,0.0
490,0.0
515,0.0
516,0.0
542,0.0
592,4781984.35364826
632,3813631.332299225
686,1.0
687,1.0
688,2.0
2,21, 1,21, 0, 7,40.00,50.00,Monday
250,22.450850070402968
251,6573378.646650981
336,0.0
385,22.256666666666636
386,26.289999999999964
387,-0.4561685623283219
388,0.0
425,0.0
450,0.0
451,0.0
452,-2.224422364574932
453,0.0
490,0.0
515,0.0
516,0.0
542,0.0
592,2707186.6068907296
632,3782364.000092539
686,0.588086888144017
687,0.49999999999999933
688,1.166666666666665
2,21, 1,21, 0, 7,50.00,60.00,Monday
250,22.894299990354256
251,6493576.190700495
336,0.0
385,22.923333333333353
386,26.29000000000002
387,-0.5286595076502146
388,0.0
425,0.0
450,0.0
451,0.0
452,-2.443851164728546
453,0.0
490,0.0
515,0.0
516,0.0
542,0.0
592,3605248.855478873
632,2796430.1871689693
686,0.779591532281128
687,0.6666666666666672
688,1.6666666666666679
2,21, 1,21, 0, 8, 0.00,10.00,Monday
250,23.134918314106336
251,7326554.616088975
336,0.0
385,23.59
386,26.29
387,-0.6147699843339989
388,0.0
425,0.0
450,0.0
451,0.0
452,-2.7080488269888834
453,0.0
490,0.0
515,0.0
516,0.0
542,0.0
592,4837061.108117376
632,3020924.5926917256
686,1.0
687,1.0
688,2.0
2,21, 1,21, 0, 8,10.00,20.00,Monday
250,23.54714463485626
251,8348136.828375206
336,0.0
385,23.59
386,26.29
387,-0.6769471615401945
388,0.0
425,0.0
450,0.0
451,0.0
452,-2.8547245254861284
453,0.0
490,0.0
515,0.0
516,0.0
542,0.0
592,4840805.120799949
632,3367701.0533094634
686,1.0
687,1.0
688,2.0
2,21, 1,21, 0, 8,20.00,30.00,Monday
250,22.47430856431856
251,6129041.321181192
336,0.0
385,22.256666666666685
386,26.290000000000024
387,-0.7148857377132767
388,0.0
425,0.0
450,0.0
451,0.0
452,-2.852950431768348
453,0.0
490,0.0
515,0.0
516,0.0
542,0.0
592,2656824.8958712174
632,3380629.3572604973
686,0.5655220189304073
687,0.5000000000000004
688,1.1666666666666674
2,21, 1,21, 0, 8,30.00,40.00,Monday
250,22.88510307431982
251,5932865.510023281
336,0.0
385,22.923333333333353
386,26.29000000000002
387,-0.7437041888442566
388,0.0
425,0.0
450,0.0
451,0.0
452,-2.7551240918760964
453,0.0
490,0.0
515,0.0
516,0.0
542,0.0
592,3474911.4045811454
632,2409989.7986578834
686,0.7332630451882738
687,0.6666666666666672
688,1.6666666666666679
2,21, 1,21, 0, 8,40.00,50.00,Monday
250,23.124732368991506
251,7074824.750106335
336,0.0
385,23.59
386,26.29
387,-0.7625311566145632
388,0.0
425,0.0
450,0.0
451,0.0
452,-2.520464814867511
453,0.0
490,0.0
515,0.0
516,0.0
542,0.0
592,4879192.787944871
632,2737905.713583309
686,1.0
687,1.0
688,2.0
2,21, 1,21, 0, 8,50.00,60.00,Monday
250,23.546004757412103
251,8064246.175093997
336,0.0
385,23.59
386,26.29
387,-0.7602789461365611
388,0.0
425,0.0
450,0.0
451,0.0
452,-2.2067573160945093
453,0.0
490,0.0
515,0.0
516,0.0
542,0.0
592,4882867.903120795
632,3044368.2059305003
686,1.0
687,1.0
688,2.0
2,21, 1,21, 0, 9, 0.00,10.00,Monday
250,22.506009511057297
251,5519959.157963455
336,0.0
385,22.256666666666668
386,26.29
387,-0.7341036175690239
388,0.0
425,0.0
450,0.0
451,0.0
452,-1.8276686415869279
453,0.0
490,0.0
515,0.0
516,0.0
542,0.0
592,2529543.374688141
632,2892890.5248012096
686,0.5348439591658731
687,0.4661490375119728
688,1.1666666666666667
2,21, 1,21, 0, 9,10.00,20.00,Monday
250,22.873959039980807
251,5249276.927099829
336,0.0
385,22.923333333333332
386,26.29
387,-0.6887312361561699
388,0.0
425,0.0
450,0.0
451,0.0
452,-1.3465742642203717
453,0.0
490,0.0
515,0.0
516,0.0
542,0.0
592,3324412.7917212835
632,1929415.9203619019
686,0.6793816197690478
687,0.6666666666666667
688,1.6666666666666667
2,21, 1,21, 0, 9,20.00,30.00,Monday
250,22.904896124060457
251,6637234.439823417
336,0.0
385,22.923333333333325
386,26.289999999999992
387,-0.6088744247274217
388,0.0
425,0.0
450,0.0
451,0.0
452,-0.6409379956391236
453,0.0
490,0.0
515,0.0
516,0.0
542,0.0
592,2750487.9832299463
632,3798483.15106003
686,0.6447140245753538
687,0.3333333333333332
688,1.3333333333333328
2,21, 1,21, 0, 9,30.00,40.00,Monday
250,22.905911696931902
251,6597880.702636833
336,0.0
385,22.923333333333343
386,26.290000000000013
387,-0.5220498210195965
388,0.0
425,0.0
450,0.0
451,0.0
452,0.007241262270332574
453,0.0
490,0.0
515,0.0
516,0.0
542,0.0
592,2769264.238862098
632,3736273.460624599
686,0.6471336677056678
687,0.3333333333333332
688,1.3333333333333335
2,21, 1,21, 0, 9,40.00,50.00,Monday
250,22.905505116007937
251,6573041.003734481
336,0.0
385,22.923333333333353
386,26.29000000000002
387,-0.44120323529924527
388,0.0
425,0.0
450,0.0
451,0.0
452,0.6221263831553913
453,0.0
490,0.0
515,0.0
516,0.0
542,0.0
592,2759676.145767415
632,3723639.2771622892
686,0.6415670824654726
687,0.3333333333333336
688,1.3333333333333344
2,21, 1,21, 0, 9,50.00,60.00,Monday
250,23.523015948241778
251,7263932.558792707
336,0.0
385,23.59
386,26.29
387,-0.36944089300427185
388,0.0
425,0.0
450,0.0
451,0.0
452,1.1284550312268395
453,0.0
490,0.0
515,0.0
516,0.0
542,0.0
592,4989221.259227145
632,2194818.279132734
686,1.0
687,1.0
688,2.0
2,21, 1,21, 0,10, 0.00,10.00,Monday
250,22.51699173228276
251,5270868.003075078
336,0.0
385,22.256666666666668
386,26.29
387,-0.2971254877846196
388,0.0
425,0.0
450,0.0
451,0.0
452,1.591116929944657
453,0.0
490,0.0
515,0.0
516,0.0
542,0.0
592,2433243.423920546
632,2747364.282307027
686,0.5212379795873326
687,0.3868543381452765
688,1.1666666666666667
2,21, 1,21, 0,10,10.00,20.00,Monday
250,23.483910784340182
251,7235487.82887109
336,0.0
385,23.59
386,26.29
387,-0.20717100222146134
388,0.0
425,0.0
450,0.0
451,0.0
452,2.114031277566523
453,0.0
490,0.0
515,0.0
516,0.0
542,0.0
592,5056649.251342388
632,2200388.3778620753
686,1.0
687,1.0
688,2.0
2,21, 1,21, 0,10,20.00,30.00,Monday
250,22.289588299495666
251,5183068.168566072
336,0.0
385,22.25666666666666
386,26.289999999999992
387,-0.10777697352495555
388,0.0
425,0.0
450,0.0
451,0.0
452,2.6574310780891737
453,0.0
490,0.0
515,0.0
516,0.0
542,0.0
592,3393770.940627323
632,1617712.8609495347
686,0.6666666666666664
687,0.6666666666666664
688,1.3333333333333328
2,21, 1,21, 0,10,30.00,40.00,Monday
250,22.86333371096483
251,4810098.068807985
336,0.0
385,22.923333333333343
386,26.290000000000013
387,0.0416484958045204
388,0.0
425,0.0
450,0.0
451,0.0
452,3.3826692864117383
453,0.0
490,0.0
515,0.0
516,0.0
542,0.0
592,2872675.0491164797
632,2000331.4976755283
686,0.6491467114756497
687,0.3333333333333332
688,1.3333333333333335
2,21, 1,21, 0,10,40.00,50.00,Monday
250,22.893796759074277
251,6035882.836425861
336,0.0
385,22.923333333333353
386,26.29000000000002
387,0.18868631258353805
388,0.0
425,0.0
450,0.0
451,0.0
452,4.078108971792906
453,0.0
490,0.0
515,0.0
516,0.0
542,0.0
592,2474138.4771507145
632,3535892.2360955607
686,0.5368483630542835
687,0.3333333333333336
688,1.3333333333333344
2,21, 1,21, 0,10,50.00,60.00,Monday
250,22.89387198369698
251,5940747.446975044
336,0.0
385,22.923333333333353
386,26.29000000000002
387,0.3489092312808519
388,0.0
425,0.0
450,0.0
451,0.0
452,4.841059787913133
453,0.0
490,0.0
515,0.0
516,0.0
542,0.0
592,2435441.455901064
632,3482203.9122877
686,0.5222121350294457
687,0.3333333333333336
688,1.3333333333333344
2,21, 1,21, 0,11, 0.00,10.00,Monday
250,22.89231629869255
251,5847582.745567054
336,0.0
385,22.923333333333332
386,26.29
387,0.5217431935468201
388,0.0
425,0.0
450,0.0
451,0.0
452,5.667102267906105
453,0.0
490,0.0
515,0.0
516,0.0
542,0.0
592,2383551.394364916
632,3449856.888117954
686,0.5060415270816133
687,0.3333333333333333
688,1.3333333333333335
2,21, 1,21, 0,11,10.00,20.00,Monday
250,22.894220564347467
251,5760347.079301216
336,0.0
385,22.923333333333332
386,26.29
387,0.7045392686379034
388,0.0
425,0.0
450,0.0
451,0.0
452,6.536616288477264
453,0.0
490,0.0
515,0.0
516,0.0
542,0.0
592,2336953.0982508413
632,3416049.072081686
686,0.4913925863583538
687,0.33333333333333337
688,1.0
2,21, 1,21, 0,11,20.00,30.00,Monday
250,22.560165585863967
251,4456240.180360544
336,0.0
385,22.390000000000004
386,26.29
387,0.8520503123389096
388,0.0
425,0.0
450,0.0
451,0.0
452,7.301780650728469
453,0.0
490,0.0
515,0.0
516,0.0
542,0.0
592,2308669.548409415
632,2198411.362171995
686,0.4553907223221814
687,0.4
688,1.0
2,21, 1,21, 0,11,30.00,40.00,Monday
250,22.662690272195917
251,4529709.78967129
336,0.0
385,22.59
386,26.29
387,1.0238111093802233
388,0.0
425,0.0
450,0.0
451,0.0
452,8.133365698949135
453,0.0
490,0.0
515,0.0
516,0.0
542,0.0
592,2001300.1423706296
632,2643380.9649010873
686,0.43028302879945374
687,0.25
688,1.0
2,21, 1,21, 0,11,40.00,50.00,Monday
250,22.694776631931973
251,5390749.683441592
336,0.0
385,22.59
386,26.29
387,1.2908154049257903
388,0.0
425,0.0
450,0.0
451,0.0
452,9.162541458540561
453,0.0
490,0.0
515,0.0
516,0.0
542,0.0
592,3179627.830760859
632,2159629.03839433
686,0.6412966682115047
687,0.5
688,1.25
2,21, 1,21, 0,11,50.00,60.00,Monday
250,22.699111738222214
251,5312613.949296448
336,0.0
385,22.59
386,26.29
387,1.531357038389552
388,0.0
425,0.0
450,0.0
451,0.0
452,9.944819299203335
453,0.0
490,0.0
515,0.0
516,0.0
542,0.0
592,3170195.48821092
632,2087305.0016670213
686,0.6359072634490102
687,0.5
688,1.25
2,21, 1,21, 0,12, 0.00,10.00,Monday
250,22.700894008912073
251,5276312.110527302
336,0.0
385,22.59
386,26.29
387,1.752639487515387
388,0.0
425,0.0
450,0.0
451,0.0
452,10.584467910760642
453,0.0
490,0.0
515,0.0
516,0.0
542,0.0
592,3163964.142655297
632,2056973.9721458773
686,0.6331214611672129
687,0.5
688,1.25
2,21, 1,21, 0,12,10.00,20.00,Monday
250,22.70268338678249
251,5244111.176349607
336,0.0
385,22.59
386,26.29
387,1.9601134570781236
388,0.0
425,0.0
450,0.0
451,0.0
452,11.086674482631704
453,0.0
490,0.0
515,0.0
516,0.0
542,0.0
592,3157766.1792737637
632,2031049.3364425492
686,0.6303513203975513
687,0.5
688,1.25
2,21, 1,21, 0,12,20.00,30.00,Monday
250,22.704418473135245
251,5212255.448627587
336,0.0
385,22.59
386,26.29
387,2.151983329568395
388,0.0
425,0.0
450,0.0
451,0.0
452,11.459022994424664
453,0.0
490,0.0
515,0.0
516,0.0
542,0.0
592,3151703.8795709526
632,2005329.9902375618
686,0.6276241406856133
687,0.5
688,1.25
2,21, 1,21, 0,12,30.00,40.00,Monday
250,22.705506880837564
251,5188778.770874524
336,0.0
385,22.59
386,26.29
387,2.324208361721219
388,0.0
425,0.0
450,0.0
451,0.0
452,11.70470039211357
453,0.0
490,0.0
515,0.0
516,0.0
542,0.0
592,3148236.3138888036
632,1985316.8104884713
686,0.6255809673932677
687,0.5
688,1.25
2,21, 1,21, 0,12,40.00,50.00,Monday
250,22.70626851068062
251,5172745.297031974
336,0.0
385,22.59
386,26.29
387,2.4733739546564775
388,0.0
425,0.0
450,0.0
451,0.0
452,11.800047145672865
453,0.0
490,0.0
515,0.0
516,0.0
542,0.0
592,3147006.2729994645
632,1970529.4417550475
686,0.6241257914056499
687,0.5
688,1.25
2,21, 1,21, 0,12,50.00,60.00,Monday
250,22.706892019964837
251,5159684.420483981
336,0.0
385,22.59
386,26.29
387,2.598640677441349
388,0.0
425,0.0
450,0.0
451,0.0
452,11.753704994228558
453,0.0
490,0.0
515,0.0
516,0.0
542,0.0
592,3146589.790346218
632,1957919.8446035653
686,0.6228859659094392
687,0.5
688,1.25
2,21, 1,21, 0,13, 0.00,10.00,Monday
250,22.70730172599466
251,5148398.420434963
336,0.0
385,22.59
386,26.29
387,2.7032782810827984
388,0.0
425,0.0
450,0.0
451,0.0
452,11.6350729221411
453,0.0
490,0.0
515,0.0
516,0.0
542,0.0
592,3141002.5029832497
632,1952249.626355534
686,0.6220074355778864
687,0.5
688,1.25
2,21, 1,21, 0,13,10.00,20.00,Monday
250,22.71070809294355
251,5099493.799782328
336,0.0
385,22.59
386,26.29
387,2.7929119510586746
388,0.0
425,0.0
450,0.0
451,0.0
452,11.525229852628613
453,0.0
490,0.0
515,0.0
516,0.0
542,0.0
592,3123342.3356368295
632,1921448.3861484798
686,0.6179839137161133
687,0.5
688,1.25
2,21, 1,21, 0,13,20.00,30.00,Monday
250,22.714247281638766
251,5039795.4040942155
336,0.0
385,22.59
386,26.29
387,2.8726714568387517
388,0.0
425,0.0
450,0.0
451,0.0
452,11.457679613648
453,0.0
490,0.0
515,0.0
516,0.0
542,0.0
592,3104040.9906664044
632,1881139.5067078022
686,0.6135280223306482
687,0.5
688,1.25
2,21, 1,21, 0,13,30.00,40.00,Monday
250,22.71774076207448
251,4980574.003342066
336,0.0
385,22.59
386,26.29
387,2.947533070067499
388,0.0
425,0.0
450,0.0
451,0.0
452,11.423545812985019
453,0.0
490,0.0
515,0.0
516,0.0
542,0.0
592,3084861.7203294234
632,1841160.0662166798
686,0.6090979130867247
687,0.5
688,1.25
2,21, 1,21, 0,13,40.00,50.00,Monday
250,22.720790969311828
251,4922350.858403635
336,0.0
385,22.59
386,26.29
387,3.0205854980886953
388,0.0
425,0.0
450,0.0
451,0.0
452,11.406087337472572
453,0.0
490,0.0
515,0.0
516,0.0
542,0.0
592,3041543.702247829
632,1828768.015369338
686,0.6045790598844921
687,0.4838330306225229
688,1.25
2,21, 1,21, 0,13,50.00,60.00,Monday
250,22.723647740066806
251,4865032.644666428
336,0.0
385,22.59
386,26.29
387,3.092469741313674
388,0.0
425,0.0
450,0.0
451,0.0
452,11.394398612368645
453,0.0
490,0.0
515,0.0
516,0.0
542,0.0
592,2990677.6406168123
632,1825677.3040065346
686,0.6000442688164889
687,0.46254425742545174
688,1.25
2,21, 1,21, 0,14, 0.00,10.00,Monday
250,22.727569486908536
251,4793793.759412129
336,0.0
385,22.59
386,26.29
387,3.164733194563493
388,0.0
425,0.0
450,0.0
451,0.0
452,11.352007334865156
453,0.0
490,0.0
515,0.0
516,0.0
542,0.0
592,2934584.8383736657
632,1814959.59484286
686,0.5939921678351433
687,0.43566838186986206
688,1.25
2,21, 1,21, 0,14,10.00,20.00,Monday
250,22.728827532734673
251,4755545.970609223
336,0.0
385,22.59
386,26.29
387,3.2355356921623595
388,0.0
425,0.0
450,0.0
451,0.0
452,11.235322577040922
453,0.0
490,0.0
515,0.0
516,0.0
542,0.0
592,2893514.9035943258
632,1821388.0366358068
686,0.5910410881504169
687,0.41106193787636014
688,1.25
2,21, 1,21, 0,14,20.00,30.00,Monday
250,22.730350436082894
251,4724740.463631032
336,0.0
385,22.59
386,26.29
387,3.3002290833641634
388,0.0
425,0.0
450,0.0
451,0.0
452,11.043218884580433
453,0.0
490,0.0
515,0.0
516,0.0
542,0.0
592,2870116.449060912
632,1816169.2170047553
686,0.5883255277215671
687,0.3979200595028366
688,1.25
2,21, 1,21, 0,14,30.00,40.00,Monday
250,22.730862574186094
251,4707463.983242851
336,0.0
385,22.59
386,26.29
387,3.351291012107244
388,0.0
425,0.0
450,0.0
451,0.0
452,10.760817973338074
453,0.0
490,0.0
515,0.0
516,0.0
542,0.0
592,2854887.916145117
632,1815753.0121102252
686,0.5867943346240163
687,0.3872990480522899
688,1.25
2,21, 1,21, 0,14,40.00,50.00,Monday
250,22.730711828566278
251,4706806.077174985
336,0.0
385,22.59
386,26.29
387,3.3825675240998168
388,0.0
425,0.0
450,0.0
451,0.0
452,10.353202237038694
453,0.0
490,0.0
515,0.0
516,0.0
542,0.0
592,2853482.479676128
632,1817235.9313953803
686,0.5867278256206765
687,0.38224609471376725
688,1.25
2,21, 1,21, 0,14,50.00,60.00,Monday
250,22.730063961943348
251,4717508.597759063
336,0.0
385,22.59
386,26.29
387,3.3930399842570385
388,0.0
425,0.0
450,0.0
451,0.0
452,9.824196032556415
453,0.0
490,0.0
515,0.0
516,0.0
542,0.0