Program Version,EnergyPlus, Version 24.2.0-94a887817b, YMD=2025.02.11 00:16
1,5,Environment Title[],Latitude[deg],Longitude[deg],Time Zone[],Elevation[m]
2,8,Day of Simulation[],Month[],Day of Month[],DST Indicator[1=yes 0=no],Hour[],StartMinute[],EndMinute[],DayType
3,5,Cumulative Day of Simulation[],Month[],Day of Month[],DST Indicator[1=yes 0=no],DayType  ! When Daily Report Variables Requested
4,2,Cumulative Days of Simulation[],Month[]  ! When Monthly Report Variables Requested
5,1,Cumulative Days of Simulation[] ! When Run Period Report Variables Requested
6,1,Calendar Year of Simulation[] ! When Annual Report Variables Requested
250,1,LIVING ZONE,Zone Air Temperature [C] !TimeStep,REPORTSCH
251,1,LIVING ZONE,Zone Air System Sensible Heating Energy [J] !TimeStep,REPORTSCH
336,1,LIVING ZONE,Zone Air System Sensible Cooling Energy [J] !TimeStep,REPORTSCH
385,1,LIVING ZONE,Zone Thermostat Heating Setpoint Temperature [C] !TimeStep,REPORTSCH
386,1,LIVING ZONE,Zone Thermostat Cooling Setpoint Temperature [C] !TimeStep,REPORTSCH
387,1,GARAGE ZONE,Zone Air Temperature [C] !TimeStep,REPORTSCH
388,1,GARAGE ZONE,Zone Air System Sensible Heating Energy [J] !TimeStep,REPORTSCH
425,1,GARAGE ZONE,Zone Air System Sensible Cooling Energy [J] !TimeStep,REPORTSCH
450,1,GARAGE ZONE,Zone Thermostat Heating Setpoint Temperature [C] !TimeStep,REPORTSCH
451,1,GARAGE ZONE,Zone Thermostat Cooling Setpoint Temperature [C] !TimeStep,REPORTSCH
452,1,ATTIC ZONE,Zone Air Temperature [C] !TimeStep,REPORTSCH
453,1,ATTIC ZONE,Zone Air System Sensible Heating Energy [J] !TimeStep,REPORTSCH
490,1,ATTIC ZONE,Zone Air System Sensible Cooling Energy [J] !TimeStep,REPORTSCH
515,1,ATTIC ZONE,Zone Thermostat Heating Setpoint Temperature [C] !TimeStep,REPORTSCH
516,1,ATTIC ZONE,Zone Thermostat Cooling Setpoint Temperature [C] !TimeStep,REPORTSCH
542,1,ACDXCOIL 1,Cooling Coil Total Cooling Energy [J] !TimeStep,REPORTSCH
592,1,HEAT PUMP DX HEATING COIL 1,Heating Coil Heating Energy [J] !TimeStep,REPORTSCH
632,1,SUPP HEATING COIL 1,Heating Coil Heating Energy [J] !TimeStep,REPORTSCH
686,1,TWOSPEED HEAT PUMP 1,Unitary System DX Coil Cycling Ratio [] !TimeStep,REPORTSCH
687,1,TWOSPEED HEAT PUMP 1,Unitary System DX Coil Speed Ratio [] !TimeStep,REPORTSCH
688,1,TWOSPEED HEAT PUMP 1,Unitary System DX Coil Speed Level [] !TimeStep,REPORTSCH
End of Data Dictionary
1,RUN PERIOD 1,  41.98, -87.92,  -6.00, 201.00
2,21, 1,21, 0, 1, 0.00,10.00,Monday
250,22.946784951352264
251,7064653.550017225
336,0.0
385,23.43
386,25.9
387,0.5953101759999723
388,0.0
425,0.0
450,0.0
451,0.0
452,-1.6358299868232793
453,0.0
490,0.0
515,0.0
516,0.0
542,0.0
592,4878048.0654389
632,2740164.8075973433
686,1.0
687,1.0
688,2.0
2,21, 1,21, 0, 1,10.00,20.00,Monday
250,23.38399769634581
251,7785308.291529457
336,0.0
385,23.43
386,25.9
387,0.5706836418103636
388,0.0
425,0.0
450,0.0
451,0.0
452,-1.6251432979934621
453,0.0
490,0.0
515,0.0
516,0.0
542,0.0
592,4861236.126442896
632,2791756.6622529486
686,1.0
687,1.0
688,2.0
2,21, 1,21, 0, 1,20.00,30.00,Monday
250,22.34004904023424
251,5642404.961312411
336,0.0
385,22.096666666666685
386,25.90000000000002
387,0.5500129066511782
388,0.0
425,0.0
450,0.0
451,0.0
452,-1.6178714046230982
453,0.0
490,0.0
515,0.0
516,0.0
542,0.0
592,2565717.3649863787
632,2976840.8640241465
686,0.5406708135248328
687,0.5000000000000004
688,1.1666666666666674
2,21, 1,21, 0, 1,30.00,40.00,Monday
250,22.718196323019043
251,5483062.009502965
336,0.0
385,22.76333333333335
386,25.90000000000002
387,0.5272872483620711
388,0.0
425,0.0
450,0.0
451,0.0
452,-1.6118723384354814
453,0.0
490,0.0
515,0.0
516,0.0
542,0.0
592,3332903.366822995
632,2134327.017156683
686,0.6990293865624531
687,0.6666666666666672
688,1.6666666666666679
2,21, 1,21, 0, 1,40.00,50.00,Monday
250,22.954270817371572
251,6775739.883483482
336,0.0
385,23.43
386,25.9
387,0.49933263680395
388,0.0
425,0.0
450,0.0
451,0.0
452,-1.6066046557598432
453,0.0
490,0.0
515,0.0
516,0.0
542,0.0
592,4814781.16576823
632,2510444.574003687
686,1.0
687,1.0
688,2.0
2,21, 1,21, 0, 1,50.00,60.00,Monday
250,23.384798485281024
251,7877558.19446206
336,0.0
385,23.43
386,25.9
387,0.47430203131885706
388,0.0
425,0.0
450,0.0
451,0.0
452,-1.6038216342890326
453,0.0
490,0.0
515,0.0
516,0.0
542,0.0
592,4797939.371071467
632,2945380.4455349417
686,1.0
687,1.0
688,2.0
2,21, 1,21, 0, 2, 0.00,10.00,Monday
250,22.336476120667164
251,5712227.38365769
336,0.0
385,22.096666666666664
386,25.9
387,0.4528753775030623
388,0.0
425,0.0
450,0.0
451,0.0
452,-1.6043266331478336
453,0.0
490,0.0
515,0.0
516,0.0
542,0.0
592,2553857.6495072865
632,3059599.375428276
686,0.5445025380511836
687,0.5
688,1.1666666666666667
2,21, 1,21, 0, 2,10.00,20.00,Monday
250,22.719098569468052
251,5540917.880269255
336,0.0
385,22.763333333333332
386,25.9
387,0.4298455214014937
388,0.0
425,0.0
450,0.0
451,0.0
452,-1.6080188521614638
453,0.0
490,0.0
515,0.0
516,0.0
542,0.0
592,3326361.3598409947
632,2194604.9407292344
686,0.7034474037259708
687,0.6666666666666667
688,1.6666666666666667
2,21, 1,21, 0, 2,20.00,30.00,Monday
250,22.955699266560234
251,6812706.714487296
336,0.0
385,23.43
386,25.9
387,0.40166984808058553
388,0.0
425,0.0
450,0.0
451,0.0
452,-1.6160483205500982
453,0.0
490,0.0
515,0.0
516,0.0
542,0.0
592,4798965.74498837
632,2562496.8444579155
686,1.0
687,1.0
688,2.0
2,21, 1,21, 0, 2,30.00,40.00,Monday
250,23.384952047914133
251,7899379.041411632
336,0.0
385,23.43
386,25.9
387,0.3763607089617455
388,0.0
425,0.0
450,0.0
451,0.0
452,-1.626801528052571
453,0.0
490,0.0
515,0.0
516,0.0
542,0.0
592,4797937.126247929
632,2966851.6116917552
686,1.0
687,1.0
688,2.0
2,21, 1,21, 0, 2,40.00,50.00,Monday
250,22.335574329986084
251,5729617.448869917
336,0.0
385,22.096666666666636
386,25.89999999999996
387,0.35448711818392475
388,0.0
425,0.0
450,0.0
451,0.0
452,-1.639895181407442
453,0.0
490,0.0
515,0.0
516,0.0
542,0.0
592,2556948.1375961797
632,3074187.3037453047
686,0.5453947830217409
687,0.49999999999999933
688,1.166666666666665
2,21, 1,21, 0, 2,50.00,60.00,Monday
250,22.71934568501731
251,5557901.567485001
336,0.0
385,22.76333333333335
386,25.90000000000002
387,0.3307659399354019
388,0.0
425,0.0
450,0.0
451,0.0
452,-1.6562678987067279
453,0.0
490,0.0
515,0.0
516,0.0
542,0.0
592,3330398.7853411366
632,2206470.7790700775
686,0.7046138408316498
687,0.6666666666666672
688,1.6666666666666679
2,21, 1,21, 0, 3, 0.00,10.00,Monday
250,22.95635884349453
251,6839203.203076667
336,0.0
385,23.43
386,25.9
387,0.30208352758050794
388,0.0
425,0.0
450,0.0
451,0.0
452,-1.6753693186030612
453,0.0
490,0.0
515,0.0
516,0.0
542,0.0
592,4798967.463337129
632,2588994.740527221
686,1.0
687,1.0
688,2.0
2,21, 1,21, 0, 3,10.00,20.00,Monday
250,23.38504050438946
251,7935216.798522005
336,0.0
385,23.43
386,25.9
387,0.27727033782195887
388,0.0
425,0.0
450,0.0
451,0.0
452,-1.6877753889327431
453,0.0
490,0.0
515,0.0
516,0.0
542,0.0
592,4797936.052547555
632,3002531.7001328035
686,1.0
687,1.0
688,2.0
2,21, 1,21, 0, 3,20.00,30.00,Monday
250,22.33326501392608
251,5773565.917241882
336,0.0
385,22.096666666666685
386,25.90000000000002
387,0.25699476148356387
388,0.0
425,0.0
450,0.0
451,0.0
452,-1.6921374474318909
453,0.0
490,0.0
515,0.0
516,0.0
542,0.0
592,2564629.322149719
632,3111195.2469175286
686,0.5476124140369252
687,0.5000000000000004
688,1.1666666666666674
2,21, 1,21, 0, 3,30.00,40.00,Monday
250,22.720312220741235
251,5616727.308019213
336,0.0
385,22.76333333333335
386,25.90000000000002
387,0.23604940482404768
388,0.0
425,0.0
450,0.0
451,0.0
452,-1.6922910121811672
453,0.0
490,0.0
515,0.0
516,0.0
542,0.0
592,3346006.0471409257
632,2245243.9594653095
686,0.709123043288639
687,0.6666666666666672
688,1.6666666666666679
2,21, 1,21, 0, 3,40.00,50.00,Monday
250,22.957806732320268
251,6893122.305048976
336,0.0
385,23.43
386,25.9
387,0.2114365524625678
388,0.0
425,0.0
450,0.0
451,0.0
452,-1.687966485228539
453,0.0
490,0.0
515,0.0
516,0.0
542,0.0
592,4798974.4746428095
632,2642059.615063015
686,1.0
687,1.0
688,2.0
2,21, 1,21, 0, 3,50.00,60.00,Monday
250,23.385214920255095
251,7987809.374763163
336,0.0
385,23.43
386,25.9
387,0.19054228105297022
388,0.0
425,0.0
450,0.0
451,0.0
452,-1.6804756576757374
453,0.0
490,0.0
515,0.0
516,0.0
542,0.0
592,4797933.5281358315
632,3054757.827028754
686,1.0
687,1.0
688,2.0
2,21, 1,21, 0, 4, 0.00,10.00,Monday
250,22.3271055990802
251,5890302.786868348
336,0.0
385,22.096666666666664
386,25.9
387,0.16917992825047748
388,0.0
425,0.0
450,0.0
451,0.0
452,-1.6728086218669576
453,0.0
490,0.0
515,0.0
516,0.0
542,0.0
592,2582587.2103992286
632,3211954.2867923924
686,0.5535208304253809
687,0.5
688,1.1666666666666667
2,21, 1,21, 0, 4,10.00,20.00,Monday
250,22.723673570101113
251,5811634.621599099
336,0.0
385,22.763333333333332
386,25.9
387,0.14303381663618003
388,0.0
425,0.0
450,0.0
451,0.0
452,-1.6660726685215623
453,0.0
490,0.0
515,0.0
516,0.0
542,0.0
592,3393212.1724549565
632,2377277.5426784516
686,0.7247783318876142
687,0.6666666666666667
688,1.6666666666666667
2,21, 1,21, 0, 4,20.00,30.00,Monday
250,22.962314711024575
251,7137924.27029957
336,0.0
385,23.43
386,25.9
387,0.10816830970782383
388,0.0
425,0.0
450,0.0
451,0.0
452,-1.6611774558525711
453,0.0
490,0.0
515,0.0
516,0.0
542,0.0
592,4785452.792138843
632,2897059.669924665
686,1.0
687,1.0
688,2.0
2,21, 1,21, 0, 4,30.00,40.00,Monday
250,23.385799781527524
251,8302841.177690331
336,0.0
385,23.43
386,25.9
387,0.07515068128837227
388,0.0
425,0.0
450,0.0
451,0.0
452,-1.6617649610805678
453,0.0
490,0.0
515,0.0
516,0.0
542,0.0
592,4777750.750631554
632,3388809.500629097
686,1.0
687,1.0
688,2.0
2,21, 1,21, 0, 4,40.00,50.00,Monday
250,22.31042237357731
251,6206691.331601946
336,0.0
385,22.096666666666636
386,25.89999999999996
387,0.04521293804736683
388,0.0
425,0.0
450,0.0
451,0.0
452,-1.6684333100163529
453,0.0
490,0.0
515,0.0
516,0.0
542,0.0
592,2627477.195159102
632,3488848.6958061964
686,0.5697261908590504
687,0.49999999999999933
688,1.166666666666665
2,21, 1,21, 0, 4,50.00,60.00,Monday
250,22.72927578270566
251,6155606.127761778
336,0.0
385,22.76333333333335
386,25.90000000000002
387,0.011781533961356479
388,0.0
425,0.0
450,0.0
451,0.0
452,-1.678567056182454
453,0.0
490,0.0
515,0.0
516,0.0
542,0.0
592,3474035.8297131625
632,2613879.841519859
686,0.7527871281522392
687,0.6666666666666672
688,1.6666666666666679
2,21, 1,21, 0, 5, 0.00,10.00,Monday
250,22.968630552909097
251,7336011.39645191
336,0.0
385,23.43
386,25.9
387,-0.02128807815679727
388,0.0
425,0.0
450,0.0
451,0.0
452,-1.6887800134091964
453,0.0
490,0.0
515,0.0
516,0.0
542,0.0
592,4764408.513237079
632,3109426.8132497636
686,1.0
687,1.0
688,2.0
2,21, 1,21, 0, 5,10.00,20.00,Monday
250,23.386464336706876
251,8396988.806549717
336,0.0
385,23.43
386,25.9
387,-0.041084095453504305
388,0.0
425,0.0
450,0.0
451,0.0
452,-1.691207420645482
453,0.0
490,0.0
515,0.0
516,0.0
542,0.0
592,4754949.576169429
632,3504100.469994236
686,1.0
687,1.0
688,2.0
2,21, 1,21, 0, 5,20.00,30.00,Monday
250,22.31144058620561
251,6188345.021373915
336,0.0
385,22.096666666666685
386,25.90000000000002
387,-0.05089932421169938
388,0.0
425,0.0
450,0.0
451,0.0
452,-1.6840569954227065
453,0.0
490,0.0
515,0.0
516,0.0
542,0.0
592,2612152.5427009934
632,3485429.226809489
686,0.5691302403924542
687,0.5000000000000004
688,1.1666666666666674
2,21, 1,21, 0, 5,30.00,40.00,Monday
250,22.72677876714469
251,6017886.025015633
336,0.0
385,22.76333333333335
386,25.90000000000002
387,-0.05839810168037651
388,0.0
425,0.0
450,0.0
451,0.0
452,-1.6688735073458365
453,0.0
490,0.0
515,0.0
516,0.0
542,0.0
592,3417112.5059118313
632,2544770.389578634
686,0.7414385087225781
687,0.6666666666666672
688,1.6666666666666679
2,21, 1,21, 0, 5,40.00,50.00,Monday
250,22.966394746938263
251,7208906.924272169
336,0.0
385,23.43
386,25.9
387,-0.06464543573714478
388,0.0
425,0.0
450,0.0
451,0.0
452,-1.6429287556836951
453,0.0
490,0.0
515,0.0
516,0.0
542,0.0
592,4735691.166406966
632,3013946.094022847
686,1.0
687,1.0
688,2.0
2,21, 1,21, 0, 5,50.00,60.00,Monday
250,23.386215167939156
251,8267241.987559579
336,0.0
385,23.43
386,25.9
387,-0.06769383386482514
388,0.0
425,0.0
450,0.0
451,0.0
452,-1.6138344210382738
453,0.0
490,0.0
515,0.0
516,0.0
542,0.0
592,4726370.939687136
632,3403521.838244605
686,1.0
687,1.0
688,2.0
2,21, 1,21, 0, 6, 0.00,10.00,Monday
250,22.31395737462329
251,6140727.734708795
336,0.0
385,22.096666666666664
386,25.9
387,-0.0767986460475974
388,0.0
425,0.0
450,0.0
451,0.0
452,-1.5902886772183045
453,0.0
490,0.0
515,0.0
516,0.0
542,0.0
592,2590634.573235996
632,3458454.779534232
686,0.5670655937469457
687,0.5
688,1.1666666666666667
2,21, 1,21, 0, 6,10.00,20.00,Monday
250,22.72768445335262
251,6056352.7819437925
336,0.0
385,22.763333333333332
386,25.9
387,-0.09256568130051634
388,0.0
425,0.0
450,0.0
451,0.0
452,-1.5741935893714627
453,0.0
490,0.0
515,0.0
516,0.0
542,0.0
592,3411978.060074038
632,2584340.5517375846
686,0.7448704357187009
687,0.6666666666666667
688,1.6666666666666667
2,21, 1,21, 0, 6,20.00,30.00,Monday
250,22.967732767446655
251,7333032.251222624
336,0.0
385,23.43
386,25.9
387,-0.11750009608389406
388,0.0
425,0.0
450,0.0
451,0.0
452,-1.5677603910569542
453,0.0
490,0.0
515,0.0
516,0.0
542,0.0
592,4716287.549915211
632,3157055.2626637435
686,1.0
687,1.0
688,2.0
2,21, 1,21, 0, 6,30.00,40.00,Monday
250,23.386423742915714
251,8476095.978324573
336,0.0
385,23.43
386,25.9
387,-0.14376801684458262
388,0.0
425,0.0
450,0.0
451,0.0
452,-1.575608297212963
453,0.0
490,0.0
515,0.0
516,0.0
542,0.0
592,4709372.799198963
632,3629044.741780296
686,1.0
687,1.0
688,2.0
2,21, 1,21, 0, 6,40.00,50.00,Monday
250,22.302863675515372
251,6350904.456442326
336,0.0
385,22.096666666666636
386,25.89999999999996
387,-0.1698110978728418
388,0.0
425,0.0
450,0.0
451,0.0
452,-1.5951882764225285
453,0.0
490,0.0
515,0.0
516,0.0
542,0.0
592,2618639.7960914657
632,3644224.7891923627
686,0.5780941687676451
687,0.49999999999999933
688,1.166666666666665
2,21, 1,21, 0, 6,50.00,60.00,Monday
250,22.731447787299285
251,6284181.841500951
336,0.0
385,22.76333333333335
386,25.90000000000002
387,-0.19990705434712006
388,0.0
425,0.0
450,0.0
451,0.0
452,-1.623443143108318
453,0.0
490,0.0
515,0.0
516,0.0
542,0.0
592,3463216.3866155124
632,2743007.6484466232
686,0.7639868502234998
687,0.6666666666666672
688,1.6666666666666679
2,21, 1,21, 0, 7, 0.00,10.00,Monday
250,22.97180133436719
251,7534374.417248222
336,0.0
385,23.43
386,25.9
387,-0.24284962533965837
388,0.0
425,0.0
450,0.0
451,0.0
452,-1.6755063386713573
453,0.0
490,0.0
515,0.0
516,0.0
542,0.0
592,4725654.831143674
632,3344400.790958486
686,1.0
687,1.0
688,2.0
2,21, 1,21, 0, 7,10.00,20.00,Monday
250,23.38685212662925
251,8638523.028539857
336,0.0
385,23.43
386,25.9
387,-0.2892042305820866
388,0.0
425,0.0
450,0.0
451,0.0
452,-1.7571384644084698
453,0.0
490,0.0
515,0.0
516,0.0
542,0.0
592,4742447.021037076
632,3757325.6196572594
686,1.0
687,1.0
688,2.0
2,21, 1,21, 0, 7,20.00,30.00,Monday
250,22.296275953339723
251,6474945.827206333
336,0.0
385,22.096666666666685
386,25.90000000000002
387,-0.3375860492370197
388,0.0
425,0.0
450,0.0
451,0.0
452,-1.8734014337539404
453,0.0
490,0.0
515,0.0
516,0.0
542,0.0
592,2669773.968995792
632,3719450.9937844723
686,0.5835042819942373
687,0.5000000000000004
688,1.1666666666666674
2,21, 1,21, 0, 7,30.00,40.00,Monday
250,22.732756273732413
251,6387697.695984929
336,0.0
385,22.76333333333335
386,25.90000000000002
387,-0.39628598451258723
388,0.0
425,0.0
450,0.0
451,0.0
452,-2.031266333476614
453,0.0
490,0.0
515,0.0
516,0.0
542,0.0
592,3549286.088723321
632,2754001.06054517
686,0.7713610264643215
687,0.6666666666666672
688,1.6666666666666679
2,21, 1,21, 0, 7,40.00,50.00,Monday
250,22.97315395738306
251,7587710.322961018
336,0.0
385,23.43
386,25.9
387,-0.47607298053771446
388,0.0
425,0.0
450,0.0
451,0.0
452,-2.2531817717794196
453,0.0
490,0.0
515,0.0
516,0.0
542,0.0
592,4807654.084125659
632,3313580.4986593276
686,1.0
687,1.0
688,2.0
2,21, 1,21, 0, 7,50.00,60.00,Monday
250,23.38698830457137
251,8696600.011424962
336,0.0
385,23.43
386,25.9
387,-0.5539920396650777
388,0.0
425,0.0
450,0.0
451,0.0
452,-2.4805192076564855
453,0.0
490,0.0
515,0.0
516,0.0
542,0.0
592,4820482.948350355
632,3736970.20355036
686,1.0
687,1.0
688,2.0
2,21, 1,21, 0, 8, 0.00,10.00,Monday
250,22.312644421887697
251,6164642.450846328
336,0.0
385,22.096666666666664
386,25.9
387,-0.6175529500123149
388,0.0
425,0.0
450,0.0
451,0.0
452,-2.6852238871555723
453,0.0
490,0.0
515,0.0
516,0.0
542,0.0
592,2652297.542782261
632,3421265.191917504
686,0.567430372565683
687,0.5
688,1.1666666666666667
2,21, 1,21, 0, 8,10.00,20.00,Monday
250,22.725563949802414
251,5964322.128102976
336,0.0
385,22.763333333333332
386,25.9
387,-0.67385789910074
388,0.0
425,0.0
450,0.0
451,0.0
452,-2.8217153662910563
453,0.0
490,0.0
515,0.0
516,0.0
542,0.0
592,3467870.6440784605
632,2446532.7791631194
686,0.7354133886467881
687,0.6666666666666667
688,1.6666666666666667
2,21, 1,21, 0, 8,20.00,30.00,Monday
250,22.966041048128837
251,7152947.503872527
336,0.0
385,23.43
386,25.9
387,-0.729420130834754
388,0.0
425,0.0
450,0.0
451,0.0
452,-2.862994690937645
453,0.0
490,0.0
515,0.0
516,0.0
542,0.0
592,4858308.006749091
632,2836959.656969517
686,1.0
687,1.0
688,2.0
2,21, 1,21, 0, 8,30.00,40.00,Monday
250,23.38623105782571
251,8176732.092018139
336,0.0
385,23.43
386,25.9
387,-0.7637264366388492
388,0.0
425,0.0
450,0.0
451,0.0
452,-2.772517876705318
453,0.0
490,0.0
515,0.0
516,0.0
542,0.0
592,4862548.092248464
632,3176856.912289823
686,1.0
687,1.0
688,2.0
2,21, 1,21, 0, 8,40.00,50.00,Monday
250,22.32621291375083
251,5906183.042470536
336,0.0
385,22.096666666666636
386,25.89999999999996
387,-0.7743067925401831
388,0.0
425,0.0
450,0.0
451,0.0
452,-2.5598394451700655
453,0.0
490,0.0
515,0.0
516,0.0
542,0.0
592,2628455.448858562
632,3182289.625443997
686,0.5540432689698994
687,0.49999999999999933
688,1.166666666666665
2,21, 1,21, 0, 8,50.00,60.00,Monday
250,22.72073361123473
251,5663791.092574452
336,0.0
385,22.76333333333335
386,25.90000000000002
387,-0.7694097163941356
388,0.0
425,0.0
450,0.0
451,0.0
452,-2.2439943759595486
453,0.0
490,0.0
515,0.0
516,0.0
542,0.0
592,3415847.479472125
632,2220519.049776995
686,0.7119953759928959
687,0.6666666666666672
688,1.6666666666666679
2,21, 1,21, 0, 9, 0.00,10.00,Monday
250,23.360977190318835
251,7390885.72742125
336,0.0
385,23.43
386,25.9
387,-0.7440132712757125
388,0.0
425,0.0
450,0.0
451,0.0
452,-1.8290853695170726
453,0.0
490,0.0
515,0.0
516,0.0
542,0.0
592,4901691.987114428
632,2415839.5511285216
686,1.0
687,1.0
688,2.0
2,21, 1,21, 0, 9,10.00,20.00,Monday
250,22.348525017042054
251,5448159.220739707
336,0.0
385,22.096666666666664
386,25.9
387,-0.6997366774836369
388,0.0
425,0.0
450,0.0
451,0.0
452,-1.354266143349864
453,0.0
490,0.0
515,0.0
516,0.0
542,0.0
592,2495887.8516864087
632,2856948.2242840733
686,0.5310588774066383
687,0.44430325969492296
688,1.1666666666666665
2,21, 1,21, 0, 9,20.00,30.00,Monday
250,22.71178242155175
251,5127332.0596291525
336,0.0
385,22.763333333333325
386,25.899999999999988
387,-0.6385999742209598
388,0.0
425,0.0
450,0.0
451,0.0
452,-0.8075203654840215
453,0.0
490,0.0
515,0.0
516,0.0
542,0.0
592,3302696.698601171
632,1839344.502986761
686,0.6697972911534642
687,0.6666666666666664
688,1.666666666666666
2,21, 1,21, 0, 9,30.00,40.00,Monday
250,22.742744094360546
251,6525241.514220524
336,0.0
385,22.763333333333343
386,25.90000000000001
387,-0.5419018155503578
388,0.0
425,0.0
450,0.0
451,0.0
452,-0.044531119773864654
453,0.0
490,0.0
515,0.0
516,0.0
542,0.0
592,2682433.428284375
632,3766974.0155848325
686,0.6225691724525763
687,0.3333333333333332
688,1.3333333333333335
2,21, 1,21, 0, 9,40.00,50.00,Monday
250,22.74376766813188
251,6486963.302136595
336,0.0
385,22.76333333333335
386,25.90000000000002
387,-0.45663471419012136
388,0.0
425,0.0
450,0.0
451,0.0
452,0.6013996980465142
453,0.0
490,0.0
515,0.0
516,0.0
542,0.0
592,2702021.9407021683
632,3704957.3238810683
686,0.6252789338594769
687,0.3333333333333336
688,1.3333333333333344
2,21, 1,21, 0, 9,50.00,60.00,Monday
250,23.362782104783303
251,7181116.5948215835
336,0.0
385,23.43
386,25.9
387,-0.38342937712948627
388,0.0
425,0.0
450,0.0
451,0.0
452,1.1172250874691732
453,0.0
490,0.0
515,0.0
516,0.0
542,0.0
592,4989836.273249229
632,2111832.173140119
686,1.0
687,1.0
688,2.0
2,21, 1,21, 0,10, 0.00,10.00,Monday
250,22.361010507518472
251,5191434.6180929765
336,0.0
385,22.096666666666664
386,25.9
387,-0.31093518671288883
388,0.0
425,0.0
450,0.0
451,0.0
452,1.5820285785853605
453,0.0
490,0.0
515,0.0
516,0.0
542,0.0
592,2387686.5028918013
632,2715302.8762794207
686,0.5169696643513154
687,0.3645926029835224
688,1.1666666666666667
2,21, 1,21, 0,10,10.00,20.00,Monday
250,23.32422900295393
251,7158143.50520616
336,0.0
385,23.43
386,25.9
387,-0.2209923504044111
388,0.0
425,0.0
450,0.0
451,0.0
452,2.1073837196069096
453,0.0
490,0.0
515,0.0
516,0.0
542,0.0
592,5057343.924874868
632,2121286.05370438
686,1.0
687,1.0
688,2.0
2,21, 1,21, 0,10,20.00,30.00,Monday
250,22.13705206022191
251,5107288.960971927
336,0.0
385,22.096666666666657
386,25.899999999999988
387,-0.12176837219178549
388,0.0
425,0.0
450,0.0
451,0.0
452,2.653040849072388
453,0.0
490,0.0
515,0.0
516,0.0
542,0.0
592,3393935.541468979
632,1538605.484579378
686,0.6666666666666664
687,0.6666666666666664
688,1.3333333333333328
2,21, 1,21, 0,10,30.00,40.00,Monday
250,22.702361617689295
251,4743485.753904189
336,0.0
385,22.763333333333343
386,25.90000000000001
387,0.02720950124809941
388,0.0
425,0.0
450,0.0
451,0.0
452,3.381200772142006
453,0.0
490,0.0
515,0.0
516,0.0
542,0.0
592,2823811.2653176165
632,1989020.0665170664
686,0.6354925160238907
687,0.3333333333333332
688,1.3333333333333335
2,21, 1,21, 0,10,40.00,50.00,Monday
250,22.73240989468363
251,5963194.020300611
336,0.0
385,22.76333333333335
386,25.90000000000002
387,0.17337777020725947
388,0.0
425,0.0
450,0.0
451,0.0
452,4.078791800680914
453,0.0
490,0.0
515,0.0
516,0.0
542,0.0
592,2425116.0639413404
632,3520133.314963125
686,0.5235147277074574
687,0.3333333333333336
688,1.3333333333333344
2,21, 1,21, 0,10,50.00,60.00,Monday
250,22.732477909052847
251,5868814.569932614
336,0.0
385,22.76333333333335
386,25.90000000000002
387,0.33272811993606854
388,0.0
425,0.0
450,0.0
451,0.0
452,4.843567534268082
453,0.0
490,0.0
515,0.0
516,0.0
542,0.0
592,2387248.0272125485
632,3466340.602621977
686,0.5091955432668739
687,0.3333333333333336
688,1.3333333333333344
2,21, 1,21, 0,11, 0.00,10.00,Monday
250,22.73275273663623
251,5782807.105763578
336,0.0
385,22.763333333333335
386,25.9
387,0.505249837492035
388,0.0
425,0.0
450,0.0
451,0.0
452,5.671309517193132
453,0.0
490,0.0
515,0.0
516,0.0
542,0.0
592,2340844.066657955
632,3434097.6701909835
686,0.4945408798803202
687,0.3333333333333333
688,1.0
2,21, 1,21, 0,11,10.00,20.00,Monday
250,22.39672464176744
251,4493738.854495897
336,0.0
385,22.230000000000004
386,25.9
387,0.6417631915804085
388,0.0
425,0.0
450,0.0
451,0.0
452,6.395825426341226
453,0.0
490,0.0
515,0.0
516,0.0
542,0.0
592,2311695.5266011297
632,2233380.464487164
686,0.45831513520779915
687,0.4
688,1.0
2,21, 1,21, 0,11,20.00,30.00,Monday
250,22.50219048536399
251,4547626.249990172
336,0.0
385,22.43
386,25.9
387,0.8026216636265568
388,0.0
425,0.0
450,0.0
451,0.0
452,7.225817245947322
453,0.0
490,0.0
515,0.0
516,0.0
542,0.0
592,2007839.211287898
632,2653688.1042391434
686,0.43364171339305424
687,0.25
688,1.0
2,21, 1,21, 0,11,30.00,40.00,Monday
250,22.534764267718344
251,5398809.227834079
336,0.0
385,22.43
386,25.9
387,1.0575707814301936
388,0.0
425,0.0
450,0.0
451,0.0
452,8.32159373500993
453,0.0
490,0.0
515,0.0
516,0.0
542,0.0
592,3172262.954164066
632,2175052.6122827656
686,0.6420830486867829
687,0.5
688,1.25
2,21, 1,21, 0,11,40.00,50.00,Monday
250,22.540216401528774
251,5303577.401641508
336,0.0
385,22.43
386,25.9
387,1.29513094788104
388,0.0
425,0.0
450,0.0
451,0.0
452,9.20917496854597
453,0.0
490,0.0
515,0.0
516,0.0
542,0.0
592,3157715.9696584945
632,2090852.0059781624
686,0.6353349008574196
687,0.5
688,1.25
2,21, 1,21, 0,11,50.00,60.00,Monday
250,22.54381196916598
251,5238778.28005727
336,0.0
385,22.43
386,25.9
387,1.5210056314776543
388,0.0
425,0.0
450,0.0
451,0.0
452,9.967023282307643
453,0.0
490,0.0
515,0.0
516,0.0
542,0.0
592,3148058.5191896902
632,2035631.042015611
686,0.6299081821319308
687,0.5
688,1.25
2,21, 1,21, 0,12, 0.00,10.00,Monday
250,22.545477096837338
251,5203751.44522703
336,0.0
385,22.43
386,25.9
387,1.7386049371794634
388,0.0
425,0.0
450,0.0
451,0.0
452,10.605397679914171
453,0.0
490,0.0
515,0.0
516,0.0
542,0.0
592,3142226.9183495273
632,2006268.9127005134
686,0.6272389180123155
687,0.5
688,1.25
2,21, 1,21, 0,12,10.00,20.00,Monday
250,22.547200852223877
251,5172789.444091078
336,0.0
385,22.43
386,25.9
387,1.9448355629872358
388,0.0
425,0.0
450,0.0
451,0.0
452,11.106701271312566
453,0.0
490,0.0
515,0.0
516,0.0
542,0.0
592,3136366.4346746486
632,1981251.6535293804
686,0.6245687988690494
687,0.5
688,1.25
2,21, 1,21, 0,12,20.00,30.00,Monday
250,22.548887344707914
251,5141824.33445092
336,0.0
385,22.43
386,25.9
387,2.135989851287566
388,0.0
425,0.0
450,0.0
451,0.0
452,11.479079818830467
453,0.0
490,0.0
515,0.0
516,0.0
542,0.0
592,3130545.0219154283
632,1956183.965577493
686,0.6219160920611853
687,0.5
688,1.25
2,21, 1,21, 0,12,30.00,40.00,Monday
250,22.549943769337606
251,5118940.087941875
336,0.0
385,22.43
386,25.9
387,2.3076653671445753
388,0.0
425,0.0
450,0.0
451,0.0
452,11.724585261431944
453,0.0
490,0.0
515,0.0
516,0.0
542,0.0
592,3127224.1437093895
632,1936618.2924754717
686,0.6199215624482419
687,0.5
688,1.25
2,21, 1,21, 0,12,40.00,50.00,Monday
250,22.550683579914384
251,5103305.3928825855
336,0.0
385,22.43
386,25.9
387,2.4563719371300317
388,0.0
425,0.0
450,0.0
451,0.0
452,11.819876858217075
453,0.0
490,0.0
515,0.0
516,0.0
542,0.0
592,3126091.9039791217
632,1922132.7401615214
686,0.6185013858379886
687,0.5
688,1.25
2,21, 1,21, 0,12,50.00,60.00,Monday
250,22.551291859102967
251,5090511.125424111
336,0.0
385,22.43
386,25.9
387,2.581245149074999
388,0.0
425,0.0
450,0.0
451,0.0
452,11.773495522376848
453,0.0
490,0.0
515,0.0
516,0.0
542,0.0
592,3125734.1047805273
632,1909731.5508649782
686,0.6172859990671627
687,0.5
688,1.25
2,21, 1,21, 0,13, 0.00,10.00,Monday
250,22.551743602568884
251,5078767.019059001
336,0.0
385,22.43
386,25.9
387,2.6855356582997203
388,0.0
425,0.0
450,0.0
451,0.0
452,11.654644717931983
453,0.0
490,0.0
515,0.0
516,0.0
542,0.0
592,3119978.4312805682
632,1903777.8339415705
686,0.6163609746236449
687,0.5
688,1.25
2,21, 1,21, 0,13,10.00,20.00,Monday
250,22.55513078443537
251,5030028.506725635
336,0.0
385,22.43
386,25.9
387,2.774851783243102
388,0.0
425,0.0
450,0.0
451,0.0
452,11.544555568857929
453,0.0
490,0.0
515,0.0
516,0.0
542,0.0
592,3102381.3827517284
632,1873074.5837581514
686,0.6123559325265853
687,0.5
688,1.25
2,21, 1,21, 0,13,20.00,30.00,Monday
250,22.558644932827725
251,4970671.622625936
336,0.0
385,22.43
386,25.9
387,2.854315543108305
388,0.0
425,0.0
450,0.0
451,0.0
452,11.476807003198376
453,0.0
490,0.0
515,0.0
516,0.0
542,0.0
592,3082847.203972589
632,1833375.5600307228
686,0.60792121567
687,0.4997930546941249
688,1.25
2,21, 1,21, 0,13,30.00,40.00,Monday
250,22.561597218515807
251,4911268.102052071
336,0.0
385,22.43
386,25.9
387,2.928894497014266
388,0.0
425,0.0
450,0.0
451,0.0
452,11.442552474715203
453,0.0
490,0.0
515,0.0
516,0.0
542,0.0
592,3030263.4306001677
632,1829957.9137364614
686,0.6032308836192212
687,0.4777558538904415
688,1.25
2,21, 1,21, 0,13,40.00,50.00,Monday
250,22.5644792218081
251,4853369.425160781
336,0.0
385,22.43
386,25.9
387,3.0016685685945093
388,0.0
425,0.0
450,0.0
451,0.0
452,11.425048572657802
453,0.0
490,0.0
515,0.0
516,0.0
542,0.0
592,2978861.045954954
632,1826888.7706312605
686,0.5986555029190557
687,0.4561765851143204
688,1.25
2,21, 1,21, 0,13,50.00,60.00,Monday
250,22.56731046642119
251,4796392.150301607
336,0.0
385,22.43
386,25.9
387,3.073275847915793
388,0.0
425,0.0
450,0.0
451,0.0
452,11.4133772834965
453,0.0
490,0.0
515,0.0
516,0.0
542,0.0
592,2928388.578962421
632,1823769.2194014576
686,0.594135662039092
687,0.43504078237094845
688,1.25
2,21, 1,21, 0,14, 0.00,10.00,Monday
250,22.57116683354848
251,4726019.209104154
336,0.0
385,22.43
386,25.9
387,3.145381020317824
388,0.0
425,0.0
450,0.0
451,0.0
452,11.371016529871147
453,0.0
490,0.0
515,0.0
516,0.0
542,0.0
592,2872985.5972603364
632,1813211.7112214076
686,0.5881673844271752
687,0.40844490340319134
688,1.25
2,21, 1,21, 0,14,10.00,20.00,Monday
250,22.57241520390055
251,4688136.134878045
336,0.0
385,22.43
386,25.9
387,3.2161465836697136
388,0.0
425,0.0
450,0.0
451,0.0
452,11.254343325708579
453,0.0
490,0.0
515,0.0
516,0.0
542,0.0
592,2832361.9771792796
632,1819561.7719912315
686,0.5852592038423379
687,0.38405222862027627
688,1.25
2,21, 1,21, 0,14,20.00,30.00,Monday
250,22.57393043001379
251,4657414.767178309
336,0.0
385,22.43
386,25.9
387,3.2808335058439706
388,0.0
425,0.0
450,0.0
451,0.0
452,11.062210509451322
453,0.0
490,0.0
515,0.0
516,0.0
542,0.0
592,2809071.374483982
632,1814320.6365578969
686,0.5825621982653146
687,0.37098754478617413
688,1.25
2,21, 1,21, 0,14,30.00,40.00,Monday
250,22.574451268046296
251,4639990.00913669
336,0.0
385,22.43
386,25.9
387,3.3319147691991415
388,0.0
425,0.0
450,0.0
451,0.0
452,10.779715043625444
453,0.0
490,0.0
515,0.0
516,0.0
542,0.0
592,2793789.0819876115
632,1813818.97833982
686,0.5810287844727434
687,0.36039032998453846
688,1.25
2,21, 1,21, 0,14,40.00,50.00,Monday
250,22.574313255172353
251,4639173.592383975
336,0.0
385,22.43
386,25.9
387,3.3632468040436923
388,0.0
425,0.0
450,0.0
451,0.0
452,10.371839167318088
453,0.0
490,0.0
515,0.0
516,0.0
542,0.0
592,2792120.9207730107
632,1815432.9129100924
686,0.5809746095871848
687,0.35519194488073347
688,1.25
2,21, 1,21, 0,14,50.00,60.00,Monday
250,22.57368270469468
251,4649632.088903469
336,0.0
385,22.43
386,25.9
387,3.3738044435832215
388,0.0
425,0.0
450,0.0
451,0.0
452,9.842594638249194
453,0.0
490,0.0
515,0.0
516,0.0
542,0.0
592,2800517.869099549
632,1817547.3872450122
686,0.5818557774827788
687,0.35437832837184463
688,1.25
2,21, 1,21, 0,15, 0.00,10.00,Monday
250,22.572045589087914