Program Version,EnergyPlus, Version 24.2.0-94a887817b, YMD=2025.02.11 00:16
1,5,Environment Title[],Latitude[deg],Longitude[deg],Time Zone[],Elevation[m]
2,8,Day of Simulation[],Month[],Day of Month[],DST Indicator[1=yes 0=no],Hour[],StartMinute[],EndMinute[],DayType
3,5,Cumulative Day of Simulation[],Month[],Day of Month[],DST Indicator[1=yes 0=no],DayType  ! When Daily Meters Requested
4,2,Cumulative Days of Simulation[],Month[]  ! When Monthly Meters Requested
5,1,Cumulative Days of Simulation[] ! When Run Period Meters Requested
6,1,Calendar Year of Simulation[] ! When Annual Meters Requested
11,9,Electricity:Facility [J] !Monthly [Value,Min,Day,Hour,Minute,Max,Day,Hour,Minute]
23,9,Electricity:Building [J] !Monthly [Value,Min,Day,Hour,Minute,Max,Day,Hour,Minute]
59,9,InteriorLights:Electricity [J] !Monthly [Value,Min,Day,Hour,Minute,Max,Day,Hour,Minute]
521,9,Electricity:HVAC [J] !Monthly [Value,Min,Day,Hour,Minute,Max,Day,Hour,Minute]
637,9,NaturalGas:Facility [J] !Monthly [Value,Min,Day,Hour,Minute,Max,Day,Hour,Minute]
649,9,NaturalGas:HVAC [J] !Monthly [Value,Min,Day,Hour,Minute,Max,Day,Hour,Minute]
13,11,Electricity:Facility [J] !RunPeriod [Value,Min,Month,Day,Hour,Minute,Max,Month,Day,Hour,Minute]
25,11,Electricity:Building [J] !RunPeriod [Value,Min,Month,Day,Hour,Minute,Max,Month,Day,Hour,Minute]
61,11,InteriorLights:Electricity [J] !RunPeriod [Value,Min,Month,Day,Hour,Minute,Max,Month,Day,Hour,Minute]
523,11,Electricity:HVAC [J] !RunPeriod [Value,Min,Month,Day,Hour,Minute,Max,Month,Day,Hour,Minute]
639,11,NaturalGas:Facility [J] !RunPeriod [Value,Min,Month,Day,Hour,Minute,Max,Month,Day,Hour,Minute]
651,11,NaturalGas:HVAC [J] !RunPeriod [Value,Min,Month,Day,Hour,Minute,Max,Month,Day,Hour,Minute]
End of Data Dictionary
1,RUN PERIOD 1,  41.98, -87.92,  -6.00, 201.00
4,31, 1
11,8743939838.233168,237943.0337686934,11,19,30,3496696.5245120996,15,11,10
23,1873131545.9611917,105212.57755711969,11,20,50,1034917.3664993962,31,13,60
59,947714135.0835928,29304.70423882741, 1, 1,10,586094.0847765482, 1, 8,10
521,6870808292.271988,0.0,11,13,50,2569177.5122762346,27,20,30
637,15997869821.62448,0.0, 1,10,60,19767298.661632597,31, 7,40
649,15997869821.62448,0.0, 1,10,60,19767298.661632597,31, 7,40
4,59, 2
11,7195030834.747418,99999999999999.0,11,19,30,-99999999999999.0,15,11,10
23,1652282263.9135394,99999999999999.0,11,20,50,-99999999999999.0,31,13,60
59,828502598.2400692,99999999999999.0, 1, 1,10,-99999999999999.0, 1, 8,10
521,5542748570.833872,99999999999999.0,11,13,50,-99999999999999.0,27,20,30
637,12891074655.665112,99999999999999.0, 1,10,60,20604444.186058376, 3, 8,20
649,12891074655.665112,99999999999999.0, 1,10,60,20604444.186058376, 3, 8,20
4,90, 3
11,7153322367.709397,91831.28130786671,31,16,60,3504535.241411394,18,14,60
23,1742539254.7147415,91831.28130786671,31,16,60,1044335.2648319529,18, 9,60
59,876679532.0086803,99999999999999.0, 1, 1,10,-99999999999999.0, 1, 8,10
521,5410783112.994653,99999999999999.0,11,13,50,-99999999999999.0,27,20,30
637,9336383131.982494,99999999999999.0, 1,10,60,-99999999999999.0, 3, 8,20
649,9336383131.982494,99999999999999.0, 1,10,60,-99999999999999.0, 3, 8,20
4,120, 4
11,4219626243.728191,29304.70423882741, 5, 5,10,-99999999999999.0,18,14,60
23,1675658400.1510975,29304.70423882741, 5, 3,40,-99999999999999.0,18, 9,60
59,907976956.135748,99999999999999.0, 1, 1,10,-99999999999999.0, 1, 8,10
521,2543967843.57709,99999999999999.0,11,13,50,-99999999999999.0,27,20,30
637,3792529404.574712,99999999999999.0, 1,10,60,-99999999999999.0, 3, 8,20
649,3792529404.574712,99999999999999.0, 1,10,60,-99999999999999.0, 3, 8,20
4,151, 5
11,3165074368.3707714,99999999999999.0, 5, 5,10,-99999999999999.0,18,14,60
23,1656057356.5052075,99999999999999.0, 5, 3,40,-99999999999999.0,18, 9,60
59,947714135.0835975,99999999999999.0, 1, 1,10,-99999999999999.0, 1, 8,10
521,1509017011.8655863,99999999999999.0,11,13,50,-99999999999999.0,27,20,30
637,852700115.2080231,99999999999999.0, 1,10,60,-99999999999999.0, 3, 8,20
649,852700115.2080231,99999999999999.0, 1,10,60,-99999999999999.0, 3, 8,20
4,181, 6
11,3022816409.171331,99999999999999.0, 5, 5,10,-99999999999999.0,18,14,60
23,1398612484.5008585,99999999999999.0, 5, 3,40,-99999999999999.0,18, 9,60
59,836942353.0608366,99999999999999.0, 1, 1,10,-99999999999999.0, 1, 8,10
521,1624203924.670479,99999999999999.0,11,13,50,-99999999999999.0,27,20,30
637,35516768.1264783,99999999999999.0, 1,10,60,-99999999999999.0, 3, 8,20
649,35516768.1264783,99999999999999.0, 1,10,60,-99999999999999.0, 3, 8,20
4,212, 7
11,3883803109.741577,99999999999999.0, 5, 5,10,-99999999999999.0,18,14,60
23,1501709561.473457,99999999999999.0, 5, 3,40,-99999999999999.0,18, 9,60
59,947714135.0835928,99999999999999.0, 1, 1,10,-99999999999999.0, 1, 8,10
521,2382093548.26814,99999999999999.0,11,13,50,-99999999999999.0,27,20,30
637,0.0,99999999999999.0, 1,10,60,-99999999999999.0, 3, 8,20
649,0.0,99999999999999.0, 1,10,60,-99999999999999.0, 3, 8,20
4,243, 8
11,3427484442.7999754,99999999999999.0, 5, 5,10,-99999999999999.0,18,14,60
23,1476621520.2963994,99999999999999.0, 5, 3,40,-99999999999999.0,18, 9,60
59,912196833.5461445,99999999999999.0, 1, 1,10,-99999999999999.0, 1, 8,10
521,1950862922.5035844,99999999999999.0,11,13,50,-99999999999999.0,27,20,30
637,11285440.777868882,99999999999999.0, 1,10,60,-99999999999999.0, 3, 8,20
649,11285440.777868882,99999999999999.0, 1,10,60,-99999999999999.0, 3, 8,20
4,273, 9
11,2729958736.9156156,99999999999999.0, 5, 5,10,-99999999999999.0,18,14,60
23,1476294177.716132,99999999999999.0, 5, 3,40,-99999999999999.0,18, 9,60
59,872459654.5982904,99999999999999.0, 1, 1,10,-99999999999999.0, 1, 8,10
521,1253664559.199486,99999999999999.0,11,13,50,-99999999999999.0,27,20,30
637,58948921.674450785,99999999999999.0, 1,10,60,-99999999999999.0, 3, 8,20
649,58948921.674450785,99999999999999.0, 1,10,60,-99999999999999.0, 3, 8,20
4,304,10
11,3397982037.4627104,99999999999999.0, 5, 5,10,-99999999999999.0,18,14,60
23,1705201976.1785352,99999999999999.0, 5, 3,40,-99999999999999.0,18, 9,60
59,947714135.0835928,99999999999999.0, 1, 1,10,-99999999999999.0, 1, 8,10
521,1692780061.284172,99999999999999.0,11,13,50,-99999999999999.0,27,20,30
637,1915087405.0424435,99999999999999.0, 1,10,60,-99999999999999.0, 3, 8,20
649,1915087405.0424435,99999999999999.0, 1,10,60,-99999999999999.0, 3, 8,20
4,334,11
11,5918346968.380425,99999999999999.0, 5, 5,10,-99999999999999.0,18,14,60
23,1679451595.6666236,99999999999999.0, 5, 3,40,-99999999999999.0,18, 9,60
59,872459654.5982971,99999999999999.0, 1, 1,10,-99999999999999.0, 1, 8,10
521,4238895372.7138333,99999999999999.0,11,13,50,-99999999999999.0,27,20,30
637,7984488633.234412,99999999999999.0, 1,10,60,-99999999999999.0, 3, 8,20
649,7984488633.234412,99999999999999.0, 1,10,60,-99999999999999.0, 3, 8,20
4,365,12
11,7432956487.103133,99999999999999.0, 5, 5,10,3505278.1468282207,19,13,10
23,1771166214.4841337,99999999999999.0, 5, 3,40,-99999999999999.0,18, 9,60
59,912196833.5461352,99999999999999.0, 1, 1,10,-99999999999999.0, 1, 8,10
521,5661790272.618974,99999999999999.0,11,13,50,-99999999999999.0,27,20,30
637,9840209570.176796,99999999999999.0, 1,10,60,-99999999999999.0, 3, 8,20
649,9840209570.176796,99999999999999.0, 1,10,60,-99999999999999.0, 3, 8,20
5,365
13,60290341844.36388,29304.70423882741, 4, 5, 5,10,3505278.1468282207,12,19,13,10
25,19608726351.56134,29304.70423882741, 4, 5, 3,40,1044335.2648319529, 3,18, 9,60
61,10810270956.07133,29304.70423882741, 1, 1, 1,10,586094.0847765482, 1, 1, 8,10
523,40681615492.80192,0.0, 1,11,13,50,2569177.5122762346, 1,27,20,30
639,62716093868.08691,0.0, 1, 1,10,60,20604444.186058376, 2, 3, 8,20
651,62716093868.08691,0.0, 1, 1,10,60,20604444.186058376, 2, 3, 8,20
1,RUN PERIOD 2,  41.98, -87.92,  -6.00, 201.00
4,1, 7
11,115655450.98925921,99999999999999.0, 5, 5,10,-99999999999999.0,19,13,10
23,63171239.20454018,99999999999999.0, 5, 3,40,-99999999999999.0,18, 9,60
59,39737178.947849855,99999999999999.0, 1, 1,10,-99999999999999.0, 1, 8,10
521,52484211.78471908,99999999999999.0,11,13,50,-99999999999999.0,27,20,30
637,0.0,99999999999999.0, 1,10,60,-99999999999999.0, 3, 8,20
649,0.0,99999999999999.0, 1,10,60,-99999999999999.0, 3, 8,20
5,1
13,115655450.98925921,99999999999999.0, 4, 5, 5,10,-99999999999999.0,12,19,13,10
25,63171239.20454018,99999999999999.0, 4, 5, 3,40,-99999999999999.0, 3,18, 9,60
61,39737178.947849855,99999999999999.0, 1, 1, 1,10,-99999999999999.0, 1, 1, 8,10
523,52484211.78471908,99999999999999.0, 1,11,13,50,-99999999999999.0, 1,27,20,30
639,0.0,99999999999999.0, 1, 1,10,60,-99999999999999.0, 2, 3, 8,20
651,0.0,99999999999999.0, 1, 1,10,60,-99999999999999.0, 2, 3, 8,20
End of Data
 Number of Records Written=          90
