Program Version,EnergyPlus, Version 24.1.0-9d7789a3ac, YMD=2025.04.05 15:40
1,5,Environment Title[],Latitude[deg],Longitude[deg],Time Zone[],Elevation[m]
2,8,Day of Simulation[],Month[],Day of Month[],DST Indicator[1=yes 0=no],Hour[],StartMinute[],EndMinute[],DayType
3,5,Cumulative Day of Simulation[],Month[],Day of Month[],DST Indicator[1=yes 0=no],DayType  ! When Daily Report Variables Requested
4,2,Cumulative Days of Simulation[],Month[]  ! When Monthly Report Variables Requested
5,1,Cumulative Days of Simulation[] ! When Run Period Report Variables Requested
6,1,Calendar Year of Simulation[] ! When Annual Report Variables Requested
250,1,LIVING ZONE,Zone Air Temperature [C] !TimeStep,REPORTSCH
251,1,LIVING ZONE,Zone Air System Sensible Heating Energy [J] !TimeStep,REPORTSCH
336,1,LIVING ZONE,Zone Air System Sensible Cooling Energy [J] !TimeStep,REPORTSCH
385,1,LIVING ZONE,Zone Thermostat Heating Setpoint Temperature [C] !TimeStep,REPORTSCH
386,1,LIVING ZONE,Zone Thermostat Cooling Setpoint Temperature [C] !TimeStep,REPORTSCH
387,1,GARAGE ZONE,Zone Air Temperature [C] !TimeStep,REPORTSCH
388,1,GARAGE ZONE,Zone Air System Sensible Heating Energy [J] !TimeStep,REPORTSCH
425,1,GARAGE ZONE,Zone Air System Sensible Cooling Energy [J] !TimeStep,REPORTSCH
450,1,GARAGE ZONE,Zone Thermostat Heating Setpoint Temperature [C] !TimeStep,REPORTSCH
451,1,GARAGE ZONE,Zone Thermostat Cooling Setpoint Temperature [C] !TimeStep,REPORTSCH
452,1,ATTIC ZONE,Zone Air Temperature [C] !TimeStep,REPORTSCH
453,1,ATTIC ZONE,Zone Air System Sensible Heating Energy [J] !TimeStep,REPORTSCH
490,1,ATTIC ZONE,Zone Air System Sensible Cooling Energy [J] !TimeStep,REPORTSCH
515,1,ATTIC ZONE,Zone Thermostat Heating Setpoint Temperature [C] !TimeStep,REPORTSCH
516,1,ATTIC ZONE,Zone Thermostat Cooling Setpoint Temperature [C] !TimeStep,REPORTSCH
542,1,ACDXCOIL 1,Cooling Coil Total Cooling Energy [J] !TimeStep,REPORTSCH
592,1,HEAT PUMP DX HEATING COIL 1,Heating Coil Heating Energy [J] !TimeStep,REPORTSCH
632,1,SUPP HEATING COIL 1,Heating Coil Heating Energy [J] !TimeStep,REPORTSCH
686,1,TWOSPEED HEAT PUMP 1,Unitary System DX Coil Cycling Ratio [] !TimeStep,REPORTSCH
687,1,TWOSPEED HEAT PUMP 1,Unitary System DX Coil Speed Ratio [] !TimeStep,REPORTSCH
688,1,TWOSPEED HEAT PUMP 1,Unitary System DX Coil Speed Level [] !TimeStep
End of Data Dictionary
1,RUN PERIOD 1,  41.98, -87.92,  -6.00, 201.00
2,21, 1,21, 0, 1, 0.00,10.00,Monday
250,22.693037297448342
251,5704458.623261251
336,0.0
385,22.7
386,27.71
387,0.6402527423994595
388,0.0
425,0.0
450,0.0
451,0.0
452,-1.607100942092683
453,0.0
490,0.0
515,0.0
516,0.0
542,0.0
592,4878337.455152898
632,562752.5701247745
686,1.0
687,1.0
688,2.0
2,21, 1,21, 0, 1,10.00,20.00,Monday
250,21.72094734227834
251,4240400.382862057
336,0.0
385,21.366666666666664
386,27.709999999999997
387,0.6148065356872989
388,0.0
425,0.0
450,0.0
451,0.0
452,-1.5982758114727647
453,0.0
490,0.0
515,0.0
516,0.0
542,0.0
592,1628440.7361671021
632,2576396.0217339103
686,0.3970913701480434
687,0.1666666666666666
688,0.6666666666666665
2,21, 1,21, 0, 1,20.00,30.00,Monday
250,22.60084735786306
251,6376786.180513844
336,0.0
385,22.7
386,27.71
387,0.5889217437187215
388,0.0
425,0.0
450,0.0
451,0.0
452,-1.590832175314576
453,0.0
490,0.0
515,0.0
516,0.0
542,0.0
592,4835885.94398377
632,1521489.7343092267
686,1.0
687,0.9916682162995096
688,2.0
2,21, 1,21, 0, 1,30.00,40.00,Monday
250,22.693094704474394
251,5766337.266501329
336,0.0
385,22.7
386,27.71
387,0.5590219319493668
388,0.0
425,0.0
450,0.0
451,0.0
452,-1.584545173902802
453,0.0
490,0.0
515,0.0
516,0.0
542,0.0
592,4830855.392682367
632,672039.175608781
686,1.0
687,1.0
688,2.0
2,21, 1,21, 0, 1,40.00,50.00,Monday
250,21.714393970176193
251,4308517.243754102
336,0.0
385,21.36666666666664
386,27.709999999999958
387,0.5359080928255046
388,0.0
425,0.0
450,0.0
451,0.0
452,-1.581942500685011
453,0.0
490,0.0
515,0.0
516,0.0
542,0.0
592,1678643.1565872086
632,2584589.130015429
686,0.41584202473383924
687,0.16666666666666644
688,0.6666666666666657
2,21, 1,21, 0, 1,50.00,60.00,Monday
250,22.60039313028711
251,6444241.948845763
336,0.0
385,22.7
386,27.71
387,0.511753725966794
388,0.0
425,0.0
450,0.0
451,0.0
452,-1.5805890923102108
453,0.0
490,0.0
515,0.0
516,0.0
542,0.0
592,4799464.835585233
632,1626819.9553098502
686,1.0
687,1.0
688,2.0
2,21, 1,21, 0, 2, 0.00,10.00,Monday
250,22.69306965564124
251,5810994.181155904
336,0.0
385,22.7
386,27.71
387,0.4832505886977937
388,0.0
425,0.0
450,0.0
451,0.0
452,-1.5812388334500864
453,0.0
490,0.0
515,0.0
516,0.0
542,0.0
592,4799208.322365481
632,748409.319268067
686,1.0
687,1.0
688,2.0
2,21, 1,21, 0, 2,10.00,20.00,Monday
250,21.710377918761033
251,4348038.630059824
336,0.0
385,21.366666666666664
386,27.709999999999997
387,0.4608348325669108
388,0.0
425,0.0
450,0.0
451,0.0
452,-1.5854530427503883
453,0.0
490,0.0
515,0.0
516,0.0
542,0.0
592,1710084.6678128059
632,2587442.728603256
686,0.42635618998607816
687,0.1666666666666666
688,0.6666666666666665
2,21, 1,21, 0, 2,20.00,30.00,Monday
250,22.600140845694128
251,6473434.9493639525
336,0.0
385,22.7
386,27.71
387,0.43703031197079234
388,0.0
425,0.0
450,0.0
451,0.0
452,-1.5933104475475028
453,0.0
490,0.0
515,0.0
516,0.0
542,0.0
592,4799462.508107636
632,1657119.0815241665
686,1.0
687,1.0
688,2.0
2,21, 1,21, 0, 2,30.00,40.00,Monday
250,22.69306530618373
251,5832158.42515618
336,0.0
385,22.7
386,27.71
387,0.40850785823881397
388,0.0
425,0.0
450,0.0
451,0.0
452,-1.6060329101271669
453,0.0
490,0.0
515,0.0
516,0.0
542,0.0
592,4799208.505670976
632,769594.2607000027
686,1.0
687,1.0
688,2.0
2,21, 1,21, 0, 2,40.00,50.00,Monday
250,21.707930542261103
251,4371377.730432895
336,0.0
385,21.36666666666664
386,27.709999999999958
387,0.3858123978682064
388,0.0
425,0.0
450,0.0
451,0.0
452,-1.6193833728599607
453,0.0
490,0.0
515,0.0
516,0.0
542,0.0
592,1730492.4568448702
632,2587605.9797669756
686,0.43216013741039705
687,0.16666666666666644
688,0.6666666666666657
2,21, 1,21, 0, 2,50.00,60.00,Monday
250,22.60002879987275
251,6497792.744116809
336,0.0
385,22.7
386,27.71
387,0.3615180540995339
388,0.0
425,0.0
450,0.0
451,0.0
452,-1.63591936712452
453,0.0
490,0.0
515,0.0
516,0.0
542,0.0
592,4799461.031268931
632,1682157.5201237306
686,1.0
687,1.0
688,2.0
2,21, 1,21, 0, 3, 0.00,10.00,Monday
250,22.693070519082433
251,5861343.905515729
336,0.0
385,22.7
386,27.71
387,0.33279844684530197
388,0.0
425,0.0
450,0.0
451,0.0
452,-1.655063816232023
453,0.0
490,0.0
515,0.0
516,0.0
542,0.0
592,4799208.578392502
632,798785.1690103115
686,1.0
687,1.0
688,2.0
2,21, 1,21, 0, 3,10.00,20.00,Monday
250,21.703404537348796
251,4414184.799245451
336,0.0
385,21.366666666666664
386,27.709999999999997
387,0.31096071720924406
388,0.0
425,0.0
450,0.0
451,0.0
452,-1.6657245009311479
453,0.0
490,0.0
515,0.0
516,0.0
542,0.0
592,1768629.7159075057
632,2587693.6726431926
686,0.4400252767931652
687,0.17477079880148294
688,0.8333333333333334
2,21, 1,21, 0, 3,20.00,30.00,Monday
250,22.599742572394355
251,6551001.182701208
336,0.0
385,22.7
386,27.71
387,0.2885109490439277
388,0.0
425,0.0
450,0.0
451,0.0
452,-1.6716098758538642
453,0.0
490,0.0
515,0.0
516,0.0
542,0.0
592,4799458.357335395
632,1736588.0143493752
686,1.0
687,1.0
688,2.0
2,21, 1,21, 0, 3,30.00,40.00,Monday
250,22.693067497020653
251,5906538.055927142
336,0.0
385,22.7
386,27.71
387,0.26268894914413554
388,0.0
425,0.0
450,0.0
451,0.0
452,-1.6724863059506316
453,0.0
490,0.0
515,0.0
516,0.0
542,0.0
592,4799208.709204602
632,844003.4402443027
686,1.0
687,1.0
688,2.0
2,21, 1,21, 0, 3,40.00,50.00,Monday
250,21.697985072406105
251,4464125.829303807
336,0.0
385,21.36666666666664
386,27.709999999999958
387,0.24348844948003973
388,0.0
425,0.0
450,0.0
451,0.0
452,-1.6683996999955852
453,0.0
490,0.0
515,0.0
516,0.0
542,0.0
592,1814068.9860566969
632,2587784.916632322
686,0.44467257555466144
687,0.1972777644189914
688,0.8333333333333321
2,21, 1,21, 0, 3,50.00,60.00,Monday
250,22.599351049405243
251,6600593.897123398
336,0.0
385,22.7
386,27.71
387,0.22400786294289965
388,0.0
425,0.0
450,0.0
451,0.0
452,-1.6610518151845337
453,0.0
490,0.0
515,0.0
516,0.0
542,0.0
592,4799455.161138886
632,1787629.726477719
686,1.0
687,1.0
688,2.0
2,21, 1,21, 0, 4, 0.00,10.00,Monday
250,22.693061445864068
251,6007357.460418447
336,0.0
385,22.7
386,27.71
387,0.19744393886712813
388,0.0
425,0.0
450,0.0
451,0.0
452,-1.6514020858136538
453,0.0
490,0.0
515,0.0
516,0.0
542,0.0
592,4794520.920117578
632,949551.5664799437
686,1.0
687,1.0
688,2.0
2,21, 1,21, 0, 4,10.00,20.00,Monday
250,21.67869682769107
251,4642140.760349266
336,0.0
385,21.366666666666664
386,27.709999999999997
387,0.1720897813627095
388,0.0
425,0.0
450,0.0
451,0.0
452,-1.6455721043516751
453,0.0
490,0.0
515,0.0
516,0.0
542,0.0
592,1975640.8341530478
632,2588925.3733584136
686,0.46182940192229743
687,0.278972373980506
688,0.8333333333333334
2,21, 1,21, 0, 4,20.00,30.00,Monday
250,22.597772143497743
251,6832881.2378567625
336,0.0
385,22.7
386,27.71
387,0.14289711148076217
388,0.0
425,0.0
450,0.0
451,0.0
452,-1.6425103239064471
453,0.0
490,0.0
515,0.0
516,0.0
542,0.0
592,4785371.308555703
632,2039091.3216879484
686,1.0
687,1.0
688,2.0
2,21, 1,21, 0, 4,30.00,40.00,Monday
250,22.69299477145485
251,6217203.176740798
336,0.0
385,22.7
386,27.71
387,0.10594723309277457
388,0.0
425,0.0
450,0.0
451,0.0
452,-1.6436206901763624
453,0.0
490,0.0
515,0.0
516,0.0
542,0.0
592,4779532.81366049
632,1174556.4363038219
686,1.0
687,1.0
688,2.0
2,21, 1,21, 0, 4,40.00,50.00,Monday
250,21.651592006551773
251,4879959.7692842
336,0.0
385,21.36666666666664
386,27.709999999999958
387,0.0754723047535227
388,0.0
425,0.0
450,0.0
451,0.0
452,-1.6504223226902783
453,0.0
490,0.0
515,0.0
516,0.0
542,0.0
592,2122265.218802831
632,2668241.2219442036
686,0.4856888254190107
687,0.33333333333333287
688,0.8333333333333321
2,21, 1,21, 0, 4,50.00,60.00,Monday
250,22.595404785443534
251,7067900.198537439
336,0.0
385,22.7
386,27.71
387,0.04174749635767615
388,0.0
425,0.0
450,0.0
451,0.0
452,-1.660895938386614
453,0.0
490,0.0
515,0.0
516,0.0
542,0.0
592,4769937.271648984
632,2296661.1226280294
686,1.0
687,1.0
688,2.0
2,21, 1,21, 0, 5, 0.00,10.00,Monday
250,22.69286515865449
251,6320090.673082818
336,0.0
385,22.7
386,27.71
387,0.008839003326550562
388,0.0
425,0.0
450,0.0
451,0.0
452,-1.6714106633504258
453,0.0
490,0.0
515,0.0
516,0.0
542,0.0
592,4762965.916636136
632,1294272.389891196
686,1.0
687,1.0
688,2.0
2,21, 1,21, 0, 5,10.00,20.00,Monday
250,21.64941420972191
251,4897888.028002698
336,0.0
385,21.366666666666664
386,27.709999999999997
387,-0.007178002234017522
388,0.0
425,0.0
450,0.0
451,0.0
452,-1.6727652784093276
453,0.0
490,0.0
515,0.0
516,0.0
542,0.0
592,2122099.630654431
632,2685801.6760691353
686,0.48786060920463464
687,0.33333333333333337
688,0.8333333333333334
2,21, 1,21, 0, 5,20.00,30.00,Monday
250,22.59519539782699
251,6987078.276287027
336,0.0
385,22.7
386,27.71
387,-0.019413808486344837
388,0.0
425,0.0
450,0.0
451,0.0
452,-1.6662505444828923
453,0.0
490,0.0
515,0.0
516,0.0
542,0.0
592,4750777.407138325
632,2235557.7444041073
686,1.0
687,1.0
688,2.0
2,21, 1,21, 0, 5,30.00,40.00,Monday
250,22.692848174189404
251,6234804.739789007
336,0.0
385,22.7
386,27.71
387,-0.029820339249908023
388,0.0
425,0.0
450,0.0
451,0.0
452,-1.6492463958614572
453,0.0
490,0.0
515,0.0
516,0.0
542,0.0
592,4743040.9313519
632,1228934.5406357495
686,1.0
687,1.0
688,2.0
2,21, 1,21, 0, 5,40.00,50.00,Monday
250,21.660048333789337
251,4807375.921398702
336,0.0
385,21.36666666666664
386,27.709999999999958
387,-0.03480797202165721
388,0.0
425,0.0
450,0.0
451,0.0
452,-1.627424272491071
453,0.0
490,0.0
515,0.0
516,0.0
542,0.0
592,2082473.7710109185
632,2636444.3060468757
686,0.47909563414418577
687,0.33333333333333287
688,0.8333333333333321
2,21, 1,21, 0, 5,50.00,60.00,Monday
250,22.596249724743977
251,6900094.790494893
336,0.0
385,22.7
386,27.71
387,-0.03790242601089918
388,0.0
425,0.0
450,0.0
451,0.0
452,-1.5988083044932684
453,0.0
490,0.0
515,0.0
516,0.0
542,0.0
592,4727862.022122598
632,2168726.659053115
686,1.0
687,1.0
688,2.0
2,21, 1,21, 0, 6, 0.00,10.00,Monday
250,22.69292184182961
251,6235625.995738288
336,0.0
385,22.7
386,27.71
387,-0.04758594904464012
388,0.0
425,0.0
450,0.0
451,0.0
452,-1.5671424815905808
453,0.0
490,0.0
515,0.0
516,0.0
542,0.0
592,4723761.640526087
632,1248911.3553966705
686,1.0
687,1.0
688,2.0
2,21, 1,21, 0, 6,10.00,20.00,Monday
250,21.651182790918952
251,4882079.787891407
336,0.0
385,21.366666666666664
386,27.709999999999997
387,-0.06364245062798193
388,0.0
425,0.0
450,0.0
451,0.0
452,-1.5535151397958207
453,0.0
490,0.0
515,0.0
516,0.0
542,0.0
592,2103420.805188577
632,2688450.2635615985
686,0.48719772170271286
687,0.33333333333333337
688,0.8333333333333334
2,21, 1,21, 0, 6,20.00,30.00,Monday
250,22.59556066563414
251,7052855.615659411
336,0.0
385,22.7
386,27.71
387,-0.08511172563758568
388,0.0
425,0.0
450,0.0
451,0.0
452,-1.5506283709621778
453,0.0
490,0.0
515,0.0
516,0.0
542,0.0
592,4716183.172663737
632,2335533.6600756506
686,1.0
687,1.0
688,2.0
2,21, 1,21, 0, 6,30.00,40.00,Monday
250,22.69289826502247
251,6379641.447310948
336,0.0
385,22.7
386,27.71
387,-0.11498550620378933
388,0.0
425,0.0
450,0.0
451,0.0
452,-1.560218390591424
453,0.0
490,0.0
515,0.0
516,0.0
542,0.0
592,4711143.903481509
632,1405617.6706833693
686,1.0
687,1.0
688,2.0
2,21, 1,21, 0, 6,40.00,50.00,Monday
250,21.642673063078615
251,5033204.72951215
336,0.0
385,21.36666666666664
386,27.709999999999958
387,-0.14136750551603477
388,0.0
425,0.0
450,0.0
451,0.0
452,-1.5796335473313685
453,0.0
490,0.0
515,0.0
516,0.0
542,0.0
592,2178892.668142863
632,2757435.340530474
686,0.5073060042065424
687,0.3431730675421634
688,1.166666666666665
2,21, 1,21, 0, 6,50.00,60.00,Monday
250,22.59491242338622
251,7205614.224047239
336,0.0
385,22.7
386,27.71
387,-0.17167608281503277
388,0.0
425,0.0
450,0.0
451,0.0
452,-1.6080410790090447
453,0.0
490,0.0
515,0.0
516,0.0
542,0.0
592,4703074.469396545
632,2503651.7733904435
686,1.0
687,1.0
688,2.0
2,21, 1,21, 0, 7, 0.00,10.00,Monday
250,22.692873359064098
251,6524280.600912267
336,0.0
385,22.7
386,27.71
387,-0.21409954205858517
388,0.0
425,0.0
450,0.0
451,0.0
452,-1.6602217966011208
453,0.0
490,0.0
515,0.0
516,0.0
542,0.0
592,4723623.906814611
632,1537841.3343781005
686,1.0
687,1.0
688,2.0
2,21, 1,21, 0, 7,10.00,20.00,Monday
250,21.637005892438122
251,5148214.360907108
336,0.0
385,21.366666666666664
386,27.709999999999997
387,-0.25582693808733725
388,0.0
425,0.0
450,0.0
451,0.0
452,-1.7390802911905834
453,0.0
490,0.0
515,0.0
516,0.0
542,0.0
592,2256128.4046347663
632,2792446.5384512707
686,0.5133604325404975
687,0.3733970167257052
688,1.1666666666666665
2,21, 1,21, 0, 7,20.00,30.00,Monday
250,22.59439249433793
251,7294121.235724141
336,0.0
385,22.7
386,27.71
387,-0.3074016005138607
388,0.0
425,0.0
450,0.0
451,0.0
452,-1.8594232030981552
453,0.0
490,0.0
515,0.0
516,0.0
542,0.0
592,4766780.835023567
632,2529891.386699586
686,1.0
687,1.0
688,2.0
2,21, 1,21, 0, 7,30.00,40.00,Monday
250,22.692841813111897
251,6559224.502832273
336,0.0
385,22.7
386,27.71
387,-0.37798805358057563
388,0.0
425,0.0
450,0.0
451,0.0
452,-2.0408549268789575
453,0.0
490,0.0
515,0.0
516,0.0
542,0.0
592,4785134.678852882
632,1511330.1721362357
686,1.0
687,1.0
688,2.0
2,21, 1,21, 0, 7,40.00,50.00,Monday
250,21.63500428158575
251,5186491.518111936
336,0.0
385,21.36666666666664
386,27.709999999999958
387,-0.4410716987027281
388,0.0
425,0.0
450,0.0
451,0.0
452,-2.2231235419275857
453,0.0
490,0.0
515,0.0
516,0.0
542,0.0
592,2298123.760430214
632,2788516.1928112414
686,0.5151776728804416
687,0.37897939168843464
688,1.166666666666665
2,21, 1,21, 0, 7,50.00,60.00,Monday
250,22.59424669039378
251,7332230.309544717
336,0.0
385,22.7
386,27.71
387,-0.5145460243969741
388,0.0
425,0.0
450,0.0
451,0.0
452,-2.442694173225685
453,0.0
490,0.0
515,0.0
516,0.0
542,0.0
592,4825245.985136814
632,2509988.963125181
686,1.0
687,1.0
688,2.0
2,21, 1,21, 0, 8, 0.00,10.00,Monday
250,22.6928371610253
251,6239381.778958202
336,0.0
385,22.7
386,27.71
387,-0.6001250550577267
388,0.0
425,0.0
450,0.0
451,0.0
452,-2.704059144990818
453,0.0
490,0.0
515,0.0
516,0.0
542,0.0
592,4833759.869269785
632,1142872.7598764289
686,1.0
687,1.0
688,2.0
2,21, 1,21, 0, 8,10.00,20.00,Monday
250,21.664418192317175
251,4764538.071975464
336,0.0
385,21.366666666666664
386,27.709999999999997
387,-0.6525056161194799
388,0.0
425,0.0
450,0.0
451,0.0
452,-2.8226070233996197
453,0.0
490,0.0
515,0.0
516,0.0
542,0.0
592,2098268.656602582
632,2581118.326918014
686,0.47210937097820177
687,0.32813030773998053
688,0.8333333333333334
2,21, 1,21, 0, 8,20.00,30.00,Monday
250,22.59683016166768
251,6866833.113128721
336,0.0
385,22.7
386,27.71
387,-0.6964676345662772
388,0.0
425,0.0
450,0.0
451,0.0
452,-2.8407376272855984
453,0.0
490,0.0
515,0.0
516,0.0
542,0.0
592,4856776.3143821815
632,2005266.5238501388
686,1.0
687,1.0
688,2.0
2,21, 1,21, 0, 8,30.00,40.00,Monday
250,22.692970039152524
251,6088086.266797319
336,0.0
385,22.7
386,27.71
387,-0.7338595433348236
388,0.0
425,0.0
450,0.0
451,0.0
452,-2.7395699409803105
453,0.0
490,0.0
515,0.0
516,0.0
542,0.0
592,4865303.233640862
632,959738.7082461679
686,1.0
687,1.0
688,2.0
2,21, 1,21, 0, 8,40.00,50.00,Monday
250,21.685178190785088
251,4575953.062080602
336,0.0
385,21.36666666666664
386,27.709999999999958
387,-0.7457360540794897
388,0.0
425,0.0
450,0.0
451,0.0
452,-2.531260578597911
453,0.0
490,0.0
515,0.0
516,0.0
542,0.0
592,1931186.8012417434
632,2574890.2978504035
686,0.4537368929755903
687,0.24119805245347287
688,0.8333333333333321
2,21, 1,21, 0, 8,50.00,60.00,Monday
250,22.598169184979866
251,6619879.420204709
336,0.0
385,22.7
386,27.71
387,-0.7413299589302571
388,0.0
425,0.0
450,0.0
451,0.0
452,-2.214665103174386
453,0.0
490,0.0
515,0.0
516,0.0
542,0.0
592,4888311.439278252
632,1721213.2531555144
686,1.0
687,1.0
688,2.0
2,21, 1,21, 0, 9, 0.00,10.00,Monday
250,21.72532456613211
251,3684289.1322583416
336,0.0
385,21.7
386,27.71
387,-0.7122751344374517
388,0.0
425,0.0
450,0.0
451,0.0
452,-1.7130378904728962
453,0.0
490,0.0
515,0.0
516,0.0
542,0.0
592,2840722.9338711365
632,609000.8617264781
686,0.6098403550753828
687,0.5
688,1.5
2,21, 1,21, 0, 9,10.00,20.00,Monday
250,22.605452766190048
251,7254879.492137582
336,0.0
385,22.7
386,27.71
387,-0.6581446454067594
388,0.0
425,0.0
450,0.0
451,0.0
452,-1.1680742041177947
453,0.0
490,0.0
515,0.0
516,0.0
542,0.0
592,3961489.9009513757
632,3303449.7538791266
686,0.9213268233442311
687,0.5
688,1.5
2,21, 1,21, 0, 9,20.00,30.00,Monday
250,21.72069387567307
251,3680501.7136449288
336,0.0
385,21.7
386,27.71
387,-0.585372885771114
388,0.0
425,0.0
450,0.0
451,0.0
452,-0.5782552155919463
453,0.0
490,0.0
515,0.0
516,0.0
542,0.0
592,2797133.972329334
632,666049.5288581267
686,0.5919100901755515
687,0.5
688,1.5
2,21, 1,21, 0, 9,30.00,40.00,Monday
250,22.09801466199591
251,4148454.952319566
336,0.0
385,22.03333333333335
386,27.710000000000022
387,-0.5177843910590092
388,0.0
425,0.0
450,0.0
451,0.0
452,-0.06166396588927487
453,0.0
490,0.0
515,0.0
516,0.0
542,0.0
592,2981649.6591109578
632,1165644.8685799323
686,0.6666666666666672
687,0.4307601932368369
688,1.3333333333333344
2,21, 1,21, 0, 9,40.00,50.00,Monday
250,21.726280003512358
251,4103016.4852930224
336,0.0
385,21.5
386,27.710000000000004
387,-0.4566003818254612
388,0.0
425,0.0
450,0.0
451,0.0
452,0.46062070339689526
453,0.0
490,0.0
515,0.0
516,0.0
542,0.0
592,2016093.2844966617
632,2121066.3264021617
686,0.42980226749358436
687,0.33928455002024094
688,1.0
2,21, 1,21, 0, 9,50.00,60.00,Monday
250,21.957563979722885
251,5559618.012503221
336,0.0
385,22.03333333333335
386,27.710000000000022
387,-0.3812803744902292
388,0.0
425,0.0
450,0.0
451,0.0
452,1.0011568623649174
453,0.0
490,0.0
515,0.0
516,0.0
542,0.0
592,3008189.680526739
632,2646021.31054407
686,0.7042301633903777
687,0.3333333333333336
688,1.3333333333333344
2,21, 1,21, 0,10, 0.00,10.00,Monday
250,22.149086904477613
251,4126318.6286567603
336,0.0
385,22.03333333333333
386,27.71
387,-0.264903267900978
388,0.0
425,0.0
450,0.0
451,0.0
452,1.6860701836457697
453,0.0
490,0.0
515,0.0
516,0.0
542,0.0
592,3350490.150697284
632,723243.2158914555
686,0.6666666666666666
687,0.6666666666666666
688,1.3333333333333333
2,21, 1,21, 0,10,10.00,20.00,Monday
250,21.747584528886957
251,3924012.795286949
336,0.0
385,21.5
386,27.710000000000004
387,-0.18207133845349205
388,0.0
425,0.0
450,0.0
451,0.0
452,2.1562600849822466
453,0.0
490,0.0
515,0.0
516,0.0
542,0.0
592,1868563.4313361177
632,2095232.1294483894
686,0.4144345201946191
687,0.2470936989375328
688,1.0
2,21, 1,21, 0,10,20.00,30.00,Monday
250,21.95517364854238
251,5328610.541283247
336,0.0
385,22.033333333333324
386,27.709999999999987
387,-0.08667198839164675
388,0.0
425,0.0
450,0.0
451,0.0
452,2.677090873118793
453,0.0
490,0.0
515,0.0
516,0.0
542,0.0
592,2885224.4902894907
632,2556068.1762332153
686,0.6547181272770404
687,0.3333333333333332
688,1.3333333333333328
2,21, 1,21, 0,10,30.00,40.00,Monday
250,21.69843492767731
251,4954428.263328856
336,0.0
385,21.700000000000006
386,27.710000000000008
387,0.019253187313009335
388,0.0
425,0.0
450,0.0
451,0.0
452,3.244144835425498
453,0.0
490,0.0
515,0.0
516,0.0
542,0.0
592,2988029.206377532
632,2026879.3772696408
686,0.6145663894819787
687,0.5
688,1.25
2,21, 1,21, 0,10,40.00,50.00,Monday
250,21.954806412366086
251,5174289.593552571
336,0.0
385,22.03333333333335
386,27.710000000000022
387,0.14137274309044226
388,0.0
425,0.0
450,0.0
451,0.0
452,3.890519574092872
453,0.0
490,0.0
515,0.0
516,0.0
542,0.0
592,2831764.1111065005
632,2465788.460992176
686,0.6303268674884033
687,0.3333333333333336
688,1.3333333333333344
2,21, 1,21, 0,10,50.00,60.00,Monday
250,21.717132228657036
251,4649922.704983774
336,0.0
385,21.7
386,27.71
387,0.2793145102342205
388,0.0
425,0.0
450,0.0
451,0.0
452,4.610331038481984
453,0.0
490,0.0
515,0.0
516,0.0
542,0.0
592,2891677.0149487006
632,1815467.1800073413
686,0.589637721528241
687,0.4700700969281405
688,1.25
2,21, 1,21, 0,11, 0.00,10.00,Monday
250,21.844813337627212
251,4471169.763950779
336,0.0
385,21.7
386,27.71
387,0.49902381541735497
388,0.0
425,0.0
450,0.0
451,0.0
452,5.603719863394764
453,0.0
490,0.0
515,0.0
516,0.0
542,0.0
592,2532705.9761423687
632,1961510.9989768649
686,0.566051675414717
687,0.2708114352378157
688,1.25
2,21, 1,21, 0,11,10.00,20.00,Monday
250,21.852177586635037
251,4353950.202684177
336,0.0
385,21.7
386,27.71
387,0.7049847020480156
388,0.0
425,0.0
450,0.0
451,0.0
452,6.511512235650334
453,0.0
490,0.0
515,0.0
516,0.0
542,0.0
592,2433596.2266328544
632,1949527.5323262825
686,0.5454068086474764
687,0.25
688,1.0
2,21, 1,21, 0,11,20.00,30.00,Monday
250,21.85856622489639
251,4232876.918233869
336,0.0
385,21.7
386,27.71
387,0.9111683712278873
388,0.0
425,0.0
450,0.0
451,0.0
452,7.440532200661249
453,0.0
490,0.0
515,0.0
516,0.0
542,0.0
592,2335370.6346824234
632,1934464.4686455117
686,0.5174938055876317
687,0.25
688,1.0
2,21, 1,21, 0,11,30.00,40.00,Monday
250,21.862430750937925
251,4151237.6075781877
336,0.0
385,21.7
386,27.71
387,1.1265786695087114
388,0.0
425,0.0
450,0.0
451,0.0
452,8.372666481784625
453,0.0
490,0.0
515,0.0
516,0.0
542,0.0
592,2272134.640403443
632,1921339.3584387447
686,0.4988754570788377
687,0.25
688,1.0
2,21, 1,21, 0,11,40.00,50.00,Monday
250,21.9420756926242
251,4381990.579962252
336,0.0
385,22.03333333333335
386,27.710000000000022
387,1.3028495255633787
388,0.0
425,0.0
450,0.0
451,0.0
452,9.111189556284485
453,0.0
490,0.0
515,0.0
516,0.0
542,0.0
592,2240056.328971703
632,2343164.229542555
686,0.4582969996668978
687,0.3333333333333336
688,1.3333333333333344
2,21, 1,21, 0,11,50.00,60.00,Monday
250,21.73720547746849
251,4129500.6430253386
336,0.0
385,21.7
386,27.71
387,1.4876900742816037
388,0.0
425,0.0
450,0.0
451,0.0
452,9.794403988186573
453,0.0
490,0.0
515,0.0
516,0.0
542,0.0
592,2517911.6192783434
632,1680385.4018779001
686,0.5461056437360772
687,0.2809103760985445
688,1.25
2,21, 1,21, 0,12, 0.00,10.00,Monday
250,21.94633886259837
251,4399530.299745195
336,0.0
385,22.03333333333333
386,27.71
387,1.68497467413567
388,0.0
425,0.0
450,0.0
451,0.0
452,10.415532830862837
453,0.0
490,0.0
515,0.0
516,0.0
542,0.0
592,2383870.2455835054
632,2190285.2102808254
686,0.4926292815313682
687,0.3333333333333333
688,1.3333333333333335
2,21, 1,21, 0,12,10.00,20.00,Monday
250,21.742330506078716
251,4087464.6958947396
336,0.0
385,21.7
386,27.71
387,1.8791276816034483
388,0.0
425,0.0
450,0.0
451,0.0
452,10.91837590270735
453,0.0
490,0.0
515,0.0
516,0.0
542,0.0
592,2482809.91273335
632,1673246.1527102967
686,0.5419825424448493
687,0.26256892342047816
688,1.25
2,21, 1,21, 0,12,20.00,30.00,Monday
250,21.94562900693737
251,4366260.818912254
336,0.0
385,22.033333333333324
386,27.709999999999987
387,2.069622834430984
388,0.0
425,0.0
450,0.0
451,0.0
452,11.31665148724358
453,0.0
490,0.0
515,0.0
516,0.0
542,0.0
592,2373595.0436107083
632,2167309.89596662
686,0.4882483858153158
687,0.3333333333333332
688,1.3333333333333328
2,21, 1,21, 0,12,30.00,40.00,Monday
250,21.742855835308998
251,4058158.565046099
336,0.0
385,21.700000000000006
386,27.710000000000008
387,2.2426233726476226
388,0.0
425,0.0
450,0.0
451,0.0
452,11.585247297168747
453,0.0
490,0.0
515,0.0
516,0.0
542,0.0
592,2468782.0793312853
632,1658606.0916162098
686,0.5391098782408879
687,0.25569814530936813
688,1.25
2,21, 1,21, 0,12,40.00,50.00,Monday
250,21.945250498786976
251,4314517.445282438
336,0.0
385,22.03333333333335
386,27.710000000000022
387,2.400564940494017
388,0.0
425,0.0
450,0.0
451,0.0
452,11.717689721957012
453,0.0
490,0.0
515,0.0
516,0.0
542,0.0
592,2341299.8185281074
632,2152934.543782272
686,0.47823417635757126
687,0.3333333333333336
688,1.3333333333333344
2,21, 1,21, 0,12,50.00,60.00,Monday
250,21.746633864493525
251,4007850.0061228955
336,0.0
385,21.7
386,27.71
387,2.534677795877747
388,0.0
425,0.0
450,0.0
451,0.0
452,11.713626654625493
453,0.0
490,0.0
515,0.0
516,0.0
542,0.0
592,2422657.5664649
632,1656836.659284151
686,0.5276629002136014
687,0.25
688,1.0
2,21, 1,21, 0,13, 0.00,10.00,Monday
250,21.944872806834987
251,4285815.55228727
336,0.0
385,22.03333333333333
386,27.71
387,2.6527522762441738
388,0.0
425,0.0
450,0.0
451,0.0
452,11.638352344016731
453,0.0
490,0.0
515,0.0
516,0.0
542,0.0
592,2321467.537104131
632,2146617.6514324187
686,0.4727188422993043
687,0.3333333333333333
688,1.3333333333333335
2,21, 1,21, 0,13,10.00,20.00,Monday
250,21.748993403174595
251,3953859.050572228
336,0.0
385,21.7
386,27.71
387,2.753119456844366
388,0.0
425,0.0
450,0.0
451,0.0
452,11.556360056528439
453,0.0
490,0.0
515,0.0
516,0.0
542,0.0
592,2379600.5574332965
632,1647519.0330037284
686,0.5174939060510493
687,0.25
688,1.0
2,21, 1,21, 0,13,20.00,30.00,Monday
250,21.943661321090946
251,4187798.8247601325
336,0.0
385,22.033333333333324
386,27.709999999999987
387,2.844262322772134
388,0.0
425,0.0
450,0.0
451,0.0
452,11.49643312669119
453,0.0
490,0.0
515,0.0
516,0.0
542,0.0
592,2262275.507387854
632,2112647.942696963
686,0.4582828564240367
687,0.3333333333333332
688,1.3333333333333328
2,21, 1,21, 0,13,30.00,40.00,Monday
250,21.752082377392917
251,3872628.527417841
336,0.0
385,21.700000000000006
386,27.710000000000008
387,2.9268082735543115
388,0.0
425,0.0
450,0.0
451,0.0
452,11.462142319731612
453,0.0
490,0.0
515,0.0
516,0.0
542,0.0
592,2318643.801212002
632,1629643.111260035
686,0.5026893312317428
687,0.25
688,1.0
2,21, 1,21, 0,13,40.00,50.00,Monday
250,21.942489063479822
251,4073253.578792937
336,0.0
385,22.03333333333335
386,27.710000000000022
387,3.006767832041833
388,0.0
425,0.0
450,0.0
451,0.0
452,11.442174978451895
453,0.0
490,0.0
515,0.0
516,0.0
542,0.0
592,2183927.821449934
632,2085246.9344634975
686,0.438870563233851
687,0.3333333333333336
688,1.3333333333333344
2,21, 1,21, 0,13,50.00,60.00,Monday
250,21.76007989149176
251,3744392.030941641
336,0.0
385,21.7
386,27.71
387,3.082396781735543
388,0.0
425,0.0
450,0.0
451,0.0
452,11.429892454882161
453,0.0
490,0.0
515,0.0
516,0.0
542,0.0
592,2196427.697651881
632,1630089.6457717177
686,0.4721423723833078
687,0.25
688,1.0
2,21, 1,21, 0,14, 0.00,10.00,Monday
250,21.281854446647174
251,4358783.647244785
336,0.0
385,21.366666666666667
386,27.71
387,3.1585933136221724
388,0.0
425,0.0
450,0.0
451,0.0
452,11.388385745641905
453,0.0
490,0.0
515,0.0
516,0.0
542,0.0
592,3281893.243984434
632,1211828.9190014612
686,0.6666666666666667
687,0.4722605905209028
688,1.3333333333333335
2,21, 1,21, 0,14,10.00,20.00,Monday
250,22.064504113195646
251,5317227.676694806
336,0.0
385,21.9
386,27.710000000000004
387,3.229575485113637
388,0.0
425,0.0
450,0.0
451,0.0
452,11.283269116344936
453,0.0
490,0.0
515,0.0
516,0.0
542,0.0
592,2258184.5935385954
632,3273307.146992136
686,0.43067438428864163
687,0.4
688,1.2000000000000002
2,21, 1,21, 0,14,20.00,30.00,Monday
250,22.64191970574427
251,4111393.6633021086
336,0.0
385,22.7
386,27.71
387,3.3005056769381005
388,0.0
425,0.0
450,0.0
451,0.0
452,11.112222241332983
453,0.0
490,0.0
515,0.0
516,0.0
542,0.0
592,4032830.840698854
632,0.0
686,0.9440590870598837
687,0.2446915686589675
688,1.5
2,21, 1,21, 0,14,30.00,40.00,Monday
250,22.07776094862775
251,2810730.8735798686
336,0.0
385,21.27142857142859
386,27.710000000000026
387,3.352391445305715
388,0.0
425,0.0
450,0.0
451,0.0
452,10.860214203950632
453,0.0
490,0.0
515,0.0
516,0.0
542,0.0
592,937269.5095041674
632,1953789.649766768
686,0.1861760504046283
687,0.14285714285714307
688,0.4285714285714292
2,21, 1,21, 0,14,40.00,50.00,Monday
250,21.952527051609337
251,3097850.968284022
336,0.0
385,21.5
386,27.710000000000004
387,3.388451609216505
388,0.0
425,0.0
450,0.0
451,0.0
452,10.493719561060034
453,0.0
490,0.0
515,0.0
516,0.0
542,0.0
592,1316050.5428803891
632,1887833.9288313133
686,0.26094957539252017
687,0.2
688,0.6000000000000001
2,21, 1,21, 0,14,50.00,60.00,Monday
250,21.767475938136016
251,3583530.6536316616
336,0.0
385,21.7
386,27.71
387,3.4081807912257807
388,0.0
425,0.0
450,0.0
451,0.0
452,10.016879985156862
453,0.0
490,0.0
515,0.0
516,0.0
542,0.0
592,2071419.5911685792
632,1604750.757047116
686,0.43300789708845866
687,0.25
688,1.0
2,21, 1,21, 0,15, 0.00,10.00,Monday