Program Version,EnergyPlus, Version 24.2.0-94a887817b, YMD=2025.02.04 17:21
1,5,Environment Title[],Latitude[deg],Longitude[deg],Time Zone[],Elevation[m]
2,8,Day of Simulation[],Month[],Day of Month[],DST Indicator[1=yes 0=no],Hour[],StartMinute[],EndMinute[],DayType
3,5,Cumulative Day of Simulation[],Month[],Day of Month[],DST Indicator[1=yes 0=no],DayType  ! When Daily Meters Requested
4,2,Cumulative Days of Simulation[],Month[]  ! When Monthly Meters Requested
5,1,Cumulative Days of Simulation[] ! When Run Period Meters Requested
6,1,Calendar Year of Simulation[] ! When Annual Meters Requested
11,9,Electricity:Facility [J] !Monthly [Value,Min,Day,Hour,Minute,Max,Day,Hour,Minute]
23,9,Electricity:Building [J] !Monthly [Value,Min,Day,Hour,Minute,Max,Day,Hour,Minute]
59,9,InteriorLights:Electricity [J] !Monthly [Value,Min,Day,Hour,Minute,Max,Day,Hour,Minute]
521,9,Electricity:HVAC [J] !Monthly [Value,Min,Day,Hour,Minute,Max,Day,Hour,Minute]
637,9,NaturalGas:Facility [J] !Monthly [Value,Min,Day,Hour,Minute,Max,Day,Hour,Minute]
649,9,NaturalGas:HVAC [J] !Monthly [Value,Min,Day,Hour,Minute,Max,Day,Hour,Minute]
13,11,Electricity:Facility [J] !RunPeriod [Value,Min,Month,Day,Hour,Minute,Max,Month,Day,Hour,Minute]
25,11,Electricity:Building [J] !RunPeriod [Value,Min,Month,Day,Hour,Minute,Max,Month,Day,Hour,Minute]
61,11,InteriorLights:Electricity [J] !RunPeriod [Value,Min,Month,Day,Hour,Minute,Max,Month,Day,Hour,Minute]
523,11,Electricity:HVAC [J] !RunPeriod [Value,Min,Month,Day,Hour,Minute,Max,Month,Day,Hour,Minute]
639,11,NaturalGas:Facility [J] !RunPeriod [Value,Min,Month,Day,Hour,Minute,Max,Month,Day,Hour,Minute]
651,11,NaturalGas:HVAC [J] !RunPeriod [Value,Min,Month,Day,Hour,Minute,Max,Month,Day,Hour,Minute]
End of Data Dictionary
1,YEARSIMULATION,  41.98, -87.92,  -6.00, 201.00
4,31, 1
11,7966077299.491552,226939.04452635808,11,19,30,3405154.392371575,29,15,10
23,1825176774.9660313,101976.54076700583,11,20,60,1009206.0024316971,31,13,50
59,939683825.2950006,29056.395339981565, 1, 1,10,581127.9067996313, 1, 8,10
521,6140900524.525552,0.0,11,13,40,2483792.1727502528,27,21,10
637,14060337957.681244,0.0, 1, 8,60,18708170.05784756,31, 7,50
649,14060337957.681244,0.0, 1, 8,60,18708170.05784756,31, 7,50
4,59, 2
11,6488805060.297373,173864.58347262567,14,19,30,-99999999999999.0,29,15,10
23,1609725457.9632514,99999999999999.0,11,20,60,-99999999999999.0,31,13,50
59,821482409.0519478,99999999999999.0, 1, 1,10,-99999999999999.0, 1, 8,10
521,4879079602.334117,99999999999999.0,11,13,40,-99999999999999.0,27,21,10
637,11464460829.421272,99999999999999.0, 1, 8,60,19365677.630104434, 3, 8,10
649,11464460829.421272,99999999999999.0, 1, 8,60,19365677.630104434, 3, 8,10
4,90, 3
11,6278906749.778839,29056.395339981565,31,14,50,-99999999999999.0,29,15,10
23,1748815399.6380982,29056.395339981565,31,14,50,-99999999999999.0,31,13,50
59,904467474.142936,99999999999999.0, 1, 1,10,-99999999999999.0, 1, 8,10
521,4530091350.140754,99999999999999.0,11,13,40,-99999999999999.0,27,21,10
637,8341839346.507119,99999999999999.0, 1, 8,60,-99999999999999.0, 3, 8,10
649,8341839346.507119,99999999999999.0, 1, 8,60,-99999999999999.0, 3, 8,10
4,120, 4
11,3692703698.529281,99999999999999.0,31,14,50,-99999999999999.0,29,15,10
23,1582592154.6520238,99999999999999.0,31,14,50,-99999999999999.0,31,13,50
59,865067002.061925,99999999999999.0, 1, 1,10,-99999999999999.0, 1, 8,10
521,2110111543.8772416,99999999999999.0,11,13,40,-99999999999999.0,27,21,10
637,3152976218.164006,99999999999999.0, 1, 8,60,-99999999999999.0, 3, 8,10
649,3152976218.164006,99999999999999.0, 1, 8,60,-99999999999999.0, 3, 8,10
4,151, 5
11,2851253748.218404,99999999999999.0,31,14,50,-99999999999999.0,29,15,10
23,1625012501.7932513,99999999999999.0,31,14,50,-99999999999999.0,31,13,50
59,939683825.2950006,99999999999999.0, 1, 1,10,-99999999999999.0, 1, 8,10
521,1226241246.4251359,99999999999999.0,11,13,40,-99999999999999.0,27,21,10
637,552317089.574911,99999999999999.0, 1, 8,60,-99999999999999.0, 3, 8,10
649,552317089.574911,99999999999999.0, 1, 8,60,-99999999999999.0, 3, 8,10
4,181, 6
11,2924383391.625308,99999999999999.0,31,14,50,-99999999999999.0,29,15,10
23,1431149076.1098502,99999999999999.0,31,14,50,-99999999999999.0,31,13,50
59,865067002.0619276,99999999999999.0, 1, 1,10,-99999999999999.0, 1, 8,10
521,1493234315.5154166,99999999999999.0,11,13,40,-99999999999999.0,27,21,10
637,18336384.257489603,99999999999999.0, 1, 8,60,-99999999999999.0, 3, 8,10
649,18336384.257489603,99999999999999.0, 1, 8,60,-99999999999999.0, 3, 8,10
4,212, 7
11,3689747574.197398,99999999999999.0,31,14,50,-99999999999999.0,29,15,10
23,1429904346.0824242,99999999999999.0,31,14,50,-99999999999999.0,31,13,50
59,904467474.1429416,99999999999999.0, 1, 1,10,-99999999999999.0, 1, 8,10
521,2259843228.114936,99999999999999.0,11,13,40,-99999999999999.0,27,21,10
637,0.0,99999999999999.0, 1, 8,60,-99999999999999.0, 3, 8,10
649,0.0,99999999999999.0, 1, 8,60,-99999999999999.0, 3, 8,10
4,243, 8
11,3362121256.4740024,99999999999999.0,31,14,50,-99999999999999.0,29,15,10
23,1512333638.2705948,99999999999999.0,31,14,50,-99999999999999.0,31,13,50
59,939683825.2949975,99999999999999.0, 1, 1,10,-99999999999999.0, 1, 8,10
521,1849787618.2033792,99999999999999.0,11,13,40,-99999999999999.0,27,21,10
637,850055.4383964873,99999999999999.0, 1, 8,60,-99999999999999.0, 3, 8,10
649,850055.4383964873,99999999999999.0, 1, 8,60,-99999999999999.0, 3, 8,10
4,273, 9
11,2478718183.69447,99999999999999.0,31,14,50,-99999999999999.0,29,15,10
23,1401261817.128941,99999999999999.0,31,14,50,-99999999999999.0,31,13,50
59,829850650.9098663,99999999999999.0, 1, 1,10,-99999999999999.0, 1, 8,10
521,1077456366.5655336,99999999999999.0,11,13,40,-99999999999999.0,27,21,10
637,21349634.229376,99999999999999.0, 1, 8,60,-99999999999999.0, 3, 8,10
649,21349634.229376,99999999999999.0, 1, 8,60,-99999999999999.0, 3, 8,10
4,304,10
11,3056134016.5094185,99999999999999.0,31,14,50,-99999999999999.0,29,15,10
23,1666340640.0941672,99999999999999.0,31,14,50,-99999999999999.0,31,13,50
59,939683825.2950006,99999999999999.0, 1, 1,10,-99999999999999.0, 1, 8,10
521,1389793376.4152484,99999999999999.0,11,13,40,-99999999999999.0,27,21,10
637,1433486686.1105788,99999999999999.0, 1, 8,60,-99999999999999.0, 3, 8,10
649,1433486686.1105788,99999999999999.0, 1, 8,60,-99999999999999.0, 3, 8,10
4,334,11
11,5283994448.769794,99999999999999.0,31,14,50,-99999999999999.0,29,15,10
23,1687177066.9549603,99999999999999.0,31,14,50,-99999999999999.0,31,13,50
59,900283353.2139809,99999999999999.0, 1, 1,10,-99999999999999.0, 1, 8,10
521,3596817381.81483,99999999999999.0,11,13,40,-99999999999999.0,27,21,10
637,6837395222.699626,99999999999999.0, 1, 8,60,-99999999999999.0, 3, 8,10
649,6837395222.699626,99999999999999.0, 1, 8,60,-99999999999999.0, 3, 8,10
4,365,12
11,6494750814.383263,99999999999999.0,31,14,50,-99999999999999.0,29,15,10
23,1672356853.3112102,99999999999999.0,31,14,50,-99999999999999.0,31,13,50
59,869251122.9908829,99999999999999.0, 1, 1,10,-99999999999999.0, 1, 8,10
521,4822393961.072051,99999999999999.0,11,13,40,-99999999999999.0,27,21,10
637,8887517238.611423,99999999999999.0, 1, 8,60,-99999999999999.0, 3, 8,10
649,8887517238.611423,99999999999999.0, 1, 8,60,-99999999999999.0, 3, 8,10
5,365
13,54567596241.96926,29056.395339981565, 3,31,14,50,3405154.392371575, 1,29,15,10
25,19191845726.96301,29056.395339981565, 3,31,14,50,1009206.0024316971, 1,31,13,50
61,10718671789.753162,29056.395339981565, 1, 1, 1,10,581127.9067996313, 1, 1, 8,10
523,35375750515.00392,0.0, 1,11,13,40,2483792.1727502528, 1,27,21,10
639,54770866662.69559,0.0, 1, 1, 8,60,19365677.630104434, 2, 3, 8,10
651,54770866662.69559,0.0, 1, 1, 8,60,19365677.630104434, 2, 3, 8,10
End of Data
 Number of Records Written=          78
