Program Version,EnergyPlus, Version 24.2.0-94a887817b, YMD=2025.02.04 17:10
1,5,Environment Title[],Latitude[deg],Longitude[deg],Time Zone[],Elevation[m]
2,8,Day of Simulation[],Month[],Day of Month[],DST Indicator[1=yes 0=no],Hour[],StartMinute[],EndMinute[],DayType
3,5,Cumulative Day of Simulation[],Month[],Day of Month[],DST Indicator[1=yes 0=no],DayType  ! When Daily Report Variables Requested
4,2,Cumulative Days of Simulation[],Month[]  ! When Monthly Report Variables Requested
5,1,Cumulative Days of Simulation[] ! When Run Period Report Variables Requested
6,1,Calendar Year of Simulation[] ! When Annual Report Variables Requested
250,1,LIVING ZONE,Zone Air Temperature [C] !TimeStep,REPORTSCH
251,1,LIVING ZONE,Zone Air System Sensible Heating Energy [J] !TimeStep,REPORTSCH
336,1,LIVING ZONE,Zone Air System Sensible Cooling Energy [J] !TimeStep,REPORTSCH
385,1,LIVING ZONE,Zone Thermostat Heating Setpoint Temperature [C] !TimeStep,REPORTSCH
386,1,LIVING ZONE,Zone Thermostat Cooling Setpoint Temperature [C] !TimeStep,REPORTSCH
387,1,GARAGE ZONE,Zone Air Temperature [C] !TimeStep,REPORTSCH
388,1,GARAGE ZONE,Zone Air System Sensible Heating Energy [J] !TimeStep,REPORTSCH
425,1,GARAGE ZONE,Zone Air System Sensible Cooling Energy [J] !TimeStep,REPORTSCH
450,1,GARAGE ZONE,Zone Thermostat Heating Setpoint Temperature [C] !TimeStep,REPORTSCH
451,1,GARAGE ZONE,Zone Thermostat Cooling Setpoint Temperature [C] !TimeStep,REPORTSCH
452,1,ATTIC ZONE,Zone Air Temperature [C] !TimeStep,REPORTSCH
453,1,ATTIC ZONE,Zone Air System Sensible Heating Energy [J] !TimeStep,REPORTSCH
490,1,ATTIC ZONE,Zone Air System Sensible Cooling Energy [J] !TimeStep,REPORTSCH
515,1,ATTIC ZONE,Zone Thermostat Heating Setpoint Temperature [C] !TimeStep,REPORTSCH
516,1,ATTIC ZONE,Zone Thermostat Cooling Setpoint Temperature [C] !TimeStep,REPORTSCH
542,1,ACDXCOIL 1,Cooling Coil Total Cooling Energy [J] !TimeStep,REPORTSCH
592,1,HEAT PUMP DX HEATING COIL 1,Heating Coil Heating Energy [J] !TimeStep,REPORTSCH
632,1,SUPP HEATING COIL 1,Heating Coil Heating Energy [J] !TimeStep,REPORTSCH
686,1,TWOSPEED HEAT PUMP 1,Unitary System DX Coil Cycling Ratio [] !TimeStep,REPORTSCH
687,1,TWOSPEED HEAT PUMP 1,Unitary System DX Coil Speed Ratio [] !TimeStep,REPORTSCH
688,1,TWOSPEED HEAT PUMP 1,Unitary System DX Coil Speed Level [] !TimeStep,REPORTSCH
End of Data Dictionary
1,YEARSIMULATION,  41.98, -87.92,  -6.00, 201.00
2,21, 1,21, 0, 1, 0.00,10.00,Sunday
250,24.826080353993884
251,8556363.591382202
336,0.0
385,24.87
386,25.42
387,0.6441140889774888
388,0.0
425,0.0
450,0.0
451,0.0
452,-1.58683279702614
453,0.0
490,0.0
515,0.0
516,0.0
542,0.0
592,4876118.623349026
632,3542651.7838442056
686,1.0
687,1.0
688,2.0
2,21, 1,21, 0, 1,10.00,20.00,Sunday
250,23.737439158019093
251,6415593.757720796
336,0.0
385,23.53666666666667
386,25.42
387,0.6200503457264956
388,0.0
425,0.0
450,0.0
451,0.0
452,-1.5772294850086497
453,0.0
490,0.0
515,0.0
516,0.0
542,0.0
592,2711796.3461386366
632,3617949.0510536903
686,0.5802350464696155
687,0.5
688,1.1666666666666665
2,21, 1,21, 0, 1,20.00,30.00,Sunday
250,24.17182168301064
251,6325479.432552432
336,0.0
385,24.203333333333326
386,25.419999999999995
387,0.5951254046776455
388,0.0
425,0.0
450,0.0
451,0.0
452,-1.5690054896199834
453,0.0
490,0.0
515,0.0
516,0.0
542,0.0
592,3583377.793946798
632,2661017.932511869
686,0.7678683724695582
687,0.6666666666666664
688,1.666666666666666
2,21, 1,21, 0, 1,30.00,40.00,Sunday
250,24.40952244904103
251,7516038.206089574
336,0.0
385,24.869999999999994
386,25.419999999999995
387,0.5655866477845495
388,0.0
425,0.0
450,0.0
451,0.0
452,-1.5615726286386697
453,0.0
490,0.0
515,0.0
516,0.0
542,0.0
592,4830303.878961883
632,3218138.8065511268
686,0.9999999999999997
687,0.9999999999999997
688,1.9999999999999993
2,21, 1,21, 0, 1,40.00,50.00,Sunday
250,24.82638129862446
251,8631087.411821872
336,0.0
385,24.87
386,25.42
387,0.5397123153422625
388,0.0
425,0.0
450,0.0
451,0.0
452,-1.5573720447814643
453,0.0
490,0.0
515,0.0
516,0.0
542,0.0
592,4812841.12045753
632,3680003.9446807313
686,1.0
687,1.0
688,2.0
2,21, 1,21, 0, 1,50.00,60.00,Sunday
250,23.733830259015576
251,6486014.964192625
336,0.0
385,23.536666666666633
386,25.419999999999966
387,0.5179924884757887
388,0.0
425,0.0
450,0.0
451,0.0
452,-1.5560176413036049
453,0.0
490,0.0
515,0.0
516,0.0
542,0.0
592,2691929.991830749
632,3709291.444593383
686,0.5846928357644261
687,0.49999999999999933
688,1.166666666666665
2,21, 1,21, 0, 2, 0.00,10.00,Sunday
250,24.172901355506838
251,6387299.260416095
336,0.0
385,24.203333333333333
386,25.42
387,0.49486296356060444
388,0.0
425,0.0
450,0.0
451,0.0
452,-1.5565835547232427
453,0.0
490,0.0
515,0.0
516,0.0
542,0.0
592,3567412.1502908426
632,2733772.402295198
686,0.7733966847421166
687,0.6666666666666666
688,1.6666666666666665
2,21, 1,21, 0, 2,10.00,20.00,Sunday
250,24.411013109122358
251,7557750.34765692
336,0.0
385,24.87
386,25.42
387,0.46678244151204035
388,0.0
425,0.0
450,0.0
451,0.0
452,-1.5604050429795384
453,0.0
490,0.0
515,0.0
516,0.0
542,0.0
592,4798650.417873069
632,3290445.966338139
686,1.0
687,1.0
688,2.0
2,21, 1,21, 0, 2,20.00,30.00,Sunday
250,24.826545291080258
251,8658670.29394393
336,0.0
385,24.87
386,25.42
387,0.44169351650961297
388,0.0
425,0.0
450,0.0
451,0.0
452,-1.5677160011481215
453,0.0
490,0.0
515,0.0
516,0.0
542,0.0
592,4797025.27600521
632,3723024.853949391
686,1.0
687,1.0
688,2.0
2,21, 1,21, 0, 2,30.00,40.00,Sunday
250,23.73324244474665
251,6497455.282014369
336,0.0
385,23.53666666666665
386,25.419999999999984
387,0.4201124091016695
388,0.0
425,0.0
450,0.0
451,0.0
452,-1.578254936143479
453,0.0
490,0.0
515,0.0
516,0.0
542,0.0
592,2693984.1542307045
632,3718874.0646520206
686,0.5852859840621859
687,0.49999999999999967
688,1.1666666666666659
2,21, 1,21, 0, 2,40.00,50.00,Sunday
250,24.17304760954046
251,6398374.221587069
336,0.0
385,24.20333333333335
386,25.42000000000002
387,0.396751760558379
388,0.0
425,0.0
450,0.0
451,0.0
452,-1.5921405372620012
453,0.0
490,0.0
515,0.0
516,0.0
542,0.0
592,3569978.5627770834
632,2741633.5952660795
686,0.7741382027076322
687,0.6666666666666672
688,1.6666666666666679
2,21, 1,21, 0, 2,50.00,60.00,Sunday
250,24.411392401547975
251,7567588.367764735
336,0.0
385,24.87
386,25.42
387,0.36801732393619746
388,0.0
425,0.0
450,0.0
451,0.0
452,-1.6109603330727957
453,0.0
490,0.0
515,0.0
516,0.0
542,0.0
592,4798649.2343615955
632,3300281.98636997
686,1.0
687,1.0
688,2.0
2,21, 1,21, 0, 3, 0.00,10.00,Sunday
250,24.82659626113101
251,8678773.708641209
336,0.0
385,24.87
386,25.42
387,0.34272985817946927
388,0.0
425,0.0
450,0.0
451,0.0
452,-1.6272328150947755
453,0.0
490,0.0
515,0.0
516,0.0
542,0.0
592,4797025.27600521
632,3743036.413176953
686,1.0
687,1.0
688,2.0
2,21, 1,21, 0, 3,10.00,20.00,Sunday
250,23.731683907349936
251,6527136.084748615
336,0.0
385,23.53666666666667
386,25.42
387,0.3218370603039461
388,0.0
425,0.0
450,0.0
451,0.0
452,-1.6374478302456144
453,0.0
490,0.0
515,0.0
516,0.0
542,0.0
592,2699208.859887448
632,3743851.8763262685
686,0.5867946349384303
687,0.5
688,1.1666666666666665
2,21, 1,21, 0, 3,20.00,30.00,Sunday
250,24.173728039958636
251,6441806.708347723
336,0.0
385,24.203333333333326
386,25.419999999999995
387,0.30010372475992547
388,0.0
425,0.0
450,0.0
451,0.0
452,-1.6431284669527395
453,0.0
490,0.0
515,0.0
516,0.0
542,0.0
592,3581580.2766961744
632,2770314.630214667
686,0.7774903058274119
687,0.6666666666666664
688,1.666666666666666
2,21, 1,21, 0, 3,30.00,40.00,Sunday
250,24.41250269178112
251,7620256.530662848
336,0.0
385,24.869999999999994
386,25.419999999999995
387,0.27449217802105985
388,0.0
425,0.0
450,0.0
451,0.0
452,-1.6439631062331979
453,0.0
490,0.0
515,0.0
516,0.0
542,0.0
592,4798643.404664422
632,3352413.3523430796
686,0.9999999999999997
687,0.9999999999999997
688,1.9999999999999993
2,21, 1,21, 0, 3,40.00,50.00,Sunday
250,24.826734522537024
251,8730233.519119594
336,0.0
385,24.87
386,25.42
387,0.2527373392852871
388,0.0
425,0.0
450,0.0
451,0.0
452,-1.639966514925576
453,0.0
490,0.0
515,0.0
516,0.0
542,0.0
592,4797025.27600521
632,3794212.4897329514
686,1.0
687,1.0
688,2.0
2,21, 1,21, 0, 3,50.00,60.00,Sunday
250,23.72911221359835
251,6576107.618604666
336,0.0
385,23.536666666666633
386,25.419999999999966
387,0.23532351986398056
388,0.0
425,0.0
450,0.0
451,0.0
452,-1.632579587535299
453,0.0
490,0.0
515,0.0
516,0.0
542,0.0
592,2707795.999429034
632,3785097.752020836
686,0.5892742040018383
687,0.49999999999999933
688,1.166666666666665
2,21, 1,21, 0, 4, 0.00,10.00,Sunday
250,24.17586624579079
251,6567180.37926302
336,0.0
385,24.203333333333333
386,25.42
387,0.21293039887650117
388,0.0
425,0.0
450,0.0
451,0.0
452,-1.6243568108587034
453,0.0
490,0.0
515,0.0
516,0.0
542,0.0
592,3613036.0531140454
632,2854302.2544022286
686,0.7876934087286966
687,0.6666666666666666
688,1.6666666666666665
2,21, 1,21, 0, 4,10.00,20.00,Sunday
250,24.41543362311985
251,7805870.829057774
336,0.0
385,24.87
386,25.42
387,0.18157118321523172
388,0.0
425,0.0
450,0.0
451,0.0
452,-1.61588963850692
453,0.0
490,0.0
515,0.0
516,0.0
542,0.0
592,4788958.733450863
632,3545750.543758239
686,1.0
687,1.0
688,2.0
2,21, 1,21, 0, 4,20.00,30.00,Sunday
250,24.827130481883117
251,8986860.291604228
336,0.0
385,24.87
386,25.42
387,0.15071371987550866
388,0.0
425,0.0
450,0.0
451,0.0
452,-1.6121129888155477
453,0.0
490,0.0
515,0.0
516,0.0
542,0.0
592,4781920.349114438
632,4065190.878030222
686,1.0
687,1.0
688,2.0
2,21, 1,21, 0, 4,30.00,40.00,Sunday
250,23.711855227835905
251,6902803.273988208
336,0.0
385,23.53666666666665
386,25.419999999999984
387,0.12202734126431464
388,0.0
425,0.0
450,0.0
451,0.0
452,-1.61421504548641
453,0.0
490,0.0
515,0.0
516,0.0
542,0.0
592,2754319.3298057215
632,4071045.9350012937
686,0.6062614189301527
687,0.49999999999999967
688,1.1666666666666659
2,21, 1,21, 0, 4,40.00,50.00,Sunday
250,24.18141731008448
251,6921193.629106766
336,0.0
385,24.20333333333335
386,25.42000000000002
387,0.09000061829300308
388,0.0
425,0.0
450,0.0
451,0.0
452,-1.6210680330192155
453,0.0
490,0.0
515,0.0
516,0.0
542,0.0
592,3697354.0351038426
632,3097584.911678576
686,0.8170653296207976
687,0.6666666666666672
688,1.6666666666666679
2,21, 1,21, 0, 4,50.00,60.00,Sunday
250,24.422127132106073
251,8125067.868299701
336,0.0
385,24.87
386,25.42
387,0.04920420156073922
388,0.0
425,0.0
450,0.0
451,0.0
452,-1.6328194469616324
453,0.0
490,0.0
515,0.0
516,0.0
542,0.0
592,4767702.829974022
632,3879697.5608111913
686,1.0
687,1.0
688,2.0
2,21, 1,21, 0, 5, 0.00,10.00,Sunday
250,24.827868663613096
251,9198933.024503216
336,0.0
385,24.87
386,25.42
387,0.020815408791763093
388,0.0
425,0.0
450,0.0
451,0.0
452,-1.6413202351759242
453,0.0
490,0.0
515,0.0
516,0.0
542,0.0
592,4759821.308645792
632,4297611.707143586
686,1.0
687,1.0
688,2.0
2,21, 1,21, 0, 5,10.00,20.00,Sunday
250,23.706875283426626
251,6998029.528762863
336,0.0
385,23.53666666666667
386,25.42
387,0.005872281065616699
388,0.0
425,0.0
450,0.0
451,0.0
452,-1.642639772516001
453,0.0
490,0.0
515,0.0
516,0.0
542,0.0
592,2759521.2274429956
632,4162686.3560987506
686,0.6116133205504073
687,0.5
688,1.1666666666666665
2,21, 1,21, 0, 5,20.00,30.00,Sunday
250,24.180897708843933
251,6902325.836299223
336,0.0
385,24.203333333333326
386,25.419999999999995
387,-0.005604178853093906
388,0.0
425,0.0
450,0.0
451,0.0
452,-1.636225119978688
453,0.0
490,0.0
515,0.0
516,0.0
542,0.0
592,3674717.7687852243
632,3103583.960841656
686,0.815697973108437
687,0.6666666666666664
688,1.666666666666666
2,21, 1,21, 0, 5,30.00,40.00,Sunday
250,24.421576295912043
251,7985953.281572556
336,0.0
385,24.869999999999994
386,25.419999999999995
387,-0.015597431855256978
388,0.0
425,0.0
450,0.0
451,0.0
452,-1.619339731354255
453,0.0
490,0.0
515,0.0
516,0.0
542,0.0
592,4742267.789488959
632,3766201.5787097937
686,0.9999999999999997
687,0.9999999999999997
688,1.9999999999999993
2,21, 1,21, 0, 5,40.00,50.00,Sunday
250,24.82778089849609
251,9059879.710129093
336,0.0
385,24.87
386,25.42
387,-0.02130060543899214
388,0.0
425,0.0
450,0.0
451,0.0
452,-1.5962772590759462
453,0.0
490,0.0
515,0.0
516,0.0
542,0.0
592,4733209.018464266
632,4185313.101965399
686,1.0
687,1.0
688,2.0
2,21, 1,21, 0, 5,50.00,60.00,Sunday
250,23.71438588010877
251,6856245.5408765115
336,0.0
385,23.536666666666633
386,25.419999999999966
387,-0.023372327991138177
388,0.0
425,0.0
450,0.0
451,0.0
452,-1.5693108305232644
453,0.0
490,0.0
515,0.0
516,0.0
542,0.0
592,2720766.404565892
632,4057021.0940788775
686,0.6049133031772492
687,0.49999999999999933
688,1.166666666666665
2,21, 1,21, 0, 6, 0.00,10.00,Sunday
250,24.180334080849157
251,6843262.367992481
336,0.0
385,24.203333333333333
386,25.42
387,-0.032366912679570495
388,0.0
425,0.0
450,0.0
451,0.0
452,-1.5433358312364165
453,0.0
490,0.0
515,0.0
516,0.0
542,0.0
592,3640311.274879427
632,3081912.9347073985
686,0.8113639884636971
687,0.6666666666666666
688,1.6666666666666665
2,21, 1,21, 0, 6,10.00,20.00,Sunday
250,24.421200501720307
251,8027346.413290909
336,0.0
385,24.87
386,25.42
387,-0.0507151759551759
388,0.0
425,0.0
450,0.0
451,0.0
452,-1.522018236651025
453,0.0
490,0.0
515,0.0
516,0.0
542,0.0
592,4718957.212395222
632,3832280.0955873206
686,1.0
687,1.0
688,2.0
2,21, 1,21, 0, 6,20.00,30.00,Sunday
250,24.82779150048941
251,9186125.531112846
336,0.0
385,24.87
386,25.42
387,-0.07275093419993683
388,0.0
425,0.0
450,0.0
451,0.0
452,-1.517533839048203
453,0.0
490,0.0
515,0.0
516,0.0
542,0.0
592,4712787.238344823
632,4332098.791295069
686,1.0
687,1.0
688,2.0
2,21, 1,21, 0, 6,30.00,40.00,Sunday
250,23.70298552910468
251,7071751.237413843
336,0.0
385,23.53666666666665
386,25.419999999999984
387,-0.09628010607937176
388,0.0
425,0.0
450,0.0
451,0.0
452,-1.52824034775944
453,0.0
490,0.0
515,0.0
516,0.0
542,0.0
592,2749479.894221809
632,4247641.961938156
686,0.6164495208380854
687,0.49999999999999967
688,1.1666666666666659
2,21, 1,21, 0, 6,40.00,50.00,Sunday
250,24.18406668872209
251,7077051.159408636
336,0.0
385,24.20333333333335
386,25.42000000000002
387,-0.12398096411456266
388,0.0
425,0.0
450,0.0
451,0.0
452,-1.5483692858024591
453,0.0
490,0.0
515,0.0
516,0.0
542,0.0
592,3693663.746770787
632,3244516.9528979547
686,0.8314385221024891
687,0.6666666666666672
688,1.6666666666666679
2,21, 1,21, 0, 6,50.00,60.00,Sunday
250,24.425427235618983
251,8235974.137879742
336,0.0
385,24.87
386,25.42
387,-0.16066598562957723
388,0.0
425,0.0
450,0.0
451,0.0
452,-1.580779783147574
453,0.0
490,0.0
515,0.0
516,0.0
542,0.0
592,4700830.714785872
632,4054538.697306624
686,1.0
687,1.0
688,2.0
2,21, 1,21, 0, 7, 0.00,10.00,Sunday
250,24.828249102215956
251,9361588.281626107
336,0.0
385,24.87
386,25.42
387,-0.19897812023188738
388,0.0
425,0.0
450,0.0
451,0.0
452,-1.6281590658218086
453,0.0
490,0.0
515,0.0
516,0.0
542,0.0
592,4720142.751070037
632,4499103.184185866
686,1.0
687,1.0
688,2.0
2,21, 1,21, 0, 7,10.00,20.00,Sunday
250,23.69576357414315
251,7208104.839880019
336,0.0
385,23.53666666666667
386,25.42
387,-0.24010031141307822
388,0.0
425,0.0
450,0.0
451,0.0
452,-1.7067387989749283
453,0.0
490,0.0
515,0.0
516,0.0
542,0.0
592,2789743.7200347926
632,4346307.799372747
686,0.6227748568390652
687,0.5
688,1.1666666666666665
2,21, 1,21, 0, 7,20.00,30.00,Sunday
250,24.185215882412848
251,7180715.134590821
336,0.0
385,24.203333333333326
386,25.419999999999995
387,-0.29106560974046297
388,0.0
425,0.0
450,0.0
451,0.0
452,-1.826979685736293
453,0.0
490,0.0
515,0.0
516,0.0
542,0.0
592,3762634.3067705696
632,3273527.6021425817
686,0.8385477680979784
687,0.6666666666666664
688,1.666666666666666
2,21, 1,21, 0, 7,30.00,40.00,Sunday
250,24.426537520726296
251,8285348.894948542
336,0.0
385,24.869999999999994
386,25.419999999999995
387,-0.36197320126553734
388,0.0
425,0.0
450,0.0
451,0.0
452,-2.008739994516111
453,0.0
490,0.0
515,0.0
516,0.0
542,0.0
592,4783722.392948974
632,4019124.443625411
686,0.9999999999999997
687,0.9999999999999997
688,1.9999999999999993
2,21, 1,21, 0, 7,40.00,50.00,Sunday
250,24.828352961708454
251,9416421.102234986
336,0.0
385,24.87
386,25.42
387,-0.4325042459211599
388,0.0
425,0.0
450,0.0
451,0.0
452,-2.2052875684114985
453,0.0
490,0.0
515,0.0
516,0.0
542,0.0
592,4800253.518875452
632,4473512.384944302
686,1.0
687,1.0
688,2.0
2,21, 1,21, 0, 7,50.00,60.00,Sunday
250,23.69270858213487
251,7264536.016981797
336,0.0
385,23.536666666666633
386,25.419999999999966
387,-0.500386581703106
388,0.0
425,0.0
450,0.0
451,0.0
452,-2.4108859064966466
453,0.0
490,0.0
515,0.0
516,0.0
542,0.0
592,2838827.220899631
632,4354952.540489914
686,0.6238637376210728
687,0.49999999999999933
688,1.166666666666665
2,21, 1,21, 0, 8, 0.00,10.00,Sunday
250,24.185602012237208
251,7234377.39064922
336,0.0
385,24.203333333333333
386,25.42
387,-0.569418018694151
388,0.0
425,0.0
450,0.0
451,0.0
452,-2.632403622942121
453,0.0
490,0.0
515,0.0
516,0.0
542,0.0
592,3824514.418238917
632,3263372.6315119225
686,0.841072787628047
687,0.6666666666666666
688,1.6666666666666665
2,21, 1,21, 0, 8,10.00,20.00,Sunday
250,24.427143970064098
251,8272443.932414532
336,0.0
385,24.87
386,25.42
387,-0.6410600163647956
388,0.0
425,0.0
450,0.0
451,0.0
452,-2.811057709877054
453,0.0
490,0.0
515,0.0
516,0.0
542,0.0
592,4842698.82728863
632,3946528.886738412
686,1.0
687,1.0
688,2.0
2,21, 1,21, 0, 8,20.00,30.00,Sunday
250,24.828391409308885
251,9364626.968710832
336,0.0
385,24.87
386,25.42
387,-0.6899915681458648
388,0.0
425,0.0
450,0.0
451,0.0
452,-2.835853683797098
453,0.0
490,0.0
515,0.0
516,0.0
542,0.0
592,4850353.090971848
632,4371425.883586742
686,1.0
687,1.0
688,2.0
2,21, 1,21, 0, 8,30.00,40.00,Sunday
250,23.69933468234643
251,7139082.317753363
336,0.0
385,23.53666666666665
386,25.419999999999984
387,-0.7151181738538022
388,0.0
425,0.0
450,0.0
451,0.0
452,-2.7257807049137854
453,0.0
490,0.0
515,0.0
516,0.0
542,0.0
592,2838308.0704335
632,4227832.043055099
686,0.6166304908211261
687,0.49999999999999967
688,1.1666666666666659
2,21, 1,21, 0, 8,40.00,50.00,Sunday
250,24.181940130369895
251,7015192.48902089
336,0.0
385,24.20333333333335
386,25.42000000000002
387,-0.7280135770616781
388,0.0
425,0.0
450,0.0
451,0.0
452,-2.509426969648424
453,0.0
490,0.0
515,0.0
516,0.0
542,0.0
592,3792091.4931354336
632,3093853.230349464
686,0.8222943485993501
687,0.6666666666666672
688,1.6666666666666679
2,21, 1,21, 0, 8,50.00,60.00,Sunday
250,24.80364667398188
251,8897407.321302414
336,0.0
385,24.87
386,25.42
387,-0.7249968263536426
388,0.0
425,0.0
450,0.0
451,0.0
452,-2.185156886859463
453,0.0
490,0.0
515,0.0
516,0.0
542,0.0
592,4881868.245072942
632,3936693.5154120037
686,1.0
687,1.0
688,2.0
2,21, 1,21, 0, 9, 0.00,10.00,Sunday
250,23.77093079181128
251,6246468.0452471655
336,0.0
385,23.670000000000005
386,25.42
387,-0.6996802364977603
388,0.0
425,0.0
450,0.0
451,0.0
452,-1.7907936891204879
453,0.0
490,0.0
515,0.0
516,0.0
542,0.0
592,2690060.018635666
632,3575470.666622216
686,0.6000000000000001
687,0.4185231322055157
688,1.2000000000000002
2,21, 1,21, 0, 9,10.00,20.00,Sunday
250,24.149167726238723
251,8381291.158416972
336,0.0
385,24.203333333333333
386,25.42
387,-0.6550608885097616
388,0.0
425,0.0
450,0.0
451,0.0
452,-1.306271141214215
453,0.0
490,0.0
515,0.0
516,0.0
542,0.0
592,4773139.46294816
632,3554276.5714128567
686,1.0
687,0.8955129582504411
688,2.0
2,21, 1,21, 0, 9,20.00,30.00,Sunday
250,24.191279096410508
251,6522992.000487443
336,0.0
385,24.203333333333326
386,25.419999999999995
387,-0.5760827066706822
388,0.0
425,0.0
450,0.0
451,0.0
452,-0.601080697501894
453,0.0
490,0.0
515,0.0
516,0.0
542,0.0
592,3635680.080642956
632,2737115.8837104067
686,0.7642310054539689
687,0.6666666666666664
688,1.666666666666666
2,21, 1,21, 0, 9,30.00,40.00,Sunday
250,24.208931866347076
251,7869980.378991823
336,0.0
385,24.203333333333344
386,25.420000000000012
387,-0.4897263579743776
388,0.0
425,0.0
450,0.0
451,0.0
452,0.045736802770359866
453,0.0
490,0.0
515,0.0
516,0.0
542,0.0
592,3560951.6639769166
632,4089515.6764971833
686,0.8358158777240433
687,0.4201037590151095
688,1.666666666666667
2,21, 1,21, 0, 9,40.00,50.00,Sunday
250,24.210267678024817
251,7905285.329125595
336,0.0
385,24.20333333333335
386,25.42000000000002
387,-0.40909384834747864
388,0.0
425,0.0
450,0.0
451,0.0
452,0.6596402388841847
453,0.0
490,0.0
515,0.0
516,0.0
542,0.0
592,3640631.6109840856
632,4037620.6347443084
686,0.8385520132686376
687,0.46066876715245597
688,1.6666666666666679
2,21, 1,21, 0, 9,50.00,60.00,Sunday
250,24.805928409046807
251,8613335.86347289
336,0.0
385,24.87
386,25.42
387,-0.3373620023331805
388,0.0
425,0.0
450,0.0
451,0.0
452,1.165958521393221
453,0.0
490,0.0
515,0.0
516,0.0
542,0.0
592,4987886.410218769
632,3539096.323003435
686,1.0
687,1.0
688,2.0
2,21, 1,21, 0,10, 0.00,10.00,Sunday
250,23.72410718963351
251,6650819.91205553
336,0.0
385,23.536666666666665
386,25.42
387,-0.2650941585215039
388,0.0
425,0.0
450,0.0
451,0.0
452,1.6289475973261778
453,0.0
490,0.0
515,0.0
516,0.0
542,0.0
592,2834110.904795409
632,3735851.4221310182
686,0.5893867010213779
687,0.5
688,1.1666666666666667
2,21, 1,21, 0,10,10.00,20.00,Sunday
250,24.172430643090998
251,6430666.042783223
336,0.0
385,24.203333333333333
386,25.42
387,-0.178712320021696
388,0.0
425,0.0
450,0.0
451,0.0
452,2.1372275271112717
453,0.0
490,0.0
515,0.0
516,0.0
542,0.0
592,3759531.4261755417
632,2586220.279056759
686,0.7738287038631596
687,0.6666666666666667
688,1.6666666666666667
2,21, 1,21, 0,10,20.00,30.00,Sunday
250,24.204609906679636
251,7723193.269721717
336,0.0
385,24.203333333333326
386,25.419999999999995
387,-0.04406556644721374
388,0.0
425,0.0
450,0.0
451,0.0
452,2.825572319247757
453,0.0
490,0.0
515,0.0
516,0.0
542,0.0
592,3533441.1864494765
632,3991727.5576109355
686,0.8194063732635254
687,0.3737400719119288
688,1.666666666666666
2,21, 1,21, 0,10,30.00,40.00,Sunday
250,24.204888693512487
251,7639466.638117202
336,0.0
385,24.203333333333344
386,25.420000000000012
387,0.08669633934384705
388,0.0
425,0.0
450,0.0
451,0.0
452,3.4548458484090836
453,0.0
490,0.0
515,0.0
516,0.0
542,0.0
592,3526992.857829191
632,3914944.243927567
686,0.8135779360229249
687,0.368088074859545
688,1.666666666666667
2,21, 1,21, 0,10,40.00,50.00,Sunday
250,24.203065253073337
251,7534803.20705069
336,0.0
385,24.20333333333335
386,25.42000000000002
387,0.22540559808842558
388,0.0
425,0.0
450,0.0
451,0.0
452,4.1302744898516295
453,0.0
490,0.0
515,0.0
516,0.0
542,0.0
592,3472861.351807104
632,3874445.77720897
686,0.8048016254621824
687,0.3372714581652643
688,1.6666666666666679
2,21, 1,21, 0,10,50.00,60.00,Sunday
250,24.201225500581593
251,7427562.154678734
336,0.0
385,24.20333333333335
386,25.42000000000002
387,0.38191923289596397
388,0.0
425,0.0
450,0.0
451,0.0
452,4.886311361705598
453,0.0
490,0.0
515,0.0
516,0.0
542,0.0
592,3416152.699642593
632,3834982.239191286
686,0.785133557688878
687,0.3333333333333336
688,1.3333333333333344
2,21, 1,21, 0,11, 0.00,10.00,Sunday
250,24.199487000020977
251,7321374.542561884
336,0.0
385,24.203333333333333
386,25.42
387,0.5516534071989898
388,0.0
425,0.0
450,0.0
451,0.0
452,5.706504184323974
453,0.0
490,0.0
515,0.0
516,0.0
542,0.0
592,3354382.8020459893
632,3801072.9027724476
686,0.7653910650103751
687,0.3333333333333333
688,1.3333333333333335
2,21, 1,21, 0,11,10.00,20.00,Sunday
250,24.197714554850236
251,7212068.85788757
336,0.0
385,24.203333333333333
386,25.42
387,0.7323164244542195
388,0.0
425,0.0
450,0.0
451,0.0
452,6.572022559800439
453,0.0
490,0.0
515,0.0
516,0.0
542,0.0
592,3291063.086556321
632,3765758.726251154
686,0.745376968128718
687,0.33333333333333337
688,1.3333333333333333
2,21, 1,21, 0,11,20.00,30.00,Sunday
250,23.926860398455943
251,6386559.829536827
336,0.0
385,23.87
386,25.42
387,0.8814502085143056
388,0.0
425,0.0
450,0.0
451,0.0
452,7.344566125516762
453,0.0
490,0.0
515,0.0
516,0.0
542,0.0
592,3932998.2178396117
632,2315500.6556354803
686,0.75
687,0.75
688,1.5
2,21, 1,21, 0,11,30.00,40.00,Sunday
250,23.87538927519829
251,6827822.005373955
336,0.0
385,23.87
386,25.42
387,1.1135415291469644
388,0.0
425,0.0
450,0.0
451,0.0
452,8.367757811534364
453,0.0
490,0.0
515,0.0
516,0.0
542,0.0
592,3351875.89088721
632,3412454.4750267407
686,0.6901959430390141
687,0.5
688,1.25
2,21, 1,21, 0,11,40.00,50.00,Sunday
250,23.87817564097433
251,6662697.323147192
336,0.0
385,23.87
386,25.42
387,1.3415901203855767
388,0.0
425,0.0
450,0.0
451,0.0
452,9.23953942704332
453,0.0
490,0.0
515,0.0
516,0.0
542,0.0
592,3364191.649720538
632,3239739.9321211483
686,0.6903369767212844
687,0.5
688,1.25
2,21, 1,21, 0,11,50.00,60.00,Sunday
250,24.164103795996603
251,5416011.5407914985
336,0.0
385,24.20333333333335
386,25.42000000000002
387,1.5187751737978958
388,0.0
425,0.0
450,0.0
451,0.0
452,9.887705118672908
453,0.0
490,0.0
515,0.0
516,0.0
542,0.0
592,3684870.1981591815
632,1689538.307298904
686,0.7065695673554632
687,0.6666666666666672
688,1.6666666666666679
2,21, 1,21, 0,12, 0.00,10.00,Sunday
250,24.190078804895315
251,6861736.751181075
336,0.0
385,24.203333333333333
386,25.42
387,1.7615690292235695
388,0.0
425,0.0
450,0.0
451,0.0
452,10.602739073755988
453,0.0
490,0.0
515,0.0
516,0.0
542,0.0
592,3058888.738782517
632,3688731.1774445144
686,0.6711440096665401
687,0.3333333333333333
688,1.3333333333333335
2,21, 1,21, 0,12,10.00,20.00,Sunday
250,24.801794983686005
251,7463611.247570379
336,0.0
385,24.87
386,25.42
387,1.9458891894677997
388,0.0
425,0.0
450,0.0
451,0.0
452,11.06791784265379
453,0.0
490,0.0
515,0.0
516,0.0
542,0.0
592,5313791.733726392
632,2068317.3810152127
686,1.0
687,1.0
688,2.0
2,21, 1,21, 0,12,20.00,30.00,Sunday
250,23.780199700741914
251,5567656.94603749
336,0.0
385,23.536666666666687
386,25.420000000000023
387,2.1004144107167537
388,0.0
425,0.0
450,0.0
451,0.0
452,11.384654159171337
453,0.0
490,0.0
515,0.0
516,0.0
542,0.0
592,2711999.0234798375
632,2763246.478953127
686,0.5339772618278524
687,0.4469305583126133
688,1.1666666666666674
2,21, 1,21, 0,12,30.00,40.00,Sunday
250,24.758834610591
251,7510885.522433579
336,0.0
385,24.87
386,25.42
387,2.2627528896372167
388,0.0
425,0.0
450,0.0
451,0.0
452,11.635955691255404
453,0.0
490,0.0
515,0.0
516,0.0
542,0.0
592,5328545.279521176
632,2207496.0752407666
686,1.0
687,1.0
688,2.0
2,21, 1,21, 0,12,40.00,50.00,Sunday
250,24.862193155295294
251,6711771.407471994
336,0.0
385,24.87
386,25.42
387,2.4406758700925075
388,0.0
425,0.0
450,0.0
451,0.0
452,11.778863706813707
453,0.0
490,0.0
515,0.0
516,0.0
542,0.0
592,5335923.472596241
632,1130452.0819876892
686,1.0
687,1.0
688,2.0
2,21, 1,21, 0,12,50.00,60.00,Sunday
250,23.793854748602424
251,5351653.231157929
336,0.0
385,23.536666666666633
386,25.419999999999966
387,2.5547244807840532
388,0.0
425,0.0
450,0.0
451,0.0
452,11.74358443057531
453,0.0
490,0.0
515,0.0
516,0.0
542,0.0
592,2593679.807404912
632,2668383.5273449984
686,0.5224514705852368
687,0.3899950488648757
688,1.166666666666665
2,21, 1,21, 0,13, 0.00,10.00,Sunday
250,24.758355636314484
251,7272245.729193913
336,0.0
385,24.87
386,25.42
387,2.6600647339891696
388,0.0
425,0.0
450,0.0
451,0.0
452,11.651402267664416
453,0.0
490,0.0
515,0.0
516,0.0
542,0.0
592,5339548.690346627
632,1954009.0114261203
686,1.0
687,1.0
688,2.0
2,21, 1,21, 0,13,10.00,20.00,Sunday
250,24.86199869172403
251,6480815.515542745
336,0.0
385,24.87
386,25.42
387,2.771013467330863
388,0.0
425,0.0
450,0.0
451,0.0
452,11.541419698880944
453,0.0
490,0.0
515,0.0
516,0.0
542,0.0
592,5335793.470214101
632,899820.4225814982
686,1.0
687,1.0
688,2.0
2,21, 1,21, 0,13,20.00,30.00,Sunday
250,23.806311486915718
251,5096997.893566653
336,0.0
385,23.536666666666687
386,25.420000000000023
387,2.846787021529648
388,0.0
425,0.0
450,0.0
451,0.0
452,11.488651508248667
453,0.0
490,0.0
515,0.0
516,0.0
542,0.0
592,2449132.185544584
632,2563261.2275248403
686,0.5082773168826984
687,0.3333333333333336
688,1.0000000000000009
2,21, 1,21, 0,13,30.00,40.00,Sunday
250,24.757591698933958
251,6971136.716589561
336,0.0
385,24.87
386,25.42
387,2.922800255045547
388,0.0
425,0.0
450,0.0
451,0.0
452,11.455550632725007
453,0.0
490,0.0
515,0.0
516,0.0
542,0.0
592,5328279.13391814
632,1660622.5944405023
686,1.0
687,1.0
688,2.0
2,21, 1,21, 0,13,40.00,50.00,Sunday
250,24.861774595762103
251,6249535.100283528
336,0.0
385,24.87
386,25.42
387,3.010368267470554
388,0.0
425,0.0
450,0.0
451,0.0
452,11.434147996764132
453,0.0
490,0.0
515,0.0
516,0.0
542,0.0
592,5324520.016407275
632,680063.7323134921
686,1.0
687,1.0
688,2.0
2,21, 1,21, 0,13,50.00,60.00,Sunday
250,23.818135932738283
251,4877038.482933909
336,0.0
385,23.536666666666633
386,25.419999999999966
387,3.0765156330121695
388,0.0
425,0.0
450,0.0
451,0.0
452,11.423968978128633
453,0.0
490,0.0
515,0.0
516,0.0
542,0.0
592,2328465.8419716
632,2472123.2007638477
686,0.4781176240845213
687,0.33333333333333287
688,0.8333333333333321
2,21, 1,21, 0,14, 0.00,10.00,Sunday
250,24.75878503201559
251,6818642.120546765
336,0.0
385,24.87
386,25.42
387,3.1471484369348985
388,0.0
425,0.0
450,0.0
451,0.0
452,11.383473398348071
453,0.0
490,0.0
515,0.0
516,0.0
542,0.0
592,5275182.225179153
632,1559484.8358881627
686,1.0
687,0.9614512090665699
688,2.0
2,21, 1,21, 0,14,10.00,20.00,Sunday
250,24.861896349257048
251,6114873.615200798
336,0.0
385,24.87
386,25.42
387,3.229595021066382
388,0.0
425,0.0
450,0.0
451,0.0
452,11.271545126676472
453,0.0
490,0.0
515,0.0
516,0.0
542,0.0
592,5344642.047510483
632,524997.6969426861
686,1.0
687,1.0
688,2.0
2,21, 1,21, 0,14,20.00,30.00,Sunday
250,23.830310036702574
251,4768084.366355317
336,0.0
385,23.536666666666687
386,25.420000000000023
387,3.288340451497215
388,0.0
425,0.0
450,0.0
451,0.0
452,11.106120399273685
453,0.0
490,0.0
515,0.0
516,0.0
542,0.0
592,2241383.14098446
632,2457087.559862436
686,0.46751562676311154
687,0.29164301135436166
688,0.833333333333334
2,21, 1,21, 0,14,30.00,40.00,Sunday
250,24.759789620692253
251,6723679.855848913
336,0.0
385,24.87
386,25.42
387,3.3394167117232225
388,0.0
425,0.0
450,0.0
451,0.0
452,10.849258734389522
453,0.0
490,0.0
515,0.0
516,0.0
542,0.0
592,5255690.524748007
632,1482097.3183886963
686,1.0
687,0.9249370866450861
688,2.0
2,21, 1,21, 0,14,40.00,50.00,Sunday
250,23.917039806257556
251,4337658.690389279
336,0.0
385,23.87
386,25.42
387,3.3891151752359807
388,0.0
425,0.0
450,0.0
451,0.0