Program Version,EnergyPlus, Version 24.2.0-94a887817b, YMD=2025.02.12 11:47
1,5,Environment Title[],Latitude[deg],Longitude[deg],Time Zone[],Elevation[m]
2,8,Day of Simulation[],Month[],Day of Month[],DST Indicator[1=yes 0=no],Hour[],StartMinute[],EndMinute[],DayType
3,5,Cumulative Day of Simulation[],Month[],Day of Month[],DST Indicator[1=yes 0=no],DayType  ! When Daily Meters Requested
4,2,Cumulative Days of Simulation[],Month[]  ! When Monthly Meters Requested
5,1,Cumulative Days of Simulation[] ! When Run Period Meters Requested
6,1,Calendar Year of Simulation[] ! When Annual Meters Requested
11,9,Electricity:Facility [J] !Monthly [Value,Min,Day,Hour,Minute,Max,Day,Hour,Minute]
23,9,Electricity:Building [J] !Monthly [Value,Min,Day,Hour,Minute,Max,Day,Hour,Minute]
59,9,InteriorLights:Electricity [J] !Monthly [Value,Min,Day,Hour,Minute,Max,Day,Hour,Minute]
521,9,Electricity:HVAC [J] !Monthly [Value,Min,Day,Hour,Minute,Max,Day,Hour,Minute]
637,9,NaturalGas:Facility [J] !Monthly [Value,Min,Day,Hour,Minute,Max,Day,Hour,Minute]
649,9,NaturalGas:HVAC [J] !Monthly [Value,Min,Day,Hour,Minute,Max,Day,Hour,Minute]
13,11,Electricity:Facility [J] !RunPeriod [Value,Min,Month,Day,Hour,Minute,Max,Month,Day,Hour,Minute]
25,11,Electricity:Building [J] !RunPeriod [Value,Min,Month,Day,Hour,Minute,Max,Month,Day,Hour,Minute]
61,11,InteriorLights:Electricity [J] !RunPeriod [Value,Min,Month,Day,Hour,Minute,Max,Month,Day,Hour,Minute]
523,11,Electricity:HVAC [J] !RunPeriod [Value,Min,Month,Day,Hour,Minute,Max,Month,Day,Hour,Minute]
639,11,NaturalGas:Facility [J] !RunPeriod [Value,Min,Month,Day,Hour,Minute,Max,Month,Day,Hour,Minute]
651,11,NaturalGas:HVAC [J] !RunPeriod [Value,Min,Month,Day,Hour,Minute,Max,Month,Day,Hour,Minute]
End of Data Dictionary
1,RUN PERIOD 1,  41.98, -87.92,  -6.00, 201.00
4,31, 1
11,8835513064.170385,241895.74240995702,11,19,20,3494013.709687441,15,10,60
23,1864986469.5756032,104704.55362514377,11,20,60,1028777.4054145028,31,14,50
59,935188429.9190378,28917.391153960423, 1, 1,10,578347.8230792084, 1, 8,10
521,6970526594.594817,0.0,11,13,50,2571616.968271935,27,20,20
637,15952844487.020086,0.0, 1,10,20,19728017.8184432,31, 7,30
649,15952844487.020086,0.0, 1,10,20,19728017.8184432,31, 7,30
4,59, 2
11,7327320328.011802,99999999999999.0,11,19,20,3502609.4882039647,26,10,30
23,1645118297.5285559,99999999999999.0,11,20,60,-99999999999999.0,31,14,50
59,817552482.7047391,99999999999999.0, 1, 1,10,-99999999999999.0, 1, 8,10
521,5682202030.483263,99999999999999.0,11,13,50,-99999999999999.0,27,20,20
637,12947913447.66552,99999999999999.0, 1,10,20,20720222.863344364, 3, 8,20
649,12947913447.66552,99999999999999.0, 1,10,20,20720222.863344364, 3, 8,20
4,90, 3
11,7206559099.704237,91802.416558016,31,16,60,-99999999999999.0,26,10,30
23,1734838090.7007964,91802.416558016,31,16,60,1038708.9108960329,18, 9,60
59,865092673.7618406,99999999999999.0, 1, 1,10,-99999999999999.0, 1, 8,10
521,5471721009.003433,99999999999999.0,11,13,50,-99999999999999.0,27,20,20
637,9564325384.97127,99999999999999.0, 1,10,20,-99999999999999.0, 3, 8,20
649,9564325384.97127,99999999999999.0, 1,10,20,-99999999999999.0, 3, 8,20
4,120, 4
11,4251803760.9226756,28917.391153960423,12,19,10,-99999999999999.0,26,10,30
23,1669304296.88023,28917.391153960423, 5, 3,50,-99999999999999.0,18, 9,60
59,895976447.5142686,99999999999999.0, 1, 1,10,-99999999999999.0, 1, 8,10
521,2582499464.0424395,99999999999999.0,11,13,50,-99999999999999.0,27,20,20
637,3832967789.2271247,99999999999999.0, 1,10,20,-99999999999999.0, 3, 8,20
649,3832967789.2271247,99999999999999.0, 1,10,20,-99999999999999.0, 3, 8,20
4,151, 5
11,3133442728.359408,99999999999999.0,12,19,10,-99999999999999.0,26,10,30
23,1651771529.5467923,99999999999999.0, 5, 3,50,-99999999999999.0,18, 9,60
59,935188429.9190376,99999999999999.0, 1, 1,10,-99999999999999.0, 1, 8,10
521,1481671198.812599,99999999999999.0,11,13,50,-99999999999999.0,27,20,20
637,882916785.1358336,99999999999999.0, 1,10,20,-99999999999999.0, 3, 8,20
649,882916785.1358336,99999999999999.0, 1,10,20,-99999999999999.0, 3, 8,20
4,181, 6
11,2956269319.27053,99999999999999.0,12,19,10,-99999999999999.0,26,10,30
23,1397532590.2090397,99999999999999.0, 5, 3,50,-99999999999999.0,18, 9,60
59,825880691.357071,99999999999999.0, 1, 1,10,-99999999999999.0, 1, 8,10
521,1558736729.0614939,99999999999999.0,11,13,50,-99999999999999.0,27,20,20
637,38542266.19167035,99999999999999.0, 1,10,20,-99999999999999.0, 3, 8,20
649,38542266.19167035,99999999999999.0, 1,10,20,-99999999999999.0, 3, 8,20
4,212, 7
11,3796024106.7521424,99999999999999.0,12,19,10,-99999999999999.0,26,10,30
23,1500523323.6454427,99999999999999.0, 5, 3,50,-99999999999999.0,18, 9,60
59,935188429.9190378,99999999999999.0, 1, 1,10,-99999999999999.0, 1, 8,10
521,2295500783.106716,99999999999999.0,11,13,50,-99999999999999.0,27,20,20
637,0.0,99999999999999.0, 1,10,20,-99999999999999.0, 3, 8,20
649,0.0,99999999999999.0, 1,10,20,-99999999999999.0, 3, 8,20
4,243, 8
11,3336986245.4788623,99999999999999.0,12,19,10,-99999999999999.0,26,10,30
23,1478017925.695138,99999999999999.0, 5, 3,50,-99999999999999.0,18, 9,60
59,900140551.8404346,99999999999999.0, 1, 1,10,-99999999999999.0, 1, 8,10
521,1858968319.7837396,99999999999999.0,11,13,50,-99999999999999.0,27,20,20
637,10874272.392522626,99999999999999.0, 1,10,20,-99999999999999.0, 3, 8,20
649,10874272.392522626,99999999999999.0, 1,10,20,-99999999999999.0, 3, 8,20
4,273, 9
11,2669695033.441479,99999999999999.0,12,19,10,-99999999999999.0,26,10,30
23,1473262578.2791631,99999999999999.0, 5, 3,50,-99999999999999.0,18, 9,60
59,860928569.4356699,99999999999999.0, 1, 1,10,-99999999999999.0, 1, 8,10
521,1196432455.1623113,99999999999999.0,11,13,50,-99999999999999.0,27,20,20
637,59731911.51600457,99999999999999.0, 1,10,20,-99999999999999.0, 3, 8,20
649,59731911.51600457,99999999999999.0, 1,10,20,-99999999999999.0, 3, 8,20
4,304,10
11,3409075561.65943,99999999999999.0,12,19,10,-99999999999999.0,26,10,30
23,1698216534.2035847,99999999999999.0, 5, 3,50,-99999999999999.0,18, 9,60
59,935188429.9190378,99999999999999.0, 1, 1,10,-99999999999999.0, 1, 8,10
521,1710859027.4558501,99999999999999.0,11,13,50,-99999999999999.0,27,20,20
637,1968451375.464509,99999999999999.0, 1,10,20,-99999999999999.0, 3, 8,20
649,1968451375.464509,99999999999999.0, 1,10,20,-99999999999999.0, 3, 8,20
4,334,11
11,5960488527.575659,99999999999999.0,12,19,10,-99999999999999.0,26,10,30
23,1671908129.345283,99999999999999.0, 5, 3,50,-99999999999999.0,18, 9,60
59,860928569.4356744,99999999999999.0, 1, 1,10,-99999999999999.0, 1, 8,10
521,4288580398.230376,99999999999999.0,11,13,50,-99999999999999.0,27,20,20
637,8083084856.025899,99999999999999.0, 1,10,20,-99999999999999.0, 3, 8,20
649,8083084856.025899,99999999999999.0, 1,10,20,-99999999999999.0, 3, 8,20
4,365,12
11,7527585357.567647,99999999999999.0,12,19,10,-99999999999999.0,26,10,30
23,1763262869.4492605,99999999999999.0, 5, 3,50,-99999999999999.0,18, 9,60
59,900140551.8404391,99999999999999.0, 1, 1,10,-99999999999999.0, 1, 8,10
521,5764322488.11837,99999999999999.0,11,13,50,-99999999999999.0,27,20,20
637,9864968444.232134,99999999999999.0, 1,10,20,-99999999999999.0, 3, 8,20
649,9864968444.232134,99999999999999.0, 1,10,20,-99999999999999.0, 3, 8,20
5,365
13,60410763132.91438,28917.391153960423, 4,12,19,10,3502609.4882039647, 2,26,10,30
25,19548742635.059254,28917.391153960423, 4, 5, 3,50,1038708.9108960329, 3,18, 9,60
61,10667394257.567978,28917.391153960423, 1, 1, 1,10,578347.8230792084, 1, 1, 8,10
523,40862020497.855576,0.0, 1,11,13,50,2571616.968271935, 1,27,20,20
639,63206621019.842514,0.0, 1, 1,10,20,20720222.863344364, 2, 3, 8,20
651,63206621019.842514,0.0, 1, 1,10,20,20720222.863344364, 2, 3, 8,20
1,RUN PERIOD 2,  41.98, -87.92,  -6.00, 201.00
4,1, 7
11,113328888.49387102,99999999999999.0,12,19,10,-99999999999999.0,26,10,30
23,63049322.62624901,99999999999999.0, 5, 3,50,-99999999999999.0,18, 9,60
59,39211982.4047704,99999999999999.0, 1, 1,10,-99999999999999.0, 1, 8,10
521,50279565.86762193,99999999999999.0,11,13,50,-99999999999999.0,27,20,20
637,0.0,99999999999999.0, 1,10,20,-99999999999999.0, 3, 8,20
649,0.0,99999999999999.0, 1,10,20,-99999999999999.0, 3, 8,20
5,1
13,113328888.49387102,99999999999999.0, 4,12,19,10,-99999999999999.0, 2,26,10,30
25,63049322.62624901,99999999999999.0, 4, 5, 3,50,-99999999999999.0, 3,18, 9,60
61,39211982.4047704,99999999999999.0, 1, 1, 1,10,-99999999999999.0, 1, 1, 8,10
523,50279565.86762193,99999999999999.0, 1,11,13,50,-99999999999999.0, 1,27,20,20
639,0.0,99999999999999.0, 1, 1,10,20,-99999999999999.0, 2, 3, 8,20
651,0.0,99999999999999.0, 1, 1,10,20,-99999999999999.0, 2, 3, 8,20
End of Data
 Number of Records Written=          90
