Program Version,EnergyPlus, Version 24.2.0-94a887817b, YMD=2025.02.04 15:53
1,5,Environment Title[],Latitude[deg],Longitude[deg],Time Zone[],Elevation[m]
2,8,Day of Simulation[],Month[],Day of Month[],DST Indicator[1=yes 0=no],Hour[],StartMinute[],EndMinute[],DayType
3,5,Cumulative Day of Simulation[],Month[],Day of Month[],DST Indicator[1=yes 0=no],DayType  ! When Daily Report Variables Requested
4,2,Cumulative Days of Simulation[],Month[]  ! When Monthly Report Variables Requested
5,1,Cumulative Days of Simulation[] ! When Run Period Report Variables Requested
6,1,Calendar Year of Simulation[] ! When Annual Report Variables Requested
250,1,LIVING ZONE,Zone Air Temperature [C] !TimeStep,REPORTSCH
251,1,LIVING ZONE,Zone Air System Sensible Heating Energy [J] !TimeStep,REPORTSCH
336,1,LIVING ZONE,Zone Air System Sensible Cooling Energy [J] !TimeStep,REPORTSCH
385,1,LIVING ZONE,Zone Thermostat Heating Setpoint Temperature [C] !TimeStep,REPORTSCH
386,1,LIVING ZONE,Zone Thermostat Cooling Setpoint Temperature [C] !TimeStep,REPORTSCH
387,1,GARAGE ZONE,Zone Air Temperature [C] !TimeStep,REPORTSCH
388,1,GARAGE ZONE,Zone Air System Sensible Heating Energy [J] !TimeStep,REPORTSCH
425,1,GARAGE ZONE,Zone Air System Sensible Cooling Energy [J] !TimeStep,REPORTSCH
450,1,GARAGE ZONE,Zone Thermostat Heating Setpoint Temperature [C] !TimeStep,REPORTSCH
451,1,GARAGE ZONE,Zone Thermostat Cooling Setpoint Temperature [C] !TimeStep,REPORTSCH
452,1,ATTIC ZONE,Zone Air Temperature [C] !TimeStep,REPORTSCH
453,1,ATTIC ZONE,Zone Air System Sensible Heating Energy [J] !TimeStep,REPORTSCH
490,1,ATTIC ZONE,Zone Air System Sensible Cooling Energy [J] !TimeStep,REPORTSCH
515,1,ATTIC ZONE,Zone Thermostat Heating Setpoint Temperature [C] !TimeStep,REPORTSCH
516,1,ATTIC ZONE,Zone Thermostat Cooling Setpoint Temperature [C] !TimeStep,REPORTSCH
542,1,ACDXCOIL 1,Cooling Coil Total Cooling Energy [J] !TimeStep,REPORTSCH
592,1,HEAT PUMP DX HEATING COIL 1,Heating Coil Heating Energy [J] !TimeStep,REPORTSCH
632,1,SUPP HEATING COIL 1,Heating Coil Heating Energy [J] !TimeStep,REPORTSCH
686,1,TWOSPEED HEAT PUMP 1,Unitary System DX Coil Cycling Ratio [] !TimeStep,REPORTSCH
687,1,TWOSPEED HEAT PUMP 1,Unitary System DX Coil Speed Ratio [] !TimeStep,REPORTSCH
688,1,TWOSPEED HEAT PUMP 1,Unitary System DX Coil Speed Level [] !TimeStep,REPORTSCH
End of Data Dictionary
1,RUN PERIOD 1,  41.98, -87.92,  -6.00, 201.00
2,21, 1,21, 0, 1, 0.00,10.00,Monday
250,26.533885036935835
251,0.0
336,6172311.906799308
385,22.92
386,25.23
387,0.8337269168238035
388,0.0
425,0.0
450,0.0
451,0.0
452,-1.5807723381836982
453,0.0
490,0.0
515,0.0
516,0.0
542,7357705.752202102
592,0.0
632,0.0
686,0.8
687,0.8
688,1.6
2,21, 1,21, 0, 1,10.00,20.00,Monday
250,26.19873731881538
251,0.0
336,6560228.069388182
385,22.92
386,24.43
387,0.8062195832742691
388,0.0
425,0.0
450,0.0
451,0.0
452,-1.5693170991236132
453,0.0
490,0.0
515,0.0
516,0.0
542,9742018.26888013
592,0.0
632,0.0
686,1.0
687,1.0
688,2.0
2,21, 1,21, 0, 1,20.00,30.00,Monday
250,27.232891443529404
251,0.0
336,4916867.285755477
385,22.919999999999995
386,24.429999999999993
387,0.782033353574562
388,0.0
425,0.0
450,0.0
451,0.0
452,-1.557306127910519
453,0.0
490,0.0
515,0.0
516,0.0
542,10801940.453041483
592,0.0
632,0.0
686,0.9999999999999996
687,0.9999999999999996
688,1.9999999999999991
2,21, 1,21, 0, 1,30.00,40.00,Monday
250,27.345948516543274
251,0.0
336,3601259.6990649635
385,22.919999999999995
386,24.429999999999993
387,0.7601511178285661
388,0.0
425,0.0
450,0.0
451,0.0
452,-1.5430181314189275
453,0.0
490,0.0
515,0.0
516,0.0
542,10801940.453041483
592,0.0
632,0.0
686,0.9999999999999997
687,0.9999999999999997
688,1.9999999999999993
2,21, 1,21, 0, 1,40.00,50.00,Monday
250,28.37693027481649
251,0.0
336,2919463.7870794972
385,22.92000000000002
386,24.43000000000002
387,0.7417514616255989
388,0.0
425,0.0
450,0.0
451,0.0
452,-1.5265820310173575
453,0.0
490,0.0
515,0.0
516,0.0
542,10801940.453041486
592,0.0
632,0.0
686,1.0000000000000009
687,1.0000000000000009
688,2.0000000000000018
2,21, 1,21, 0, 1,50.00,60.00,Monday
250,28.472641888234303
251,0.0
336,2163234.4752027984
385,22.92
386,24.43
387,0.7225212019017653
388,0.0
425,0.0
450,0.0
451,0.0
452,-1.505600835311624
453,0.0
490,0.0
515,0.0
516,0.0
542,10801940.45304148
592,0.0
632,0.0
686,1.0
687,1.0
688,2.0
2,21, 1,21, 0, 2, 0.00,10.00,Monday
250,28.477752745562594
251,0.0
336,2473899.866219982
385,22.92
386,24.43
387,0.7038191940437063
388,0.0
425,0.0
450,0.0
451,0.0
452,-1.483895449223498
453,0.0
490,0.0
515,0.0
516,0.0
542,10801940.45304148
592,0.0
632,0.0
686,1.0
687,1.0
688,2.0
2,21, 1,21, 0, 2,10.00,20.00,Monday
250,28.599701943520405
251,0.0
336,2538785.183801666
385,22.92
386,24.43
387,0.6873018906821476
388,0.0
425,0.0
450,0.0
451,0.0
452,-1.4662365266571094
453,0.0
490,0.0
515,0.0
516,0.0
542,10801940.453041486
592,0.0
632,0.0
686,1.0
687,1.0
688,2.0
2,21, 1,21, 0, 2,20.00,30.00,Monday
250,28.703211169220953
251,0.0
336,2514776.6032717847
385,22.92
386,24.43
387,0.6723840098006887
388,0.0
425,0.0
450,0.0
451,0.0
452,-1.4540282732675724
453,0.0
490,0.0
515,0.0
516,0.0
542,10801940.453041486
592,0.0
632,0.0
686,1.0
687,1.0
688,2.0
2,21, 1,21, 0, 2,30.00,40.00,Monday
250,28.74669875627174
251,0.0
336,2469574.081499897
385,22.92
386,24.43
387,0.6577920996538931
388,0.0
425,0.0
450,0.0
451,0.0
452,-1.4467317023941308
453,0.0
490,0.0
515,0.0
516,0.0
542,10801940.45304148
592,0.0
632,0.0
686,1.0
687,1.0
688,2.0
2,21, 1,21, 0, 2,40.00,50.00,Monday
250,28.7832424995133
251,0.0
336,2460837.5624482827
385,22.92
386,24.43
387,0.6424130512250091
388,0.0
425,0.0
450,0.0
451,0.0
452,-1.443592841347561
453,0.0
490,0.0
515,0.0
516,0.0
542,10801940.45304148
592,0.0
632,0.0
686,1.0
687,1.0
688,2.0
2,21, 1,21, 0, 2,50.00,60.00,Monday
250,28.832498619606625
251,0.0
336,2463902.563067668
385,22.92
386,24.43
387,0.6259176961954362
388,0.0
425,0.0
450,0.0
451,0.0
452,-1.4441911375360716
453,0.0
490,0.0
515,0.0
516,0.0
542,10801940.45304148
592,0.0
632,0.0
686,1.0
687,1.0
688,2.0
2,21, 1,21, 0, 3, 0.00,10.00,Monday
250,28.872743085578072
251,0.0
336,2453382.7247285265
385,22.92
386,24.43
387,0.6089315061500697
388,0.0
425,0.0
450,0.0
451,0.0
452,-1.4458169358325856
453,0.0
490,0.0
515,0.0
516,0.0
542,10801940.453041472
592,0.0
632,0.0
686,1.0
687,1.0
688,2.0
2,21, 1,21, 0, 3,10.00,20.00,Monday
250,28.90236057245759
251,0.0
336,2442964.6250638166
385,22.92
386,24.43
387,0.592129019920359
388,0.0
425,0.0
450,0.0
451,0.0
452,-1.4440961981977127
453,0.0
490,0.0
515,0.0
516,0.0
542,10801940.45304148
592,0.0
632,0.0
686,1.0
687,1.0
688,2.0
2,21, 1,21, 0, 3,20.00,30.00,Monday
250,28.930800499654413
251,0.0
336,2439028.000324811
385,22.92
386,24.43
387,0.5758188977033969
388,0.0
425,0.0
450,0.0
451,0.0
452,-1.4363449747046433
453,0.0
490,0.0
515,0.0
516,0.0
542,10801940.45304148
592,0.0
632,0.0
686,1.0
687,1.0
688,2.0
2,21, 1,21, 0, 3,30.00,40.00,Monday
250,28.959243567280616
251,0.0
336,2435887.1998252715
385,22.92
386,24.43
387,0.5600773449306511
388,0.0
425,0.0
450,0.0
451,0.0
452,-1.4231374739911726
453,0.0
490,0.0
515,0.0
516,0.0
542,10801940.45304148
592,0.0
632,0.0
686,1.0
687,1.0
688,2.0
2,21, 1,21, 0, 3,40.00,50.00,Monday
250,28.985529277647352
251,0.0
336,2431538.241638401
385,22.92
386,24.43
387,0.5449675433107111
388,0.0
425,0.0
450,0.0
451,0.0
452,-1.406568363597718
453,0.0
490,0.0
515,0.0
516,0.0
542,10801940.45304148
592,0.0
632,0.0
686,1.0
687,1.0
688,2.0
2,21, 1,21, 0, 3,50.00,60.00,Monday
250,29.009460071979376
251,0.0
336,2427319.376855997
385,22.92
386,24.43
387,0.5305616694099601
388,0.0
425,0.0
450,0.0
451,0.0
452,-1.3879497738975823
453,0.0
490,0.0
515,0.0
516,0.0
542,10801940.453041496
592,0.0
632,0.0
686,1.0
687,1.0
688,2.0
2,21, 1,21, 0, 4, 0.00,10.00,Monday
250,28.996661306032316
251,0.0
336,2403846.0104524703
385,22.92
386,24.43
387,0.5143304804658404
388,0.0
425,0.0
450,0.0
451,0.0
452,-1.3691980983930638
453,0.0
490,0.0
515,0.0
516,0.0
542,10801940.453041486
592,0.0
632,0.0
686,1.0
687,1.0
688,2.0
2,21, 1,21, 0, 4,10.00,20.00,Monday
250,28.972387194307633
251,0.0
336,2398886.1952288128
385,22.92
386,24.43
387,0.4945339141853571
388,0.0
425,0.0
450,0.0
451,0.0
452,-1.353027693250998
453,0.0
490,0.0
515,0.0
516,0.0
542,10801940.453041496
592,0.0
632,0.0
686,1.0
687,1.0
688,2.0
2,21, 1,21, 0, 4,20.00,30.00,Monday
250,28.956046125207305
251,0.0
336,2406082.317515241
385,22.92
386,24.43
387,0.4715803322322232
388,0.0
425,0.0
450,0.0
451,0.0
452,-1.3417567550243372
453,0.0
490,0.0
515,0.0
516,0.0
542,10801940.45304148
592,0.0
632,0.0
686,1.0
687,1.0
688,2.0
2,21, 1,21, 0, 4,30.00,40.00,Monday
250,28.941507065676955
251,0.0
336,2408965.173800892
385,22.92
386,24.43
387,0.4466091626514821
388,0.0
425,0.0
450,0.0
451,0.0
452,-1.3366209451696573
453,0.0
490,0.0
515,0.0
516,0.0
542,10801940.453041486
592,0.0
632,0.0
686,1.0
687,1.0
688,2.0
2,21, 1,21, 0, 4,40.00,50.00,Monday
250,28.922348421026943
251,0.0
336,2408048.146952207
385,22.92
386,24.43
387,0.42031982583394994
388,0.0
425,0.0
450,0.0
451,0.0
452,-1.3379817987840097
453,0.0
490,0.0
515,0.0
516,0.0
542,10801940.453041486
592,0.0
632,0.0
686,1.0
687,1.0
688,2.0
2,21, 1,21, 0, 4,50.00,60.00,Monday
250,28.89981732874539
251,0.0
336,2408342.4923705966
385,22.92
386,24.43
387,0.39248774120182117
388,0.0
425,0.0
450,0.0
451,0.0
452,-1.3440588843150842
453,0.0
490,0.0
515,0.0
516,0.0
542,10801940.453041472
592,0.0
632,0.0
686,1.0
687,1.0
688,2.0
2,21, 1,21, 0, 5, 0.00,10.00,Monday
250,28.937223813664772
251,0.0
336,2444981.434725482
385,22.92
386,24.43
387,0.36850925901838516
388,0.0
425,0.0
450,0.0
451,0.0
452,-1.3499818149356153
453,0.0
490,0.0
515,0.0
516,0.0
542,10801940.453041486
592,0.0
632,0.0
686,1.0
687,1.0
688,2.0
2,21, 1,21, 0, 5,10.00,20.00,Monday
250,28.99166012351304
251,0.0
336,2450333.3274777327
385,22.92
386,24.43
387,0.35172044959338444
388,0.0
425,0.0
450,0.0
451,0.0
452,-1.349767026377153
453,0.0
490,0.0
515,0.0
516,0.0
542,10801940.453041472
592,0.0
632,0.0
686,1.0
687,1.0
688,2.0
2,21, 1,21, 0, 5,20.00,30.00,Monday
250,29.02854214844502
251,0.0
336,2434414.5902498057
385,22.92
386,24.43
387,0.34089513202945665
388,0.0
425,0.0
450,0.0
451,0.0
452,-1.3395764453713828
453,0.0
490,0.0
515,0.0
516,0.0
542,10801940.45304148
592,0.0
632,0.0
686,1.0
687,1.0
688,2.0
2,21, 1,21, 0, 5,30.00,40.00,Monday
250,29.058623858845834
251,0.0
336,2426472.0184278907
385,22.92
386,24.43
387,0.33358289255450957
388,0.0
425,0.0
450,0.0
451,0.0
452,-1.3193530420123316
453,0.0
490,0.0
515,0.0
516,0.0
542,10801940.453041486
592,0.0
632,0.0
686,1.0
687,1.0
688,2.0
2,21, 1,21, 0, 5,40.00,50.00,Monday
250,29.09396983340927
251,0.0
336,2426051.8351026145
385,22.92
386,24.43
387,0.32850999222508537
388,0.0
425,0.0
450,0.0
451,0.0
452,-1.291029365162629
453,0.0
490,0.0
515,0.0
516,0.0
542,10801940.453041486
592,0.0
632,0.0
686,1.0
687,1.0
688,2.0
2,21, 1,21, 0, 5,50.00,60.00,Monday
250,29.13123097127349
251,0.0
336,2423179.26123989
385,22.92
386,24.43
387,0.32504386525439577
388,0.0
425,0.0
450,0.0
451,0.0
452,-1.256977212779521
453,0.0
490,0.0
515,0.0
516,0.0
542,10801940.453041486
592,0.0
632,0.0
686,1.0
687,1.0
688,2.0
2,21, 1,21, 0, 6, 0.00,10.00,Monday
250,29.12113452166801
251,0.0
336,2391987.066651815
385,22.92
386,24.43
387,0.31861189915645016
388,0.0
425,0.0
450,0.0
451,0.0
452,-1.2246723940863906
453,0.0
490,0.0
515,0.0
516,0.0
542,10801940.453041472
592,0.0
632,0.0
686,1.0
687,1.0
688,2.0
2,21, 1,21, 0, 6,10.00,20.00,Monday
250,29.096195641937733
251,0.0
336,2384831.7461109734
385,22.92
386,24.43
387,0.30619205577313663
388,0.0
425,0.0
450,0.0
451,0.0
452,-1.2036720071517502
453,0.0
490,0.0
515,0.0
516,0.0
542,10801940.45304148
592,0.0
632,0.0
686,1.0
687,1.0
688,2.0
2,21, 1,21, 0, 6,20.00,30.00,Monday
250,29.083469172544717
251,0.0
336,2394489.3692267407
385,22.92
386,24.43
387,0.2883870252731724
388,0.0
425,0.0
450,0.0
451,0.0
452,-1.1983971972611902
453,0.0
490,0.0
515,0.0
516,0.0
542,10801940.453041486
592,0.0
632,0.0
686,1.0
687,1.0
688,2.0
2,21, 1,21, 0, 6,30.00,40.00,Monday
250,29.07496533786581
251,0.0
336,2398324.717327948
385,22.92
386,24.43
387,0.2670410815721801
388,0.0
425,0.0
450,0.0
451,0.0
452,-1.2074841732874835
453,0.0
490,0.0
515,0.0
516,0.0
542,10801940.453041486
592,0.0
632,0.0
686,1.0
687,1.0
688,2.0
2,21, 1,21, 0, 6,40.00,50.00,Monday
250,29.061305091330933
251,0.0
336,2396433.376421481
385,22.92
386,24.43
387,0.24335641085977167
388,0.0
425,0.0
450,0.0
451,0.0
452,-1.2275380931762896
453,0.0
490,0.0
515,0.0
516,0.0
542,10801940.45304148
592,0.0
632,0.0
686,1.0
687,1.0
688,2.0
2,21, 1,21, 0, 6,50.00,60.00,Monday
250,29.044981579019762
251,0.0
336,2396508.0360022024
385,22.92
386,24.43
387,0.21754516287995004
388,0.0
425,0.0
450,0.0
451,0.0
452,-1.2560985928245294
453,0.0
490,0.0
515,0.0
516,0.0
542,10801940.45304148
592,0.0
632,0.0
686,1.0
687,1.0
688,2.0
2,21, 1,21, 0, 7, 0.00,10.00,Monday
250,25.052120209345063
251,2551375.006894713
336,644091.9862465939
385,23.320000000000004
386,25.430000000000003
387,0.19214237323804714
388,0.0
425,0.0
450,0.0
451,0.0
452,-1.2977815266051353
453,0.0
490,0.0
515,0.0
516,0.0
542,3665138.305802702
592,746957.3932882175
632,1859086.876979011
686,0.533765191013653
687,0.4
688,1.0
2,21, 1,21, 0, 7,10.00,20.00,Monday
250,24.20228960104114
251,2877993.8248462193
336,0.0
385,23.58666666666667
386,26.430000000000003
387,0.15669849047150058
388,0.0
425,0.0
450,0.0
451,0.0
452,-1.3756563063529887
453,0.0
490,0.0
515,0.0
516,0.0
542,0.0
592,1173936.2210104114
632,1786087.363301409
686,0.27898786799822384
687,0.1666666666666666
688,0.4999999999999998
2,21, 1,21, 0, 7,20.00,30.00,Monday
250,23.983651328213753
251,3492601.1374477013
336,0.0
385,23.92
386,26.43
387,0.10895831023304661
388,0.0
425,0.0
450,0.0
451,0.0
452,-1.4980241158782996
453,0.0
490,0.0
515,0.0
516,0.0
542,0.0
592,1866797.1843650984
632,1725762.6378104696
686,0.4473273746165742
687,0.25
688,1.0
2,21, 1,21, 0, 7,30.00,40.00,Monday
250,23.496579137606794
251,4386397.3488643905
336,0.0
385,23.586666666666687
386,26.43000000000002
387,0.04912274827237935
388,0.0
425,0.0
450,0.0
451,0.0
452,-1.66396831326611
453,0.0
490,0.0
515,0.0
516,0.0
542,0.0
592,3114507.9926092867
632,1418689.4425819109
686,0.6666666666666672
687,0.6104636677002444
688,1.3333333333333344
2,21, 1,21, 0, 7,40.00,50.00,Monday
250,24.277109331570628
251,5515797.412744687
336,0.0
385,24.120000000000005
386,26.430000000000003
387,-0.019447844186575622
388,0.0
425,0.0
450,0.0
451,0.0
452,-1.864441026328508
453,0.0
490,0.0
515,0.0
516,0.0
542,0.0
592,2195238.766236171
632,3521244.4634956727
686,0.47959882337108056
687,0.4
688,1.2000000000000002
2,21, 1,21, 0, 7,50.00,60.00,Monday
250,24.85419330430173
251,4545247.798998266
336,0.0
385,24.92
386,26.43
387,-0.10240317980933644
388,0.0
425,0.0
450,0.0
451,0.0
452,-2.1076457781597355
453,0.0
490,0.0
515,0.0
516,0.0
542,0.0
592,4352365.603572752
632,118642.93847104709
686,1.0
687,0.6564350889163924
688,2.0
2,21, 1,21, 0, 8, 0.00,10.00,Monday
250,25.560179154708226
251,0.0
336,2623483.8129052217
385,22.92
386,25.43
387,-0.1801623778697093
388,0.0
425,0.0
450,0.0
451,0.0
452,-2.343306547544697
453,0.0
490,0.0
515,0.0
516,0.0
542,5321117.690691279
592,0.0
632,0.0
686,0.5246056402978811
687,0.46275848903265343
688,1.1666666666666665
2,21, 1,21, 0, 8,10.00,20.00,Monday
250,24.833328014132956
251,0.0
336,3124048.1124695856
385,22.92
386,24.93
387,-0.247055874349832
388,0.0
425,0.0
450,0.0
451,0.0
452,-2.4942366948520758
453,0.0
490,0.0
515,0.0
516,0.0
542,6316011.896879127
592,0.0
632,0.0
686,0.6711102505200166
687,0.44762065202035595
688,1.25
2,21, 1,21, 0, 8,20.00,30.00,Monday
250,25.789301181029625
251,0.0
336,2089456.1007666138
385,22.92
386,25.63
387,-0.30144951194940706
388,0.0
425,0.0
450,0.0
451,0.0
452,-2.529324034289137
453,0.0
490,0.0
515,0.0
516,0.0
542,4928028.095363744
592,0.0
632,0.0
686,0.47593370142220565
687,0.4
688,1.0
2,21, 1,21, 0, 8,30.00,40.00,Monday
250,24.747494283239398
251,0.0
336,3681606.510822963
385,22.92000000000002
386,24.43000000000002
387,-0.34226037213559785
388,0.0
425,0.0
450,0.0
451,0.0
452,-2.451414801175023
453,0.0
490,0.0
515,0.0
516,0.0
542,9014777.129589876
592,0.0
632,0.0
686,0.9054342817580975
687,0.6324493814437211
688,1.6666666666666679
2,21, 1,21, 0, 8,40.00,50.00,Monday
250,25.803393762457407
251,0.0
336,2634454.2637932557
385,22.919999999999966
386,25.429999999999968
387,-0.36186767502111533
388,0.0
425,0.0
450,0.0
451,0.0
452,-2.247688782126291
453,0.0
490,0.0
515,0.0
516,0.0
542,6423624.929912749
592,0.0
632,0.0
686,0.6278776650946302
687,0.49999999999999933
688,1.166666666666665
2,21, 1,21, 0, 8,50.00,60.00,Monday
250,24.866852766790707
251,0.0
336,3813174.343030967
385,22.92000000000002
386,24.43000000000002
387,-0.3618095489165599
388,0.0
425,0.0
450,0.0
451,0.0
452,-1.9285770154105681
453,0.0
490,0.0
515,0.0
516,0.0
542,9789123.014428498
592,0.0
632,0.0
686,0.9902613047794218
687,0.6666666666666672
688,1.6666666666666679
2,21, 1,21, 0, 9, 0.00,10.00,Monday
250,29.833847790522405
251,0.0
336,5313718.2819374595
385,22.920000000000005
386,24.430000000000003
387,-0.33794026904683555
388,0.0
425,0.0
450,0.0
451,0.0
452,-1.546078524492371
453,0.0
490,0.0
515,0.0
516,0.0
542,10801940.453041485
592,0.0
632,0.0
686,0.9999999999999999
687,0.9999999999999999
688,1.9999999999999998
2,21, 1,21, 0, 9,10.00,20.00,Monday
250,26.982335944937514
251,0.0
336,2967291.1512881434
385,22.92
386,24.43
387,-0.2923164721510328
388,0.0
425,0.0
450,0.0
451,0.0
452,-1.0598343252551332
453,0.0
490,0.0
515,0.0
516,0.0
542,10801940.453041485
592,0.0
632,0.0
686,1.0
687,1.0
688,2.0
2,21, 1,21, 0, 9,20.00,30.00,Monday
250,31.029863142129102
251,0.0
336,4055323.717162423
385,22.92
386,24.430000000000003
387,-0.228519753558114
388,0.0
425,0.0
450,0.0
451,0.0
452,-0.5138754733533212
453,0.0
490,0.0
515,0.0
516,0.0
542,10801940.453041486
592,0.0
632,0.0
686,1.0
687,1.0
688,2.0
2,21, 1,21, 0, 9,30.00,40.00,Monday
250,27.70280411167637
251,0.0
336,2380826.1664465135
385,22.919999999999987
386,24.429999999999986
387,-0.15018311830663608
388,0.0
425,0.0
450,0.0
451,0.0
452,0.08230879592136864
453,0.0
490,0.0
515,0.0
516,0.0
542,10801940.453041483
592,0.0
632,0.0
686,0.9999999999999992
687,0.9999999999999992
688,1.9999999999999984
2,21, 1,21, 0, 9,40.00,50.00,Monday
250,30.60943035804253
251,0.0
336,3969323.5811544247
385,22.919999999999966
386,24.429999999999968
387,-0.029275181954154118
388,0.0
425,0.0
450,0.0
451,0.0
452,0.8883568301046372
453,0.0
490,0.0
515,0.0
516,0.0
542,10801940.453041486
592,0.0
632,0.0
686,0.9999999999999986
687,0.9999999999999986
688,1.9999999999999971
2,21, 1,21, 0, 9,50.00,60.00,Monday
250,27.86591507500091
251,0.0
336,2409092.6975496295
385,22.92
386,24.43
387,0.044350881710172936
388,0.0
425,0.0
450,0.0
451,0.0
452,1.4038191441677699
453,0.0
490,0.0
515,0.0
516,0.0
542,10801940.453041485
592,0.0
632,0.0
686,1.0
687,1.0
688,2.0
2,21, 1,21, 0,10, 0.00,10.00,Monday
250,31.37733484854363
251,0.0
336,3707286.1770930365
385,22.92
386,24.43
387,0.1285078765233146
388,0.0
425,0.0
450,0.0
451,0.0
452,1.9203317610506943
453,0.0
490,0.0
515,0.0
516,0.0
542,10801940.453041485
592,0.0
632,0.0
686,1.0
687,1.0
688,2.0
2,21, 1,21, 0,10,10.00,20.00,Monday
250,29.010532099550765
251,0.0
336,2253210.04518123
385,22.92
386,24.43
387,0.2687904060596975
388,0.0
425,0.0
450,0.0
451,0.0
452,2.628589572937011
453,0.0
490,0.0
515,0.0
516,0.0
542,10801940.453041485
592,0.0
632,0.0
686,1.0
687,1.0
688,2.0
2,21, 1,21, 0,10,20.00,30.00,Monday
250,31.856837576136154
251,0.0
336,3501369.4096398912
385,22.92
386,24.43
387,0.37574984891135016
388,0.0
425,0.0
450,0.0
451,0.0
452,3.1521558923943753
453,0.0
490,0.0
515,0.0
516,0.0
542,10801940.45304148
592,0.0
632,0.0
686,1.0
687,1.0
688,2.0
2,21, 1,21, 0,10,30.00,40.00,Monday
250,28.529774547933307
251,0.0
336,2161795.525835562
385,22.920000000000016
386,24.430000000000017
387,0.4935374517662745
388,0.0
425,0.0
450,0.0
451,0.0
452,3.714147379258307
453,0.0
490,0.0
515,0.0
516,0.0
542,10801940.453041483
592,0.0
632,0.0
686,1.0000000000000007
687,1.0000000000000007
688,2.0000000000000013
2,21, 1,21, 0,10,40.00,50.00,Monday
250,31.90833481761975
251,0.0
336,3645561.7553030085
385,22.92
386,24.43
387,0.6310546048597031
388,0.0
425,0.0
450,0.0
451,0.0
452,4.367025439638294
453,0.0
490,0.0
515,0.0
516,0.0
542,10801940.453041483
592,0.0
632,0.0
686,1.0
687,1.0
688,2.0
2,21, 1,21, 0,10,50.00,60.00,Monday
250,28.43947857294266
251,0.0
336,2143252.2859695945
385,22.919999999999966
386,24.429999999999968
387,0.7840858392264834
388,0.0
425,0.0
450,0.0
451,0.0
452,5.1033078724624925
453,0.0
490,0.0
515,0.0
516,0.0
542,10801940.453041485
592,0.0
632,0.0
686,0.9999999999999986
687,0.9999999999999986
688,1.9999999999999971
2,21, 1,21, 0,11, 0.00,10.00,Monday
250,31.191046068537318
251,0.0
336,3876128.1594386864
385,22.92
386,24.43
387,1.0277454134042692
388,0.0
425,0.0
450,0.0
451,0.0
452,6.135523072168456
453,0.0
490,0.0
515,0.0
516,0.0
542,10801940.453041485
592,0.0
632,0.0
686,1.0
687,1.0
688,2.0
2,21, 1,21, 0,11,10.00,20.00,Monday
250,28.279159977771126
251,0.0
336,2319197.1661834703
385,22.92
386,24.43
387,1.1925812092449015
388,0.0
425,0.0
450,0.0
451,0.0
452,6.913205099918422
453,0.0
490,0.0
515,0.0
516,0.0
542,10801940.453041479
592,0.0
632,0.0
686,1.0
687,1.0
688,2.0
2,21, 1,21, 0,11,20.00,30.00,Monday
250,32.075376180705874
251,0.0
336,3726037.7386121154
385,22.919999999999977
386,24.42999999999997
387,1.370371276442189
388,0.0
425,0.0
450,0.0
451,0.0
452,7.766945685758603
453,0.0
490,0.0
515,0.0
516,0.0
542,10801940.453041479
592,0.0
632,0.0
686,0.9999999999999989
687,0.9999999999999989
688,1.9999999999999978
2,21, 1,21, 0,11,30.00,40.00,Monday
250,29.295791756467604
251,0.0
336,2220957.2648293115
385,22.920000000000023
386,24.430000000000028
387,1.6537801270963417
388,0.0
425,0.0
450,0.0
451,0.0
452,8.907136415482722
453,0.0
490,0.0
515,0.0
516,0.0
542,10801940.453041483
592,0.0
632,0.0
686,1.000000000000001
687,1.000000000000001
688,2.000000000000002
2,21, 1,21, 0,11,40.00,50.00,Monday
250,32.677245921946806
251,0.0
336,3638801.8490895797
385,22.92
386,24.43
387,1.8473869061354697
388,0.0
425,0.0
450,0.0
451,0.0
452,9.670721471372962
453,0.0
490,0.0
515,0.0
516,0.0
542,10801940.453041485
592,0.0
632,0.0
686,1.0
687,1.0
688,2.0
2,21, 1,21, 0,11,50.00,60.00,Monday
250,28.50881491024936
251,0.0
336,2157788.508987541
385,22.92
386,24.430000000000003
387,2.0455727174067073
388,0.0
425,0.0
450,0.0
451,0.0
452,10.379523084752208
453,0.0
490,0.0
515,0.0
516,0.0
542,10801940.453041485
592,0.0
632,0.0
686,1.0
687,1.0
688,2.0
2,21, 1,21, 0,12, 0.00,10.00,Monday
250,32.76933546773495
251,0.0
336,3951527.546040392
385,22.92
386,24.430000000000003
387,2.2530406667319394
388,0.0
425,0.0
450,0.0
451,0.0
452,11.009818457651107
453,0.0
490,0.0
515,0.0
516,0.0
542,10801940.45304148
592,0.0
632,0.0
686,1.0
687,1.0
688,2.0
2,21, 1,21, 0,12,10.00,20.00,Monday
250,28.08224437833932
251,0.0
336,2270905.008841197
385,22.919999999999998
386,24.42999999999999
387,2.4587681209508014
388,0.0
425,0.0
450,0.0
451,0.0
452,11.535575691250607
453,0.0
490,0.0
515,0.0
516,0.0
542,10801940.453041485
592,0.0
632,0.0
686,0.9999999999999996
687,0.9999999999999996
688,1.9999999999999991
2,21, 1,21, 0,12,20.00,30.00,Monday
250,33.04087207276155
251,0.0
336,4291912.547742825
385,22.92
386,24.430000000000003
387,2.658570043898235
388,0.0
425,0.0
450,0.0
451,0.0
452,11.952976820704748
453,0.0
490,0.0
515,0.0
516,0.0
542,10801940.453041485
592,0.0
632,0.0
686,1.0
687,1.0
688,2.0
2,21, 1,21, 0,12,30.00,40.00,Monday
250,27.638538571936696
251,0.0
336,2379525.924547949
385,22.919999999999998
386,24.429999999999996
387,2.842976871376724
388,0.0
425,0.0
450,0.0
451,0.0
452,12.243178018748708
453,0.0
490,0.0
515,0.0
516,0.0
542,10801940.453041486
592,0.0
632,0.0
686,0.9999999999999996
687,0.9999999999999996
688,1.9999999999999991
2,21, 1,21, 0,12,40.00,50.00,Monday
250,33.1746752050898
251,0.0
336,4616212.885412783
385,22.920000000000066
386,24.430000000000074
387,3.0096196601715737
388,0.0
425,0.0
450,0.0
451,0.0
452,12.391050255608283
453,0.0
490,0.0
515,0.0
516,0.0
542,10801940.453041477
592,0.0
632,0.0
686,1.0000000000000027
687,1.0000000000000027
688,2.0000000000000053
2,21, 1,21, 0,12,50.00,60.00,Monday
250,27.547012970893196
251,0.0
336,2467075.584791543
385,22.920000000000005
386,24.430000000000003
387,3.154146796228985
388,0.0
425,0.0
450,0.0
451,0.0
452,12.406142669366316
453,0.0
490,0.0
515,0.0
516,0.0
542,10801940.453041486
592,0.0
632,0.0
686,0.9999999999999999
687,0.9999999999999999
688,1.9999999999999998
2,21, 1,21, 0,13, 0.00,10.00,Monday
250,28.68815785327602
251,0.0
336,3728169.93539067
385,22.92
386,24.43
387,3.283368586407497
388,0.0
425,0.0
450,0.0
451,0.0
452,12.347989113901352
453,0.0
490,0.0
515,0.0
516,0.0
542,10801940.453041485
592,0.0
632,0.0
686,1.0
687,1.0
688,2.0
2,21, 1,21, 0,13,10.00,20.00,Monday
250,27.416766582269467
251,0.0
336,3457503.138970114
385,22.92
386,24.43
387,3.401744644361103
388,0.0
425,0.0
450,0.0
451,0.0
452,12.276313539584175
453,0.0
490,0.0
515,0.0
516,0.0
542,10801940.453041483
592,0.0
632,0.0
686,1.0
687,1.0
688,2.0
2,21, 1,21, 0,13,20.00,30.00,Monday
250,27.240319165920887
251,0.0
336,3822382.571282467
385,22.92
386,24.43
387,3.526588023030177
388,0.0
425,0.0
450,0.0
451,0.0
452,12.210412118662104
453,0.0
490,0.0
515,0.0
516,0.0
542,10801940.453041486
592,0.0
632,0.0
686,1.0
687,1.0
688,2.0
2,21, 1,21, 0,13,30.00,40.00,Monday
250,27.372449323741115
251,0.0
336,4028606.447252851
385,22.92
386,24.43
387,3.6420320817723315
388,0.0
425,0.0
450,0.0
451,0.0
452,12.171914795070816
453,0.0
490,0.0
515,0.0
516,0.0
542,10801940.453041485
592,0.0
632,0.0
686,1.0
687,1.0
688,2.0
2,21, 1,21, 0,13,40.00,50.00,Monday
250,27.276841520256998
251,0.0
336,4224452.225818986
385,22.92
386,24.43
387,3.7375361043966002
388,0.0
425,0.0
450,0.0
451,0.0
452,12.157785383536948
453,0.0
490,0.0
515,0.0
516,0.0
542,10801940.453041485
592,0.0
632,0.0
686,1.0
687,1.0
688,2.0
2,21, 1,21, 0,13,50.00,60.00,Monday
250,27.103030868944433
251,0.0
336,4336688.819154573
385,22.92
386,24.43
387,3.8185180515432684
388,0.0
425,0.0
450,0.0
451,0.0
452,12.152092879258111
453,0.0
490,0.0
515,0.0
516,0.0
542,10801940.453041485
592,0.0
632,0.0
686,1.0
687,1.0
688,2.0
2,21, 1,21, 0,14, 0.00,10.00,Monday
250,30.845230500574868
251,0.0
336,4832615.229042731
385,22.920000000000005
386,24.430000000000003
387,3.873997765159565
388,0.0
425,0.0
450,0.0
451,0.0
452,12.112263971929343
453,0.0
490,0.0
515,0.0
516,0.0
542,10801940.453041486
592,0.0
632,0.0
686,0.9999999999999999
687,0.9999999999999999
688,1.9999999999999998
2,21, 1,21, 0,14,10.00,20.00,Monday
250,28.548944976174486
251,0.0
336,2745958.237436904
385,22.92
386,24.43
387,3.933629848702271
388,0.0
425,0.0
450,0.0
451,0.0
452,12.008116489424367
453,0.0
490,0.0
515,0.0
516,0.0
542,10801940.453041479
592,0.0
632,0.0
686,1.0
687,1.0
688,2.0
2,21, 1,21, 0,14,20.00,30.00,Monday
250,32.211901991743694
251,0.0
336,3695574.7016718676
385,22.919999999999977
386,24.42999999999997
387,3.99290946112316
388,0.0
425,0.0
450,0.0
451,0.0
452,11.84230876401891
453,0.0
490,0.0
515,0.0
516,0.0
542,10801940.453041477
592,0.0
632,0.0
686,0.9999999999999989
687,0.9999999999999989
688,1.9999999999999978
2,21, 1,21, 0,14,30.00,40.00,Monday
250,28.776743536869894
251,0.0
336,2135808.1355340527
385,22.91999999999998
386,24.42999999999998
387,4.043666861271937
388,0.0
425,0.0
450,0.0
451,0.0
452,11.589864164900863
453,0.0
490,0.0
515,0.0
516,0.0
542,10801940.453041483
592,0.0
632,0.0
686,0.9999999999999989
687,0.9999999999999989
688,1.9999999999999978
2,21, 1,21, 0,14,40.00,50.00,Monday
250,32.774078636431376
251,0.0
336,3772289.817265988
385,22.92000000000003
386,24.430000000000035
387,4.080091230151661
388,0.0
425,0.0
450,0.0
451,0.0
452,11.221603985926418
453,0.0
490,0.0
515,0.0
516,0.0
542,10801940.453041485
592,0.0
632,0.0
686,1.0000000000000013
687,1.0000000000000013
688,2.0000000000000027
2,21, 1,21, 0,14,50.00,60.00,Monday
250,28.47232162737439
251,0.0
336,2187822.0770534175
385,22.92
386,24.430000000000003
387,4.0995833356592994
388,0.0
425,0.0
450,0.0
451,0.0
452,10.74379146038143
453,0.0
490,0.0
515,0.0
516,0.0
542,10801940.453041483
592,0.0
632,0.0
686,1.0
687,1.0
688,2.0
2,21, 1,21, 0,15, 0.00,10.00,Monday
250,33.022644025472246
251,0.0
336,4092371.836487351
385,22.92
386,24.430000000000003
387,4.100861465936212
388,0.0
425,0.0
450,0.0
451,0.0
452,10.188578856930553
453,0.0
490,0.0
515,0.0
516,0.0
542,10801940.453041475
592,0.0
632,0.0
686,1.0
687,1.0
688,2.0
2,21, 1,21, 0,15,10.00,20.00,Monday
250,28.117957812659228
251,0.0
336,2272994.299170348
385,22.919999999999998
386,24.42999999999999
387,4.0854055604050705
388,0.0
425,0.0
450,0.0
451,0.0
452,9.575117615438806
453,0.0
490,0.0
515,0.0
516,0.0
542,10801940.453041479
592,0.0
632,0.0
686,0.9999999999999996
687,0.9999999999999996
688,1.9999999999999991
2,21, 1,21, 0,15,20.00,30.00,Monday
250,33.177791339510264
251,0.0
336,4340451.825518432
385,22.92
386,24.430000000000003
387,4.056027634976707
388,0.0
425,0.0
450,0.0
451,0.0
452,8.896793014485706
453,0.0
490,0.0
515,0.0
516,0.0
542,10801940.453041483
592,0.0
632,0.0
686,1.0
687,1.0
688,2.0
2,21, 1,21, 0,15,30.00,40.00,Monday
250,27.804422648200266
251,0.0
336,2375966.396369905
385,22.919999999999998
386,24.429999999999996
387,4.020118809151523
388,0.0
425,0.0
450,0.0
451,0.0
452,8.250901298832087
453,0.0
490,0.0
515,0.0
516,0.0
542,10801940.453041483
592,0.0
632,0.0
686,0.9999999999999996
687,0.9999999999999996
688,1.9999999999999991
2,21, 1,21, 0,15,40.00,50.00,Monday
250,33.19798806048311
251,0.0
336,4561778.831417805
385,22.92
386,24.430000000000003
387,3.9826499966286573
388,0.0
425,0.0
450,0.0
451,0.0
452,7.696847694124754
453,0.0
490,0.0
515,0.0
516,0.0
542,10801940.453041483
592,0.0
632,0.0
686,1.0
687,1.0
688,2.0
2,21, 1,21, 0,15,50.00,60.00,Monday
250,27.814724070528285
251,0.0
336,2437301.618052051
385,22.920000000000005
386,24.430000000000003
387,3.9478321562619145
388,0.0
425,0.0
450,0.0
451,0.0
452,7.2619218463807425
453,0.0
490,0.0
515,0.0
516,0.0
542,10801940.45304148