Program Version,EnergyPlus, Version 24.2.0-94a887817b, YMD=2025.02.04 17:21
1,5,Environment Title[],Latitude[deg],Longitude[deg],Time Zone[],Elevation[m]
2,8,Day of Simulation[],Month[],Day of Month[],DST Indicator[1=yes 0=no],Hour[],StartMinute[],EndMinute[],DayType
3,5,Cumulative Day of Simulation[],Month[],Day of Month[],DST Indicator[1=yes 0=no],DayType  ! When Daily Report Variables Requested
4,2,Cumulative Days of Simulation[],Month[]  ! When Monthly Report Variables Requested
5,1,Cumulative Days of Simulation[] ! When Run Period Report Variables Requested
6,1,Calendar Year of Simulation[] ! When Annual Report Variables Requested
250,1,LIVING ZONE,Zone Air Temperature [C] !TimeStep,REPORTSCH
251,1,LIVING ZONE,Zone Air System Sensible Heating Energy [J] !TimeStep,REPORTSCH
336,1,LIVING ZONE,Zone Air System Sensible Cooling Energy [J] !TimeStep,REPORTSCH
385,1,LIVING ZONE,Zone Thermostat Heating Setpoint Temperature [C] !TimeStep,REPORTSCH
386,1,LIVING ZONE,Zone Thermostat Cooling Setpoint Temperature [C] !TimeStep,REPORTSCH
387,1,GARAGE ZONE,Zone Air Temperature [C] !TimeStep,REPORTSCH
388,1,GARAGE ZONE,Zone Air System Sensible Heating Energy [J] !TimeStep,REPORTSCH
425,1,GARAGE ZONE,Zone Air System Sensible Cooling Energy [J] !TimeStep,REPORTSCH
450,1,GARAGE ZONE,Zone Thermostat Heating Setpoint Temperature [C] !TimeStep,REPORTSCH
451,1,GARAGE ZONE,Zone Thermostat Cooling Setpoint Temperature [C] !TimeStep,REPORTSCH
452,1,ATTIC ZONE,Zone Air Temperature [C] !TimeStep,REPORTSCH
453,1,ATTIC ZONE,Zone Air System Sensible Heating Energy [J] !TimeStep,REPORTSCH
490,1,ATTIC ZONE,Zone Air System Sensible Cooling Energy [J] !TimeStep,REPORTSCH
515,1,ATTIC ZONE,Zone Thermostat Heating Setpoint Temperature [C] !TimeStep,REPORTSCH
516,1,ATTIC ZONE,Zone Thermostat Cooling Setpoint Temperature [C] !TimeStep,REPORTSCH
542,1,ACDXCOIL 1,Cooling Coil Total Cooling Energy [J] !TimeStep,REPORTSCH
592,1,HEAT PUMP DX HEATING COIL 1,Heating Coil Heating Energy [J] !TimeStep,REPORTSCH
632,1,SUPP HEATING COIL 1,Heating Coil Heating Energy [J] !TimeStep,REPORTSCH
686,1,TWOSPEED HEAT PUMP 1,Unitary System DX Coil Cycling Ratio [] !TimeStep,REPORTSCH
687,1,TWOSPEED HEAT PUMP 1,Unitary System DX Coil Speed Ratio [] !TimeStep,REPORTSCH
688,1,TWOSPEED HEAT PUMP 1,Unitary System DX Coil Speed Level [] !TimeStep,REPORTSCH
End of Data Dictionary
1,YEARSIMULATION,  41.98, -87.92,  -6.00, 201.00
2,21, 1,21, 0, 1, 0.00,10.00,Sunday
250,20.81232649432813
251,4804525.868747609
336,0.0
385,20.51666666666667
386,26.34
387,0.576339491640514
388,0.0
425,0.0
450,0.0
451,0.0
452,-1.6729125533773364
453,0.0
490,0.0
515,0.0
516,0.0
542,0.0
592,2127409.4807650787
632,2598616.301104318
686,0.473628435090629
687,0.33333333333333326
688,0.8333333333333333
2,21, 1,21, 0, 1,10.00,20.00,Sunday
250,21.74695512954576
251,6965813.066837478
336,0.0
385,21.85
386,26.34
387,0.5496574055266119
388,0.0
425,0.0
450,0.0
451,0.0
452,-1.6623787148690656
453,0.0
490,0.0
515,0.0
516,0.0
542,0.0
592,4861376.606747089
632,2116781.649538756
686,1.0
687,1.0
688,2.0
2,21, 1,21, 0, 1,20.00,30.00,Sunday
250,21.843010396887674
251,6253043.158200949
336,0.0
385,21.85
386,26.34
387,0.5191483176608461
388,0.0
425,0.0
450,0.0
451,0.0
452,-1.6521459982904623
453,0.0
490,0.0
515,0.0
516,0.0
542,0.0
592,4847053.819424246
632,1159433.965979626
686,1.0
687,1.0
688,2.0
2,21, 1,21, 0, 1,30.00,40.00,Sunday
250,20.80512713715533
251,4866240.637515087
336,0.0
385,20.516666666666655
386,26.339999999999982
387,0.4957885694475058
388,0.0
425,0.0
450,0.0
451,0.0
452,-1.6470544642305218
453,0.0
490,0.0
515,0.0
516,0.0
542,0.0
592,2132741.8808183237
632,2653169.381880653
686,0.4809540195354528
687,0.33333333333333287
688,0.8333333333333326
2,21, 1,21, 0, 1,40.00,50.00,Sunday
250,21.74642884070439
251,7028891.689874463
336,0.0
385,21.85
386,26.34
387,0.47148050639062555
388,0.0
425,0.0
450,0.0
451,0.0
452,-1.643521766411809
453,0.0
490,0.0
515,0.0
516,0.0
542,0.0
592,4813893.150216324
632,2229258.958972875
686,1.0
687,1.0
688,2.0
2,21, 1,21, 0, 1,50.00,60.00,Sunday
250,21.842993769586244
251,6305460.476219822
336,0.0
385,21.85
386,26.34
387,0.44288469767152355
388,0.0
425,0.0
450,0.0
451,0.0
452,-1.6411574583816295
453,0.0
490,0.0
515,0.0
516,0.0
542,0.0
592,4799576.666689643
632,1259380.5288305408
686,1.0
687,1.0
688,2.0
2,21, 1,21, 0, 2, 0.00,10.00,Sunday
250,20.799961779261633
251,4910598.531120643
336,0.0
385,20.51666666666667
386,26.34
387,0.42045138573512275
388,0.0
425,0.0
450,0.0
451,0.0
452,-1.6418089033829413
453,0.0
490,0.0
515,0.0
516,0.0
542,0.0
592,2137005.062595896
632,2692047.358731329
686,0.48611740902744094
687,0.33333333333333326
688,0.8333333333333333
2,21, 1,21, 0, 2,10.00,20.00,Sunday
250,21.74603359291554
251,7062711.603207993
336,0.0
385,21.85
386,26.34
387,0.3967408119028713
388,0.0
425,0.0
450,0.0
451,0.0
452,-1.6456862069911553
453,0.0
490,0.0
515,0.0
516,0.0
542,0.0
592,4798061.626439871
632,2280292.801433398
686,1.0
687,1.0
688,2.0
2,21, 1,21, 0, 2,20.00,30.00,Sunday
250,21.84297631299783
251,6320158.904995881
336,0.0
385,21.85
386,26.34
387,0.3684424897859041
388,0.0
425,0.0
450,0.0
451,0.0
452,-1.6541083614472876
453,0.0
490,0.0
515,0.0
516,0.0
542,0.0
592,4799576.542008879
632,1274118.5799862652
686,1.0
687,1.0
688,2.0
2,21, 1,21, 0, 2,30.00,40.00,Sunday
250,20.798264715008138
251,4926461.069910047
336,0.0
385,20.516666666666655
386,26.339999999999982
387,0.34593809564448014
388,0.0
425,0.0
450,0.0
451,0.0
452,-1.6646837111710673
453,0.0
490,0.0
515,0.0
516,0.0
542,0.0
592,2142963.7266695127
632,2701636.1179898423
686,0.48780538371987425
687,0.33333333333333287
688,0.9999999999999989
2,21, 1,21, 0, 2,40.00,50.00,Sunday
250,21.745944116592675
251,7079319.990744175
336,0.0
385,21.85
386,26.34
387,0.32187410744696576
388,0.0
425,0.0
450,0.0
451,0.0
452,-1.6786740427062616
453,0.0
490,0.0
515,0.0
516,0.0
542,0.0
592,4798057.613909015
632,2297371.4609754104
686,1.0
687,1.0
688,2.0
2,21, 1,21, 0, 2,50.00,60.00,Sunday
250,21.842976926659585
251,6332864.896540462
336,0.0
385,21.85
386,26.34
387,0.2929274022996006
388,0.0
425,0.0
450,0.0
451,0.0
452,-1.6977034606843124
453,0.0
490,0.0
515,0.0
516,0.0
542,0.0
592,4799576.514123301
632,1286830.1839823232
686,1.0
687,1.0
688,2.0
2,21, 1,21, 0, 3, 0.00,10.00,Sunday
250,20.797243041805825
251,4948671.879831498
336,0.0
385,20.51666666666667
386,26.34
387,0.27043038966944477
388,0.0
425,0.0
450,0.0
451,0.0
452,-1.712621660540626
453,0.0
490,0.0
515,0.0
516,0.0
542,0.0
592,2155300.022883485
632,2710452.009947993
686,0.4913058527945332
687,0.33333333333333326
688,1.0
2,21, 1,21, 0, 3,10.00,20.00,Sunday
250,21.745944467213263
251,7113316.873077607
336,0.0
385,21.85
386,26.34
387,0.24715974894781734
388,0.0
425,0.0
450,0.0
451,0.0
452,-1.7246922725821792
453,0.0
490,0.0
515,0.0
516,0.0
542,0.0
592,4798055.257757958
632,2331659.060116257
686,1.0
687,1.0
688,2.0
2,21, 1,21, 0, 3,20.00,30.00,Sunday
250,21.842988408248623
251,6374703.509540746
336,0.0
385,21.85
386,26.34
387,0.22022848880045648
388,0.0
425,0.0
450,0.0
451,0.0
452,-1.7324885272422335
453,0.0
490,0.0
515,0.0
516,0.0
542,0.0
592,4799576.526065801
632,1328663.3931117314
686,1.0
687,1.0
688,2.0
2,21, 1,21, 0, 3,30.00,40.00,Sunday
250,20.795366685840325
251,4989373.529116232
336,0.0
385,20.516666666666655
386,26.339999999999982
387,0.20009672069106268
388,0.0
425,0.0
450,0.0
451,0.0
452,-1.7321521896651029
453,0.0
490,0.0
515,0.0
516,0.0
542,0.0
592,2177909.035680606
632,2726622.0989329065
686,0.4977208077989046
687,0.33333333333333287
688,0.9999999999999989
2,21, 1,21, 0, 3,40.00,50.00,Sunday
250,21.745868404118035
251,7155291.185137013
336,0.0
385,21.85
386,26.34
387,0.1796407547545118
388,0.0
425,0.0
450,0.0
451,0.0
452,-1.728126461429889
453,0.0
490,0.0
515,0.0
516,0.0
542,0.0
592,4798050.883388847
632,2374147.9405327216
686,1.0
687,1.0
688,2.0
2,21, 1,21, 0, 3,50.00,60.00,Sunday
250,21.8429946726062
251,6413257.055475009
336,0.0
385,21.85
386,26.34
387,0.15623750815340856
388,0.0
425,0.0
450,0.0
451,0.0
452,-1.719695580994673
453,0.0
490,0.0
515,0.0
516,0.0
542,0.0
592,4799576.520494383
632,1367219.645570761
686,1.0
687,1.0
688,2.0
2,21, 1,21, 0, 4, 0.00,10.00,Sunday
250,20.790657813604362
251,5089657.745247679
336,0.0
385,20.51666666666667
386,26.34
387,0.13433273218343517
388,0.0
425,0.0
450,0.0
451,0.0
452,-1.712025675546146
453,0.0
490,0.0
515,0.0
516,0.0
542,0.0
592,2232352.358262701
632,2768484.120719818
686,0.5091365205555177
687,0.3462743973504786
688,1.1666666666666667
2,21, 1,21, 0, 4,10.00,20.00,Sunday
250,21.74565274359132
251,7320285.003552556
336,0.0
385,21.85
386,26.34
387,0.10777829596896718
388,0.0
425,0.0
450,0.0
451,0.0
452,-1.705254492359078
453,0.0
490,0.0
515,0.0
516,0.0
542,0.0
592,4789285.878199244
632,2549173.0108374124
686,1.0
687,1.0
688,2.0
2,21, 1,21, 0, 4,20.00,30.00,Sunday
250,21.84301582774065
251,6637092.969081929
336,0.0
385,21.85
386,26.34
387,0.07305251792350272
388,0.0
425,0.0
450,0.0
451,0.0
452,-1.7005940887240745
453,0.0
490,0.0
515,0.0
516,0.0
542,0.0
592,4785754.746888864
632,1604893.21176929
686,1.0
687,1.0
688,2.0
2,21, 1,21, 0, 4,30.00,40.00,Sunday
250,20.779673773270204
251,5317251.96283609
336,0.0
385,20.516666666666655
386,26.339999999999982
387,0.04377633918410505
388,0.0
425,0.0
450,0.0
451,0.0
452,-1.702067734730985
453,0.0
490,0.0
515,0.0
516,0.0
542,0.0
592,2354682.580484973
632,2867585.7003453895
686,0.5213437708120604
687,0.4145622781169943
688,1.1666666666666659
2,21, 1,21, 0, 4,40.00,50.00,Sunday
250,21.744901157171213
251,7552563.446845441
336,0.0
385,21.85
386,26.34
387,0.011376087697442184
388,0.0
425,0.0
450,0.0
451,0.0
452,-1.7083772832066917
453,0.0
490,0.0
515,0.0
516,0.0
542,0.0
592,4774996.8610045165
632,2798645.6454196475
686,1.0
687,1.0
688,2.0
2,21, 1,21, 0, 4,50.00,60.00,Sunday
250,21.84300549838202
251,6860249.166223939
336,0.0
385,21.85
386,26.34
387,-0.028928223658137978
388,0.0
425,0.0
450,0.0
451,0.0
452,-1.7196990652614768
453,0.0
490,0.0
515,0.0
516,0.0
542,0.0
592,4770566.385938435
632,1843310.020201328
686,1.0
687,1.0
688,2.0
2,21, 1,21, 0, 5, 0.00,10.00,Sunday
250,20.77369997319327
251,5440909.960612749
336,0.0
385,20.51666666666667
386,26.34
387,-0.05259580436190681
388,0.0
425,0.0
450,0.0
451,0.0
452,-1.7269302043530539
453,0.0
490,0.0
515,0.0
516,0.0
542,0.0
592,2418060.217920831
632,2924610.249277794
686,0.5280712081902312
687,0.4525320055311368
688,1.1666666666666667
2,21, 1,21, 0, 5,10.00,20.00,Sunday
250,21.134446860087237
251,5266300.917605716
336,0.0
385,21.183333333333334
386,26.339999999999996
387,-0.06946015444039905
388,0.0
425,0.0
450,0.0
451,0.0
452,-1.728734541562026
453,0.0
490,0.0
515,0.0
516,0.0
542,0.0
592,3216510.8747174665
632,2052722.7165487409
686,0.6796810752793017
687,0.6666666666666667
688,1.6666666666666667
2,21, 1,21, 0, 5,20.00,30.00,Sunday
250,21.37064085993522
251,6564440.854779486
336,0.0
385,21.85
386,26.34
387,-0.0844629480736101
388,0.0
425,0.0
450,0.0
451,0.0
452,-1.7223222522991477
453,0.0
490,0.0
515,0.0
516,0.0
542,0.0
592,4744177.394232539
632,2375013.961215668
686,1.0
687,1.0
688,2.0
2,21, 1,21, 0, 5,30.00,40.00,Sunday
250,21.80454495760076
251,7621473.181157833
336,0.0
385,21.85
386,26.34
387,-0.09437751300851455
388,0.0
425,0.0
450,0.0
451,0.0
452,-1.7074984040386267
453,0.0
490,0.0
515,0.0
516,0.0
542,0.0
592,4743564.75077191
632,2744613.655085749
686,1.0
687,1.0
688,2.0
2,21, 1,21, 0, 5,40.00,50.00,Sunday
250,20.772977725783882
251,5419932.770061484
336,0.0
385,20.51666666666664
386,26.33999999999996
387,-0.09945239792447509
388,0.0
425,0.0
450,0.0
451,0.0
452,-1.686360283006668
453,0.0
490,0.0
515,0.0
516,0.0
542,0.0
592,2399463.7665350074
632,2922897.625333675
686,0.527583447437646
687,0.45071419818487446
688,1.166666666666665
2,21, 1,21, 0, 5,50.00,60.00,Sunday
250,21.13327858577835
251,5209196.4934134185
336,0.0
385,21.18333333333335
386,26.340000000000018
387,-0.10267258210618195
388,0.0
425,0.0
450,0.0
451,0.0
452,-1.6588030482376959
453,0.0
490,0.0
515,0.0
516,0.0
542,0.0
592,3178312.883395676
632,2039590.3750713603
686,0.6745868097431169
687,0.6666666666666672
688,1.6666666666666679
2,21, 1,21, 0, 6, 0.00,10.00,Sunday
250,21.370788231294583
251,6587130.42954451
336,0.0
385,21.85
386,26.34
387,-0.11271160482734123
388,0.0
425,0.0
450,0.0
451,0.0
452,-1.627811554389634
453,0.0
490,0.0
515,0.0
516,0.0
542,0.0
592,4716394.878184135
632,2427600.6460661944
686,1.0
687,1.0
688,2.0
2,21, 1,21, 0, 6,10.00,20.00,Sunday
250,21.804625088280886
251,7704131.324827531
336,0.0
385,21.85
386,26.34
387,-0.129951493348472
388,0.0
425,0.0
450,0.0
451,0.0
452,-1.6111927548853973
453,0.0
490,0.0
515,0.0
516,0.0
542,0.0
592,4720238.663716504
632,2850582.956506757
686,1.0
687,1.0
688,2.0
2,21, 1,21, 0, 6,20.00,30.00,Sunday
250,20.765547120009437
251,5573506.57732703
336,0.0
385,20.516666666666683
386,26.34000000000002
387,-0.15100456872587553
388,0.0
425,0.0
450,0.0
451,0.0
452,-1.611205613138389
453,0.0
490,0.0
515,0.0
516,0.0
542,0.0
592,2478355.321126578
632,2993693.435514894
686,0.5360195240717116
687,0.4985197407779289
688,1.1666666666666674
2,21, 1,21, 0, 6,30.00,40.00,Sunday
250,21.137633358602823
251,5454963.003970334
336,0.0
385,21.18333333333335
386,26.340000000000018
387,-0.17646179564977515
388,0.0
425,0.0
450,0.0
451,0.0
452,-1.6213796292721274
453,0.0
490,0.0
515,0.0
516,0.0
542,0.0
592,3235754.3242423804
632,2207630.3925691983
686,0.6942707161750624
687,0.6666666666666672
688,1.6666666666666679
2,21, 1,21, 0, 6,40.00,50.00,Sunday
250,21.37600561911416
251,6809350.251903272
336,0.0
385,21.85
386,26.34
387,-0.21075969807264014
388,0.0
425,0.0
450,0.0
451,0.0
452,-1.6438894422427364
453,0.0
490,0.0
515,0.0
516,0.0
542,0.0
592,4702275.2952222545
632,2659359.0680493983
686,1.0
687,1.0
688,2.0
2,21, 1,21, 0, 6,50.00,60.00,Sunday
250,21.805230983889373
251,7927327.264672076
336,0.0
385,21.85
386,26.34
387,-0.2436579176723176
388,0.0
425,0.0
450,0.0
451,0.0
452,-1.6727023000308665
453,0.0
490,0.0
515,0.0
516,0.0
542,0.0
592,4703654.06140705
632,3089012.263871642
686,1.0
687,1.0
688,2.0
2,21, 1,21, 0, 7, 0.00,10.00,Sunday
250,20.755776840117434
251,5759537.244309987
336,0.0
385,20.51666666666667
386,26.34
387,-0.2776971880599525
388,0.0
425,0.0
450,0.0
451,0.0
452,-1.7180749904289816
453,0.0
490,0.0
515,0.0
516,0.0
542,0.0
592,2517438.5203560456
632,3143566.86448941
686,0.5453193883575038
687,0.5
688,1.1666666666666667
2,21, 1,21, 0, 7,10.00,20.00,Sunday
250,21.14018460221297
251,5617278.552947272
336,0.0
385,21.183333333333334
386,26.339999999999996
387,-0.32122744380914353
388,0.0
425,0.0
450,0.0
451,0.0
452,-1.7985873147271514
453,0.0
490,0.0
515,0.0
516,0.0
542,0.0
592,3303982.488976174
632,2289510.0820119334
686,0.7071159172131581
687,0.6666666666666667
688,1.6666666666666667
2,21, 1,21, 0, 7,20.00,30.00,Sunday
250,21.37890038473702
251,6914780.614866687
336,0.0
385,21.85
386,26.34
387,-0.3833173101280683
388,0.0
425,0.0
450,0.0
451,0.0
452,-1.9355016439534523
453,0.0
490,0.0
515,0.0
516,0.0
542,0.0
592,4763493.0326549765
632,2700274.9789603744
686,1.0
687,1.0
688,2.0
2,21, 1,21, 0, 7,30.00,40.00,Sunday
250,21.805519518883216
251,8001438.416280812
336,0.0
385,21.85
386,26.34
387,-0.4462854151387371
388,0.0
425,0.0
450,0.0
451,0.0
452,-2.0975929369657647
453,0.0
490,0.0
515,0.0
516,0.0
542,0.0
592,4787919.892953971
632,3078084.1256747963
686,1.0
687,1.0
688,2.0
2,21, 1,21, 0, 7,40.00,50.00,Sunday
250,20.751800241584792
251,5833997.250304295
336,0.0
385,20.51666666666664
386,26.33999999999996
387,-0.5080167408238934
388,0.0
425,0.0
450,0.0
451,0.0
452,-2.277784436796158
453,0.0
490,0.0
515,0.0
516,0.0
542,0.0
592,2571850.8746840134
632,3165014.4235954504
686,0.548311557477008
687,0.49999999999999933
688,1.166666666666665
2,21, 1,21, 0, 7,50.00,60.00,Sunday
250,21.14137280633321
251,5696833.38964367
336,0.0
385,21.18333333333335
386,26.340000000000018
387,-0.5806099690313304
388,0.0
425,0.0
450,0.0
451,0.0
452,-2.4972977922824495
453,0.0
490,0.0
515,0.0
516,0.0
542,0.0
592,3380176.9461918245
632,2287162.6076305066
686,0.7130429799438162
687,0.6666666666666672
688,1.6666666666666679
2,21, 1,21, 0, 8, 0.00,10.00,Sunday
250,21.380380276254694
251,6979767.054641552
336,0.0
385,21.85
386,26.34
387,-0.6668044974094757
388,0.0
425,0.0
450,0.0
451,0.0
452,-2.762342871845901
453,0.0
490,0.0
515,0.0
516,0.0
542,0.0
592,4833961.787646327
632,2693201.2879136535
686,1.0
687,1.0
688,2.0
2,21, 1,21, 0, 8,10.00,20.00,Sunday
250,21.8056879336129
251,8002732.503213241
336,0.0
385,21.85
386,26.34
387,-0.7291278145630928
388,0.0
425,0.0
450,0.0
451,0.0
452,-2.9104130106751076
453,0.0
490,0.0
515,0.0
516,0.0
542,0.0
592,4847627.048529632
632,3019254.7238065894
686,1.0
687,1.0
688,2.0
2,21, 1,21, 0, 8,20.00,30.00,Sunday
250,20.75366768185028
251,5798204.984003515
336,0.0
385,20.516666666666683
386,26.34000000000002
387,-0.7673106302557402
388,0.0
425,0.0
450,0.0
451,0.0
452,-2.909762141584367
453,0.0
490,0.0
515,0.0
516,0.0
542,0.0
592,2591214.164829377
632,3109321.936025205
686,0.546104275368954
687,0.5000000000000004
688,1.1666666666666674
2,21, 1,21, 0, 8,30.00,40.00,Sunday
250,21.139368806633854
251,5586890.14680706
336,0.0
385,21.18333333333335
386,26.340000000000018
387,-0.796486809693
388,0.0
425,0.0
450,0.0
451,0.0
452,-2.813325094533316
453,0.0
490,0.0
515,0.0
516,0.0
542,0.0
592,3377729.101159761
632,2189024.0295558902
686,0.7040145903045871
687,0.6666666666666672
688,1.6666666666666679
2,21, 1,21, 0, 8,40.00,50.00,Sunday
250,21.377299665837555
251,6787821.02869805
336,0.0
385,21.85
386,26.34
387,-0.8158420054564769
388,0.0
425,0.0
450,0.0
451,0.0
452,-2.580452590899512
453,0.0
490,0.0
515,0.0
516,0.0
542,0.0
592,4875995.558393036
632,2460710.8126279
686,1.0
687,1.0
688,2.0
2,21, 1,21, 0, 8,50.00,60.00,Sunday
250,21.805250887138243
251,7763749.663255689
336,0.0
385,21.85
386,26.34
387,-0.8141271199851607
388,0.0
425,0.0
450,0.0
451,0.0
452,-2.2707714606886316
453,0.0
490,0.0
515,0.0
516,0.0
542,0.0
592,4889717.001175793
632,2738942.901622629
686,1.0
687,1.0
688,2.0
2,21, 1,21, 0, 9, 0.00,10.00,Sunday
250,20.768379705548742
251,5506890.495940937
336,0.0
385,20.51666666666667
386,26.34
387,-0.7884946692476532
388,0.0
425,0.0
450,0.0
451,0.0
452,-1.8912227109133137
453,0.0
490,0.0
515,0.0
516,0.0
542,0.0
592,2506816.1590224826
632,2903255.418420369
686,0.5310041730410616
687,0.45700777192189557
688,1.1666666666666667
2,21, 1,21, 0, 9,10.00,20.00,Sunday
250,21.13402505255826
251,5255363.728854708
336,0.0
385,21.183333333333334
386,26.339999999999996
387,-0.7438183716149688
388,0.0
425,0.0
450,0.0
451,0.0
452,-1.4104502015470723
453,0.0
490,0.0
515,0.0
516,0.0
542,0.0
592,3326549.6126663913
632,1933296.0540296645
686,0.6790363288326684
687,0.6666666666666667
688,1.6666666666666667
2,21, 1,21, 0, 9,20.00,30.00,Sunday
250,21.164934509959288
251,6661763.759309216
336,0.0
385,21.183333333333326
386,26.33999999999999
387,-0.665205873850667
388,0.0
425,0.0
450,0.0
451,0.0
452,-0.7040719862421159
453,0.0
490,0.0
515,0.0
516,0.0
542,0.0
592,2750121.20337545
632,3824164.892205441
686,0.6401888265503187
687,0.3333333333333332
688,1.3333333333333328
2,21, 1,21, 0, 9,30.00,40.00,Sunday
250,21.166078089145746
251,6630136.380925553
336,0.0
385,21.183333333333344
386,26.34000000000001
387,-0.5797613988658014
388,0.0
425,0.0
450,0.0
451,0.0
452,-0.05501757704982086
453,0.0
490,0.0
515,0.0
516,0.0
542,0.0
592,2773721.466742052
632,3764113.4182961015
686,0.6439580683782199
687,0.3333333333333332
688,1.3333333333333335
2,21, 1,21, 0, 9,40.00,50.00,Sunday
250,21.165805353401304
251,6612211.928453029
336,0.0
385,21.18333333333335
386,26.340000000000018
387,-0.4996325354266179
388,0.0
425,0.0
450,0.0
451,0.0
452,0.5606492060674959
453,0.0
490,0.0
515,0.0
516,0.0
542,0.0
592,2768379.9392307773
632,3753401.466879416
686,0.6396901760886404
687,0.3333333333333336
688,1.3333333333333344
2,21, 1,21, 0, 9,50.00,60.00,Sunday
250,21.783045094196225
251,7304341.993947964
336,0.0
385,21.85
386,26.34
387,-0.4283122682945781
388,0.0
425,0.0
450,0.0
451,0.0
452,1.0668736695946808
453,0.0
490,0.0
515,0.0
516,0.0
542,0.0
592,4993074.895393722
632,2231244.2230392117
686,1.0
687,1.0
688,2.0
2,21, 1,21, 0,10, 0.00,10.00,Sunday
250,20.77673487544599
251,5310351.441822916
336,0.0
385,20.51666666666667
386,26.34
387,-0.3564470443497269
388,0.0
425,0.0
450,0.0
451,0.0
452,1.5289940265129758
453,0.0
490,0.0
515,0.0
516,0.0
542,0.0
592,2438978.786345807
632,2781048.296595455
686,0.5203658322435324
687,0.3896881276427031
688,1.1666666666666667
2,21, 1,21, 0,10,10.00,20.00,Sunday
250,21.743910790906607
251,7293709.417024748
336,0.0
385,21.85
386,26.34
387,-0.2670670629740631
388,0.0
425,0.0
450,0.0
451,0.0
452,2.05148308228359
453,0.0
490,0.0
515,0.0
516,0.0
542,0.0
592,5059338.70730784
632,2255903.5885964613
686,1.0
687,1.0
688,2.0
2,21, 1,21, 0,10,20.00,30.00,Sunday
250,20.54664068869678
251,5240052.713926485
336,0.0
385,20.51666666666666
386,26.33999999999999
387,-0.16850521125810947
388,0.0
425,0.0
450,0.0
451,0.0
452,2.5945171312081645
453,0.0
490,0.0
515,0.0
516,0.0
542,0.0
592,3393812.9130946836
632,1675887.741925779
686,0.6666666666666664
687,0.6666666666666664
688,1.3333333333333328
2,21, 1,21, 0,10,30.00,40.00,Sunday
250,21.12430317214445
251,4874336.214268001
336,0.0
385,21.183333333333344
386,26.34000000000001
387,-0.020253619250213697
388,0.0
425,0.0
450,0.0
451,0.0
452,3.320608167377018
453,0.0
490,0.0
515,0.0
516,0.0
542,0.0
592,2903251.0536052296
632,2029856.5898529924
686,0.6530976720486563
687,0.3333333333333332
688,1.3333333333333335
2,21, 1,21, 0,10,40.00,50.00,Sunday
250,21.15494311716167
251,6114246.451520162
336,0.0
385,21.18333333333335
386,26.340000000000018
387,0.12504222328611786
388,0.0
425,0.0
450,0.0
451,0.0
452,4.016787369797011
453,0.0
490,0.0
515,0.0
516,0.0
542,0.0
592,2507549.36438467
632,3575504.6787814912
686,0.5428951620331264
687,0.3333333333333336
688,1.3333333333333344
2,21, 1,21, 0,10,50.00,60.00,Sunday
250,21.155131647440072
251,6024021.291588326
336,0.0
385,21.18333333333335
386,26.340000000000018
387,0.2837477163067087
388,0.0
425,0.0
450,0.0
451,0.0
452,4.780359673534661
453,0.0
490,0.0
515,0.0
516,0.0
542,0.0
592,2471954.76930591
632,3523014.012808315
686,0.529199911503064
687,0.3333333333333336
688,1.3333333333333344
2,21, 1,21, 0,11, 0.00,10.00,Sunday
250,21.15368847358159
251,5935878.3220505575
336,0.0
385,21.183333333333334
386,26.34
387,0.45690677473758057
388,0.0
425,0.0
450,0.0
451,0.0
452,5.607135559547629
453,0.0
490,0.0
515,0.0
516,0.0
542,0.0
592,2423228.3277522805
632,3491918.036907341
686,0.5140368285182333
687,0.3333333333333333
688,1.3333333333333335
2,21, 1,21, 0,11,10.00,20.00,Sunday
250,21.152048527314776
251,5840403.781223634
336,0.0
385,21.183333333333334
386,26.339999999999996
387,0.6404980514857698
388,0.0
425,0.0
450,0.0
451,0.0
452,6.477382993402102
453,0.0
490,0.0
515,0.0
516,0.0
542,0.0
592,2369592.2478454425
632,3459311.742410461
686,0.4976923837614217
687,0.33333333333333337
688,1.3333333333333333
2,21, 1,21, 0,11,20.00,30.00,Sunday
250,20.98725950141919
251,4971073.946780268
336,0.0
385,20.85
386,26.34
387,0.7918275149288262
388,0.0
425,0.0
450,0.0
451,0.0
452,7.2515853090119675
453,0.0
490,0.0
515,0.0
516,0.0
542,0.0
592,3797262.09857966
632,1008015.4983765008
686,0.75
687,0.652617281312108
688,1.5
2,21, 1,21, 0,11,30.00,40.00,Sunday
250,20.939469101237552
251,5587834.209611632
336,0.0
385,20.85
386,26.34
387,1.026124876697987
388,0.0
425,0.0
450,0.0
451,0.0
452,8.278612017155874
453,0.0
490,0.0
515,0.0
516,0.0
542,0.0
592,2979887.8838724266
632,2515640.6616562204
686,0.5904843947763997
687,0.5
688,1.25
2,21, 1,21, 0,11,40.00,50.00,Sunday
250,20.942563100598306
251,5418027.23780942
336,0.0
385,20.85
386,26.34
387,1.2558721594794715
388,0.0
425,0.0
450,0.0
451,0.0
452,9.152779821455201
453,0.0
490,0.0
515,0.0
516,0.0
542,0.0
592,2990360.8396653743
632,2339373.179891885
686,0.590479137383644
687,0.5
688,1.25
2,21, 1,21, 0,11,50.00,60.00,Sunday
250,21.21825440909326
251,4285287.6918533845
336,0.0
385,21.18333333333335
386,26.340000000000018
387,1.434223441251757
388,0.0
425,0.0
450,0.0
451,0.0
452,9.802639799146688
453,0.0
490,0.0
515,0.0
516,0.0
542,0.0
592,3301065.927670072
632,977857.033863409
686,0.6666666666666672
687,0.5032292274557375
688,1.3333333333333344
2,21, 1,21, 0,12, 0.00,10.00,Sunday
250,20.846136077481585
251,4348708.498448001
336,0.0
385,20.650000000000006
386,26.340000000000003
387,1.6113086600765438
388,0.0
425,0.0
450,0.0
451,0.0
452,10.368609693691308
453,0.0
490,0.0
515,0.0
516,0.0
542,0.0
592,2290646.805191625
632,2100575.5093872277
686,0.4433271125963545
687,0.4
688,1.0
2,21, 1,21, 0,12,10.00,20.00,Sunday
250,21.109545498594233
251,5855226.7773122005
336,0.0
385,21.183333333333334
386,26.339999999999996
387,1.798748735770086
388,0.0
425,0.0
450,0.0
451,0.0
452,10.861454694606138
453,0.0
490,0.0
515,0.0
516,0.0
542,0.0
592,3335848.402497433
632,2609998.2113821344
686,0.7357868543438524
687,0.33333333333333337
688,1.3333333333333333
2,21, 1,21, 0,12,20.00,30.00,Sunday
250,21.27394087202461
251,4301228.154971024
336,0.0
385,21.183333333333326
386,26.33999999999999
387,2.0528579550214285
388,0.0
425,0.0
450,0.0
451,0.0
452,11.360598920735756
453,0.0
490,0.0
515,0.0
516,0.0
542,0.0
592,3551096.126257873
632,708131.9686446313
686,0.6666666666666664
687,0.6666666666666664
688,1.3333333333333328
2,21, 1,21, 0,12,30.00,40.00,Sunday
250,20.868400074872994
251,4172480.9494204456
336,0.0
385,20.65
386,26.339999999999993
387,2.197782728893567
388,0.0
425,0.0
450,0.0
451,0.0
452,11.572967565686698
453,0.0
490,0.0
515,0.0
516,0.0
542,0.0
592,2172513.471933592
632,2041836.7622347022
686,0.4289453249422425
687,0.34887697862209377
688,0.9999999999999993
2,21, 1,21, 0,12,40.00,50.00,Sunday
250,21.108117461545852
251,5698587.5119619565
336,0.0
385,21.18333333333335
386,26.340000000000018
387,2.3342745269193013
388,0.0
425,0.0
450,0.0
451,0.0
452,11.672396624355589
453,0.0
490,0.0
515,0.0
516,0.0
542,0.0
592,3236552.78731806
632,2561329.609521453
686,0.7068336668870772
687,0.3333333333333336
688,1.3333333333333344
2,21, 1,21, 0,12,50.00,60.00,Sunday
250,21.281977465030415
251,4222249.699700361
336,0.0
385,21.18333333333335
386,26.340000000000018
387,2.505701759618554
388,0.0
425,0.0
450,0.0
451,0.0
452,11.670206528375278
453,0.0
490,0.0
515,0.0
516,0.0
542,0.0
592,3565866.786187471
632,614585.5095559079
686,0.6666666666666672
687,0.6666666666666672
688,1.3333333333333344
2,21, 1,21, 0,13, 0.00,10.00,Sunday
250,20.878323218979787
251,4069998.203503813
336,0.0
385,20.650000000000006
386,26.340000000000003
387,2.596698578141882
388,0.0
425,0.0
450,0.0
451,0.0
452,11.578651291563466
453,0.0
490,0.0
515,0.0
516,0.0
542,0.0
592,2089842.152485846
632,2024199.0164099073
686,0.42046952530992004
687,0.3104659796793696
688,1.0
2,21, 1,21, 0,13,10.00,20.00,Sunday
250,21.106531652494464
251,5529677.426820599
336,0.0
385,21.183333333333334
386,26.339999999999996
387,2.6813719718318887
388,0.0
425,0.0
450,0.0
451,0.0
452,11.486519031285292
453,0.0
490,0.0
515,0.0
516,0.0
542,0.0
592,3126177.0099987276
632,2512471.413244725
686,0.6786067242613223
687,0.33333333333333337
688,1.3333333333333333
2,21, 1,21, 0,13,20.00,30.00,Sunday
250,20.835274097368924
251,5158066.540078207
336,0.0
385,20.85
386,26.34
387,2.7601784276950103
388,0.0
425,0.0
450,0.0
451,0.0
452,11.422548751370032
453,0.0
490,0.0
515,0.0
516,0.0
542,0.0
592,3141707.896130102
632,2091628.112348523
686,0.6222302733134341
687,0.5
688,1.25
2,21, 1,21, 0,13,30.00,40.00,Sunday
250,21.106925118520053
251,5455230.039289123
336,0.0
385,21.18333333333335
386,26.340000000000018
387,2.837778992651719
388,0.0
425,0.0
450,0.0
451,0.0
452,11.38343578752953
453,0.0
490,0.0
515,0.0
516,0.0
542,0.0
592,3088010.1435548025
632,2482391.6617076304
686,0.6699232772763539
687,0.3333333333333336
688,1.3333333333333344
2,21, 1,21, 0,13,40.00,50.00,Sunday
250,20.84732443175815
251,4962150.196000005
336,0.0
385,20.85
386,26.34
387,2.9123158915102203
388,0.0
425,0.0
450,0.0
451,0.0
452,11.36178036462235
453,0.0
490,0.0
515,0.0
516,0.0
542,0.0
592,3080459.2622173363
632,1952957.6892359082
686,0.6075928281614666
687,0.5
688,1.25
2,21, 1,21, 0,13,50.00,60.00,Sunday
250,21.105238175453565
251,5274985.488596475
336,0.0
385,21.18333333333335
386,26.340000000000018
387,2.9867520716987324
388,0.0
425,0.0
450,0.0
451,0.0
452,11.347532885225808
453,0.0
490,0.0
515,0.0
516,0.0
542,0.0
592,2964349.4263221263
632,2436756.168660856
686,0.6393102802012725
687,0.3333333333333336
688,1.3333333333333344
2,21, 1,21, 0,14, 0.00,10.00,Sunday
250,20.852834229809105
251,4851433.524495782
336,0.0
385,20.85
386,26.34
387,3.060163893341212
388,0.0
425,0.0
450,0.0
451,0.0
452,11.305003717626974
453,0.0
490,0.0
515,0.0
516,0.0
542,0.0
592,3051707.6088952743
632,1869403.9966284842
686,0.5990752982375854
687,0.5
688,1.25
2,21, 1,21, 0,14,10.00,20.00,Sunday
250,21.104327274466534
251,5186969.221672985
336,0.0
385,21.183333333333334
386,26.339999999999996
387,3.132634837091893
388,0.0
425,0.0
450,0.0
451,0.0
452,11.199900156030104
453,0.0
490,0.0
515,0.0
516,0.0
542,0.0
592,2913100.443265291
632,2405890.3818002874
686,0.6228115041412005
687,0.33333333333333337
688,1.3333333333333333
2,21, 1,21, 0,14,20.00,30.00,Sunday
250,20.85704450449293
251,4774000.113699101
336,0.0
385,20.85
386,26.34
387,3.1986247704556927
388,0.0
425,0.0
450,0.0
451,0.0
452,11.031491021284218
453,0.0
490,0.0
515,0.0
516,0.0
542,0.0
592,3040553.3400951256
632,1801904.0877048287
686,0.5929481720406956
687,0.5
688,1.25
2,21, 1,21, 0,14,30.00,40.00,Sunday
250,21.103661806456742
251,5126095.789289269
336,0.0
385,21.18333333333335
386,26.340000000000018
387,3.2537644517702184
388,0.0
425,0.0
450,0.0
451,0.0
452,10.774538517082497
453,0.0
490,0.0
515,0.0
516,0.0
542,0.0
592,2879905.0986188604
632,2382382.6265167054
686,0.61110886293733
687,0.3333333333333336
688,1.3333333333333344
2,21, 1,21, 0,14,40.00,50.00,Sunday
250,20.857734637089052
251,4755441.206366412
336,0.0
385,20.85
386,26.34
387,3.2912887433552243
388,0.0
425,0.0
450,0.0
451,0.0
452,10.40590459494323
453,0.0
490,0.0
515,0.0
516,0.0