Program Version,EnergyPlus, Version 24.2.0-94a887817b, YMD=2025.02.04 15:38
1,5,Environment Title[],Latitude[deg],Longitude[deg],Time Zone[],Elevation[m]
2,8,Day of Simulation[],Month[],Day of Month[],DST Indicator[1=yes 0=no],Hour[],StartMinute[],EndMinute[],DayType
3,5,Cumulative Day of Simulation[],Month[],Day of Month[],DST Indicator[1=yes 0=no],DayType  ! When Daily Report Variables Requested
4,2,Cumulative Days of Simulation[],Month[]  ! When Monthly Report Variables Requested
5,1,Cumulative Days of Simulation[] ! When Run Period Report Variables Requested
6,1,Calendar Year of Simulation[] ! When Annual Report Variables Requested
250,1,LIVING ZONE,Zone Air Temperature [C] !TimeStep,REPORTSCH
251,1,LIVING ZONE,Zone Air System Sensible Heating Energy [J] !TimeStep,REPORTSCH
336,1,LIVING ZONE,Zone Air System Sensible Cooling Energy [J] !TimeStep,REPORTSCH
385,1,LIVING ZONE,Zone Thermostat Heating Setpoint Temperature [C] !TimeStep,REPORTSCH
386,1,LIVING ZONE,Zone Thermostat Cooling Setpoint Temperature [C] !TimeStep,REPORTSCH
387,1,GARAGE ZONE,Zone Air Temperature [C] !TimeStep,REPORTSCH
388,1,GARAGE ZONE,Zone Air System Sensible Heating Energy [J] !TimeStep,REPORTSCH
425,1,GARAGE ZONE,Zone Air System Sensible Cooling Energy [J] !TimeStep,REPORTSCH
450,1,GARAGE ZONE,Zone Thermostat Heating Setpoint Temperature [C] !TimeStep,REPORTSCH
451,1,GARAGE ZONE,Zone Thermostat Cooling Setpoint Temperature [C] !TimeStep,REPORTSCH
452,1,ATTIC ZONE,Zone Air Temperature [C] !TimeStep,REPORTSCH
453,1,ATTIC ZONE,Zone Air System Sensible Heating Energy [J] !TimeStep,REPORTSCH
490,1,ATTIC ZONE,Zone Air System Sensible Cooling Energy [J] !TimeStep,REPORTSCH
515,1,ATTIC ZONE,Zone Thermostat Heating Setpoint Temperature [C] !TimeStep,REPORTSCH
516,1,ATTIC ZONE,Zone Thermostat Cooling Setpoint Temperature [C] !TimeStep,REPORTSCH
542,1,ACDXCOIL 1,Cooling Coil Total Cooling Energy [J] !TimeStep,REPORTSCH
592,1,HEAT PUMP DX HEATING COIL 1,Heating Coil Heating Energy [J] !TimeStep,REPORTSCH
632,1,SUPP HEATING COIL 1,Heating Coil Heating Energy [J] !TimeStep,REPORTSCH
686,1,TWOSPEED HEAT PUMP 1,Unitary System DX Coil Cycling Ratio [] !TimeStep,REPORTSCH
687,1,TWOSPEED HEAT PUMP 1,Unitary System DX Coil Speed Ratio [] !TimeStep,REPORTSCH
688,1,TWOSPEED HEAT PUMP 1,Unitary System DX Coil Speed Level [] !TimeStep,REPORTSCH
End of Data Dictionary
1,RUN PERIOD 1,  41.98, -87.92,  -6.00, 201.00
2,21, 1,21, 0, 1, 0.00,10.00,Monday
250,-0.751507576643491
251,38084844.19065535
336,0.0
385,18.084069676601978
386,26.696053981290916
387,-0.9458832887970866
388,0.0
425,0.0
450,0.0
451,0.0
452,-1.973115622579645
453,0.0
490,0.0
515,0.0
516,0.0
542,0.0
592,4839743.985079641
632,32986966.504491795
686,1.0
687,1.0
688,2.0
2,21, 1,21, 0, 1,10.00,20.00,Monday
250,-0.7515835896626083
251,38082734.0233991
336,0.0
385,18.084069676601978
386,26.696053981290916
387,-0.9542482235619587
388,0.0
425,0.0
450,0.0
451,0.0
452,-1.954978070878161
453,0.0
490,0.0
515,0.0
516,0.0
542,0.0
592,4823801.676011793
632,33000000.0
686,1.0
687,1.0
688,2.0
2,21, 1,21, 0, 1,20.00,30.00,Monday
250,-0.7518367176174691
251,38066885.859560154
336,0.0
385,18.084069676601978
386,26.696053981290916
387,-0.9638471989908839
388,0.0
425,0.0
450,0.0
451,0.0
452,-1.951897728838532
453,0.0
490,0.0
515,0.0
516,0.0
542,0.0
592,4807858.16290522
632,33000000.0
686,1.0
687,1.0
688,2.0
2,21, 1,21, 0, 1,30.00,40.00,Monday
250,-0.752083012858723
251,38050937.46972605
336,0.0
385,18.084069676601978
386,26.696053981290916
387,-0.974884938771114
388,0.0
425,0.0
450,0.0
451,0.0
452,-1.9647674191290847
453,0.0
490,0.0
515,0.0
516,0.0
542,0.0
592,4791913.445623511
632,33000000.0
686,1.0
687,1.0
688,2.0
2,21, 1,21, 0, 1,40.00,50.00,Monday
250,-0.7523306576731843
251,38034992.28047759
336,0.0
385,18.084069676601978
386,26.696053981290916
387,-0.9875187814506836
388,0.0
425,0.0
450,0.0
451,0.0
452,-1.9919669689114
453,0.0
490,0.0
515,0.0
516,0.0
542,0.0
592,4775967.524030241
632,33000000.0
686,1.0
687,1.0
688,2.0
2,21, 1,21, 0, 1,50.00,60.00,Monday
250,-0.7525792708899175
251,38019045.681620285
336,0.0
385,18.084069676601978
386,26.696053981290916
387,-1.0019375586350858
388,0.0
425,0.0
450,0.0
451,0.0
452,-2.0319665788239196
453,0.0
490,0.0
515,0.0
516,0.0
542,0.0
592,4760020.397988958
632,33000000.0
686,1.0
687,1.0
688,2.0
2,21, 1,21, 0, 2, 0.00,10.00,Monday
250,-0.7526821500610563
251,38018967.21981656
336,0.0
385,18.084069676601978
386,26.696053981290916
387,-1.017459549086668
388,0.0
425,0.0
450,0.0
451,0.0
452,-2.07872221304623
453,0.0
490,0.0
515,0.0
516,0.0
542,0.0
592,4760020.397988956
632,33000000.0
686,1.0
687,1.0
688,2.0
2,21, 1,21, 0, 2,10.00,20.00,Monday
250,-0.7527809399140307
251,38018965.01803656
336,0.0
385,18.084069676601978
386,26.696053981290916
387,-1.033142648395843
388,0.0
425,0.0
450,0.0
451,0.0
452,-2.121446714147276
453,0.0
490,0.0
515,0.0
516,0.0
542,0.0
592,4760020.397988958
632,33000000.0
686,1.0
687,1.0
688,2.0
2,21, 1,21, 0, 2,20.00,30.00,Monday
250,-0.7528796981387641
251,38018965.000993885
336,0.0
385,18.084069676601978
386,26.696053981290916
387,-1.048433586724235
388,0.0
425,0.0
450,0.0
451,0.0
452,-2.1529109319523014
453,0.0
490,0.0
515,0.0
516,0.0
542,0.0
592,4760020.397988958
632,33000000.0
686,1.0
687,1.0
688,2.0
2,21, 1,21, 0, 2,30.00,40.00,Monday
250,-0.7529765082551836
251,38018963.95207642
336,0.0
385,18.084069676601978
386,26.696053981290916
387,-1.0630110722029908
388,0.0
425,0.0
450,0.0
451,0.0
452,-2.1722925480934534
453,0.0
490,0.0
515,0.0
516,0.0
542,0.0
592,4760020.397988956
632,33000000.0
686,1.0
687,1.0
688,2.0
2,21, 1,21, 0, 2,40.00,50.00,Monday
250,-0.7530718578921608
251,38018963.16571002
336,0.0
385,18.084069676601978
386,26.696053981290916
387,-1.076734587913263
388,0.0
425,0.0
450,0.0
451,0.0
452,-2.182433460042445
453,0.0
490,0.0
515,0.0
516,0.0
542,0.0
592,4760020.397988958
632,33000000.0
686,1.0
687,1.0
688,2.0
2,21, 1,21, 0, 2,50.00,60.00,Monday
250,-0.7531655138184198
251,38018962.25376452
336,0.0
385,18.084069676601978
386,26.696053981290916
387,-1.089566645025618
388,0.0
425,0.0
450,0.0
451,0.0
452,-2.186482078761893
453,0.0
490,0.0
515,0.0
516,0.0
542,0.0
592,4760020.397988956
632,33000000.0
686,1.0
687,1.0
688,2.0
2,21, 1,21, 0, 3, 0.00,10.00,Monday
250,-0.671157886564606
251,37977294.917625666
336,0.0
385,18.084069676601978
386,26.696053981290916
387,-1.0911196425369811
388,0.0
425,0.0
450,0.0
451,0.0
452,-2.17900809179644
453,0.0
490,0.0
515,0.0
516,0.0
542,0.0
592,4762558.894114005
632,33000000.0
686,1.0
687,1.0
688,2.0
2,21, 1,21, 0, 3,10.00,20.00,Monday
250,-0.5875324381368656
251,37978851.54531513
336,0.0
385,18.084069676601978
386,26.696053981290916
387,-1.0800839058707812
388,0.0
425,0.0
450,0.0
451,0.0
452,-2.154035220099551
453,0.0
490,0.0
515,0.0
516,0.0
542,0.0
592,4764988.4357309695
632,33000000.0
686,1.0
687,1.0
688,2.0
2,21, 1,21, 0, 3,20.00,30.00,Monday
250,-0.5046128201022781
251,37964957.9342389
336,0.0
385,18.084069676601978
386,26.696053981290916
387,-1.0608699412439961
388,0.0
425,0.0
450,0.0
451,0.0
452,-2.1101138744453825
453,0.0
490,0.0
515,0.0
516,0.0
542,0.0
592,4767308.250738333
632,32983408.380427152
686,1.0
687,1.0
688,2.0
2,21, 1,21, 0, 3,30.00,40.00,Monday
250,-0.42181133079986505
251,37921952.47963068
336,0.0
385,18.084069676601978
386,26.696053981290916
387,-1.0372745286678573
388,0.0
425,0.0
450,0.0
451,0.0
452,-2.050375285312131
453,0.0
490,0.0
515,0.0
516,0.0
542,0.0
592,4769517.689516207
632,32938131.736696005
686,1.0
687,1.0
688,2.0
2,21, 1,21, 0, 3,40.00,50.00,Monday
250,-0.3389828488517601
251,37878941.30002339
336,0.0
385,18.084069676601978
386,26.696053981290916
387,-1.0106067369426783
388,0.0
425,0.0
450,0.0
451,0.0
452,-1.9793035501272562
453,0.0
490,0.0
515,0.0
516,0.0
542,0.0
592,4771616.115684973
632,32893038.540746957
686,1.0
687,1.0
688,2.0
2,21, 1,21, 0, 3,50.00,60.00,Monday
250,-0.25613416650403087
251,37835926.11220624
336,0.0
385,18.084069676601978
386,26.696053981290916
387,-0.9806457776404474
388,0.0
425,0.0
450,0.0
451,0.0
452,-1.9005173833072675
453,0.0
490,0.0
515,0.0
516,0.0
542,0.0
592,4773602.736238394
632,32848049.498034395
686,1.0
687,1.0
688,2.0
2,21, 1,21, 0, 4, 0.00,10.00,Monday
250,-0.2553417614822001
251,37837110.29621088
336,0.0
385,18.084069676601978
386,26.696053981290916
387,-0.9579225672684271
388,0.0
425,0.0
450,0.0
451,0.0
452,-1.8243048302656097
453,0.0
490,0.0
515,0.0
516,0.0
542,0.0
592,4773428.98237163
632,32805216.64735393
686,1.0
687,1.0
688,2.0
2,21, 1,21, 0, 4,10.00,20.00,Monday
250,-0.2557764008588334
251,37837405.17918739
336,0.0
385,18.084069676601978
386,26.696053981290916
387,-0.9452932436275197
388,0.0
425,0.0
450,0.0
451,0.0
452,-1.7597048631107668
453,0.0
490,0.0
515,0.0
516,0.0
542,0.0
592,4773255.169447958
632,32805024.498975147
686,1.0
687,1.0
688,2.0
2,21, 1,21, 0, 4,20.00,30.00,Monday
250,-0.25561445366652347
251,37837347.63926131
336,0.0
385,18.084069676601978
386,26.696053981290916
387,-0.9392880009702149
388,0.0
425,0.0
450,0.0
451,0.0
452,-1.7103225926157075
453,0.0
490,0.0
515,0.0
516,0.0
542,0.0
592,4773081.29743726
632,32805462.132648006
686,1.0
687,1.0
688,2.0
2,21, 1,21, 0, 4,30.00,40.00,Monday
250,-0.25557547569226163
251,37837367.574197404
336,0.0
385,18.084069676601978
386,26.696053981290916
387,-0.9360448652875438
388,0.0
425,0.0
450,0.0
451,0.0
452,-1.674500164849606
453,0.0
490,0.0
515,0.0
516,0.0
542,0.0
592,4772907.3663094025
632,32805589.771585573
686,1.0
687,1.0
688,2.0
2,21, 1,21, 0, 4,40.00,50.00,Monday
250,-0.2555461204288746
251,37837390.53636027
336,0.0
385,18.084069676601978
386,26.696053981290916
387,-0.9337684883724142
388,0.0
425,0.0
450,0.0
451,0.0
452,-1.6485676833381395
453,0.0
490,0.0
515,0.0
516,0.0
542,0.0
592,4772733.376034234
632,32805781.541560758
686,1.0
687,1.0
688,2.0
2,21, 1,21, 0, 4,50.00,60.00,Monday
250,-0.2555157007284535
251,37837412.75617633
336,0.0
385,18.084069676601978
386,26.696053981290916
387,-0.9322706568052018
388,0.0
425,0.0
450,0.0
451,0.0
452,-1.6294664549511093
453,0.0
490,0.0
515,0.0
516,0.0
542,0.0
592,4772559.326581575
632,32805978.384117942
686,1.0
687,1.0
688,2.0
2,21, 1,21, 0, 5, 0.00,10.00,Monday
250,-0.25548708488899124
251,37837435.99254743
336,0.0
385,18.084069676601978
386,26.696053981290916
387,-0.931603422999772
388,0.0
425,0.0
450,0.0
451,0.0
452,-1.614580720979164
453,0.0
490,0.0
515,0.0
516,0.0
542,0.0
592,4759720.858689581
632,32818839.116893947
686,1.0
687,1.0
688,2.0
2,21, 1,21, 0, 5,10.00,20.00,Monday
250,-0.2554475415067606
251,37838722.70548528
336,0.0
385,18.084069676601978
386,26.696053981290916
387,-0.9316313073425989
388,0.0
425,0.0
450,0.0
451,0.0
452,-1.6015997409380835
453,0.0
490,0.0
515,0.0
516,0.0
542,0.0
592,4746877.262331865
632,32832975.312162846
686,1.0
687,1.0
688,2.0
2,21, 1,21, 0, 5,20.00,30.00,Monday
250,-0.25540775229678514
251,37840035.25413026
336,0.0
385,18.084069676601978
386,26.696053981290916
387,-0.932125727556796
388,0.0
425,0.0
450,0.0
451,0.0
452,-1.5891218851925784
453,0.0
490,0.0
515,0.0
516,0.0
542,0.0
592,4734028.534436013
632,32847136.72185899
686,1.0
687,1.0
688,2.0
2,21, 1,21, 0, 5,30.00,40.00,Monday
250,-0.2553681096411266
251,37841339.22581878
336,0.0
385,18.084069676601978
386,26.696053981290916
387,-0.9328832740464704
388,0.0
425,0.0
450,0.0
451,0.0
452,-1.576713759392995
453,0.0
490,0.0
515,0.0
516,0.0
542,0.0
592,4721174.671927155
632,32861294.477869064
686,1.0
687,1.0
688,2.0
2,21, 1,21, 0, 5,40.00,50.00,Monday
250,-0.25532816093111416
251,37842645.33566222
336,0.0
385,18.084069676601978
386,26.696053981290916
387,-0.9337677588042302
388,0.0
425,0.0
450,0.0
451,0.0
452,-1.5644441781022778
453,0.0
490,0.0
515,0.0
516,0.0
542,0.0
592,4708315.671727969
632,32875459.753515318
686,1.0
687,1.0
688,2.0
2,21, 1,21, 0, 5,50.00,60.00,Monday
250,-0.2552882369802748
251,37843952.135687254
336,0.0
385,18.084069676601978
386,26.696053981290916
387,-0.93469984036331
388,0.0
425,0.0
450,0.0
451,0.0
452,-1.5524641627538314
453,0.0
490,0.0
515,0.0
516,0.0
542,0.0
592,4695451.530758675
632,32889630.681928083
686,1.0
687,1.0
688,2.0
2,21, 1,21, 0, 6, 0.00,10.00,Monday
250,-0.25524676865214974
251,37845258.605845295
336,0.0
385,18.084069676601978
386,26.696053981290916
387,-0.9357661377909673
388,0.0
425,0.0
450,0.0
451,0.0
452,-1.541470076404278
453,0.0
490,0.0
515,0.0
516,0.0
542,0.0
592,4695264.082255858
632,32891125.43327279
686,1.0
687,1.0
688,2.0
2,21, 1,21, 0, 6,10.00,20.00,Monday
250,-0.2552166335522439
251,37845300.62022737
336,0.0
385,18.084069676601978
386,26.696053981290916
387,-0.9370501272376516
388,0.0
425,0.0
450,0.0
451,0.0
452,-1.5322754674998458
453,0.0
490,0.0
515,0.0
516,0.0
542,0.0
592,4695076.569900009
632,32891348.855026133
686,1.0
687,1.0
688,2.0
2,21, 1,21, 0, 6,20.00,30.00,Monday
250,-0.2551868075677018
251,37845317.33185223
336,0.0
385,18.084069676601978
386,26.696053981290916
387,-0.9385461590820436
388,0.0
425,0.0
450,0.0
451,0.0
452,-1.5252061463794864
453,0.0
490,0.0
515,0.0
516,0.0
542,0.0
592,4694888.993658494
632,32891552.9763912
686,1.0
687,1.0
688,2.0
2,21, 1,21, 0, 6,30.00,40.00,Monday
250,-0.2551565568513223
251,37845343.02343378
336,0.0
385,18.084069676601978
386,26.696053981290916
387,-0.9402121852309306
388,0.0
425,0.0
450,0.0
451,0.0
452,-1.5200552695614085
453,0.0
490,0.0
515,0.0
516,0.0
542,0.0
592,4694701.35349866
632,32891766.536946744
686,1.0
687,1.0
688,2.0
2,21, 1,21, 0, 6,40.00,50.00,Monday
250,-0.25512601959145376
251,37845366.79656041
336,0.0
385,18.084069676601978
386,26.696053981290916
387,-0.942016246950188
388,0.0
425,0.0
450,0.0
451,0.0
452,-1.516373368047835
453,0.0
490,0.0
515,0.0
516,0.0
542,0.0
592,4694513.649387832
632,32891978.16855812
686,1.0
687,1.0
688,2.0
2,21, 1,21, 0, 6,50.00,60.00,Monday
250,-0.25509513623616414
251,37845390.24769513
336,0.0
385,18.084069676601978
386,26.696053981290916
387,-0.9439411762341924
388,0.0
425,0.0
450,0.0
451,0.0
452,-1.513740355070991
453,0.0
490,0.0
515,0.0
516,0.0
542,0.0
592,4694325.88129331
632,32892189.574241333
686,1.0
687,1.0
688,2.0
2,21, 1,21, 0, 7, 0.00,10.00,Monday
250,-0.2558848416817723
251,37845855.77825598
336,0.0
385,18.084069676601978
386,26.696053981290916
387,-0.9484095068576187
388,0.0
425,0.0
450,0.0
451,0.0
452,-1.5170236387568137
453,0.0
490,0.0
515,0.0
516,0.0
542,0.0
592,4723573.583255435
632,32862965.36322667
686,1.0
687,1.0
688,2.0
2,21, 1,21, 0, 7,10.00,20.00,Monday
250,-0.25585949160779714
251,37842952.672063
336,0.0
385,18.084069676601978
386,26.696053981290916
387,-0.9575948702456234
388,0.0
425,0.0
450,0.0
451,0.0
452,-1.5356962804322267
453,0.0
490,0.0
515,0.0
516,0.0
542,0.0
592,4752837.186047653
632,32831237.71212919
686,1.0
687,1.0
688,2.0
2,21, 1,21, 0, 7,20.00,30.00,Monday
250,-0.25581015508517935
251,37839976.35116536
336,0.0
385,18.084069676601978
386,26.696053981290916
387,-0.9717378420054936
388,0.0
425,0.0
450,0.0
451,0.0
452,-1.575128788615784
453,0.0
490,0.0
515,0.0
516,0.0
542,0.0
592,4782116.702651946
632,32798994.79273141
686,1.0
687,1.0
688,2.0
2,21, 1,21, 0, 7,30.00,40.00,Monday
250,-0.25576648609341746
251,37837022.68668495
336,0.0
385,18.084069676601978
386,26.696053981290916
387,-0.9898831804622442
388,0.0
425,0.0
450,0.0
451,0.0
452,-1.6329389202833342
453,0.0
490,0.0
515,0.0
516,0.0
542,0.0
592,4811412.146064443
632,32766742.630469196
686,1.0
687,1.0
688,2.0
2,21, 1,21, 0, 7,40.00,50.00,Monday
250,-0.2557208844391062
251,37834062.29820534
336,0.0
385,18.084069676601978
386,26.696053981290916
387,-1.0109519533191242
388,0.0
425,0.0
450,0.0
451,0.0
452,-1.7028719200676599
453,0.0
490,0.0
515,0.0
516,0.0
542,0.0
592,4840723.529295459
632,32734471.897709846
686,1.0
687,1.0
688,2.0
2,21, 1,21, 0, 7,50.00,60.00,Monday
250,-0.25567455021621044
251,37831099.58354587
336,0.0
385,18.084069676601978
386,26.696053981290916
387,-1.03419706656519
388,0.0
425,0.0
450,0.0
451,0.0
452,-1.7792342115719586
453,0.0
490,0.0
515,0.0
516,0.0
542,0.0
592,4870050.865369482
632,32702182.239541203
686,1.0
687,1.0
688,2.0
2,21, 1,21, 0, 8, 0.00,10.00,Monday
250,-0.055337091434696166
251,37720291.45672325
336,0.0
385,18.084069676601978
386,26.696053981290916
387,-1.0303077637560094
388,0.0
425,0.0
450,0.0
451,0.0
452,-1.8381870962451894
453,0.0
490,0.0
515,0.0
516,0.0
542,0.0
592,4889730.300311493
632,32679538.55909119
686,1.0
687,1.0
688,2.0
2,21, 1,21, 0, 8,10.00,20.00,Monday
250,0.1451233850632338
251,37614652.99395593
336,0.0
385,18.084069676601978
386,26.696053981290916
387,-0.9887605324702524
388,0.0
425,0.0
450,0.0
451,0.0
452,-1.8293542721062828
453,0.0
490,0.0
515,0.0
516,0.0
542,0.0
592,4909380.719869504
632,32554322.50439212
686,1.0
687,1.0
688,2.0
2,21, 1,21, 0, 8,20.00,30.00,Monday
250,0.3438868126195887
251,37510032.17615479
336,0.0
385,18.084069676601978
386,26.696053981290916
387,-0.9177494126585971
388,0.0
425,0.0
450,0.0
451,0.0
452,-1.7219569883382866
453,0.0
490,0.0
515,0.0
516,0.0
542,0.0
592,4929009.6156952735
632,32429165.85177011
686,1.0
687,1.0
688,2.0
2,21, 1,21, 0, 8,30.00,40.00,Monday
250,0.5431342816550355
251,37405111.91725277
336,0.0
385,18.084069676601978
386,26.696053981290916
387,-0.8274481896274645
388,0.0
425,0.0
450,0.0
451,0.0
452,-1.5263911881028431
453,0.0
490,0.0
515,0.0
516,0.0
542,0.0
592,4952863.6467726575
632,32300659.033008453
686,1.0
687,1.0
688,2.0
2,21, 1,21, 0, 8,40.00,50.00,Monday
250,0.7424574869858792
251,37299746.23559599
336,0.0
385,18.084069676601978
386,26.696053981290916
387,-0.7258291494597632
388,0.0
425,0.0
450,0.0
451,0.0
452,-1.2508226696139806
453,0.0
490,0.0
515,0.0
516,0.0
542,0.0
592,4977062.298687914
632,32171141.17691392
686,1.0
687,1.0
688,2.0
2,21, 1,21, 0, 8,50.00,60.00,Monday
250,0.9424014361265662
251,37194976.39637526
336,0.0
385,18.084069676601978
386,26.696053981290916
387,-0.6299392893659408
388,0.0
425,0.0
450,0.0
451,0.0
452,-0.9378317489344219
453,0.0
490,0.0
515,0.0
516,0.0
542,0.0
592,5001395.306277513
632,31989182.596185096
686,1.0
687,1.0
688,2.0
2,21, 1,21, 0, 9, 0.00,10.00,Monday
250,1.2080347290833595
251,37055866.7558859
336,0.0
385,18.084069676601978
386,26.696053981290916
387,-0.4915457853794797
388,0.0
425,0.0
450,0.0
451,0.0
452,-0.4583978295023179
453,0.0
490,0.0
515,0.0
516,0.0
542,0.0
592,5029363.153609448
632,31838787.709656224
686,1.0
687,1.0
688,2.0
2,21, 1,21, 0, 9,10.00,20.00,Monday
250,1.4735853760072097
251,36915851.91282922
336,0.0
385,18.084069676601978
386,26.696053981290916
387,-0.3407541220768464
388,0.0
425,0.0
450,0.0
451,0.0
452,0.06582779009115587
453,0.0
490,0.0
515,0.0
516,0.0
542,0.0
592,5057356.862312016
632,31670761.287537865
686,1.0
687,1.0
688,2.0
2,21, 1,21, 0, 9,20.00,30.00,Monday
250,1.7392548014376104
251,36775768.25279409
336,0.0
385,18.084069676601978
386,26.696053981290916
387,-0.18085073281707614
388,0.0
425,0.0
450,0.0
451,0.0
452,0.6305213146624635
453,0.0
490,0.0
515,0.0
516,0.0
542,0.0
592,5085392.284952975
632,31502674.724590205
686,1.0
687,1.0
688,2.0
2,21, 1,21, 0, 9,30.00,40.00,Monday
250,2.004873894775299
251,36635709.75823291
336,0.0
385,18.084069676601978
386,26.696053981290916
387,-0.011105211336021345
388,0.0
425,0.0
450,0.0
451,0.0
452,1.2251502245238266
453,0.0
490,0.0
515,0.0
516,0.0
542,0.0
592,5113485.892141593
632,31334510.395372655
686,1.0
687,1.0
688,2.0
2,21, 1,21, 0, 9,40.00,50.00,Monday
250,2.2707287706518025
251,36494535.908739805
336,0.0
385,18.08406967660199
386,26.696053981290937
387,0.13406314709906436
388,0.0
425,0.0
450,0.0
451,0.0
452,1.726876408362679
453,0.0
490,0.0
515,0.0
516,0.0
542,0.0
592,5141654.529350725
632,31141754.70306785
686,1.0000000000000009
687,1.0000000000000009
688,2.0000000000000018
2,21, 1,21, 0, 9,50.00,60.00,Monday
250,2.53671535768508
251,36353742.787351854
336,0.0
385,18.084069676601978
386,26.696053981290916
387,0.28621657082521756
388,0.0
425,0.0
450,0.0
451,0.0
452,2.2673979269848767
453,0.0
490,0.0
515,0.0
516,0.0
542,0.0
592,5169915.672059793
632,30997461.647811707
686,1.0
687,1.0
688,2.0
2,21, 1,21, 0,10, 0.00,10.00,Monday
250,2.9996611450159136
251,36108110.20044233
336,0.0
385,18.084069676601978
386,26.696053981290916
387,0.47669063800729805
388,0.0
425,0.0
450,0.0
451,0.0
452,2.8267240570696535
453,0.0
490,0.0
515,0.0
516,0.0
542,0.0
592,5241404.10703412
632,30691038.467995536
686,1.0
687,1.0
688,2.0
2,21, 1,21, 0,10,10.00,20.00,Monday
250,3.4635672365552588
251,35862578.72524136
336,0.0
385,18.084069676601978
386,26.696053981290916
387,0.7677342154119806
388,0.0
425,0.0
450,0.0
451,0.0
452,3.5816142083654317
453,0.0
490,0.0
515,0.0
516,0.0
542,0.0
592,5315291.857316207
632,30370746.393554002
686,1.0
687,1.0
688,2.0
2,21, 1,21, 0,10,20.00,30.00,Monday
250,3.9277532124831978
251,35615629.95192522
336,0.0
385,18.08406967660197
386,26.696053981290905
387,1.048114302810246
388,0.0
425,0.0
450,0.0
451,0.0
452,4.270567010906801
453,0.0
490,0.0
515,0.0
516,0.0
542,0.0
592,5391793.298050372
632,30047388.886809513
686,0.9999999999999996
687,0.9999999999999996
688,1.9999999999999991
2,21, 1,21, 0,10,30.00,40.00,Monday
250,4.392104991717733
251,35368458.2077058
336,0.0
385,18.084069676601985
386,26.696053981290927
387,1.3298731365605865
388,0.0
425,0.0
450,0.0
451,0.0
452,4.972410582953057
453,0.0
490,0.0
515,0.0
516,0.0
542,0.0
592,5471132.199313744
632,29720952.53261406
686,1.0000000000000004
687,1.0000000000000004
688,2.000000000000001
2,21, 1,21, 0,10,40.00,50.00,Monday
250,4.8566869829013815
251,35121021.76604851
336,0.0
385,18.08406967660199
386,26.696053981290937
387,1.6200041585596123
388,0.0
425,0.0
450,0.0
451,0.0
452,5.736487510857933
453,0.0
490,0.0
515,0.0
516,0.0
542,0.0
592,5553542.3757593315
632,29391194.05380509
686,1.0000000000000009
687,1.0000000000000009
688,2.0000000000000018
2,21, 1,21, 0,10,50.00,60.00,Monday
250,5.321281997324702
251,34873430.931478575
336,0.0
385,18.08406967660199
386,26.696053981290937
387,1.920221435160538
388,0.0
425,0.0
450,0.0
451,0.0
452,6.565543649499691
453,0.0
490,0.0
515,0.0
516,0.0
542,0.0
592,5639267.778995938
632,29057929.14554546
686,1.0000000000000009
687,1.0000000000000009
688,2.0000000000000018
2,21, 1,21, 0,11, 0.00,10.00,Monday
250,5.604782404786316
251,34722571.69282053
336,0.0
385,18.084069676601978
386,26.696053981290916
387,2.2067244009570968
388,0.0
425,0.0
450,0.0
451,0.0
452,7.420760597563724
453,0.0
490,0.0
515,0.0
516,0.0
542,0.0
592,5689519.861596226
632,28824530.114025153
686,1.0
687,1.0
688,2.0
2,21, 1,21, 0,11,10.00,20.00,Monday
250,5.887549481280486
251,34572048.07241592
336,0.0
385,18.084069676601978
386,26.696053981290916
387,2.476489951462284
388,0.0
425,0.0
450,0.0
451,0.0
452,8.2712811451862
453,0.0
490,0.0
515,0.0
516,0.0
542,0.0
592,5740969.350869594
632,28622439.4440912
686,1.0
687,1.0
688,2.0
2,21, 1,21, 0,11,20.00,30.00,Monday
250,6.170373299016671
251,34421444.762485534
336,0.0
385,18.08406967660197
386,26.696053981290905
387,2.748647438669289
388,0.0
425,0.0
450,0.0
451,0.0
452,9.117886592582146
453,0.0
490,0.0
515,0.0
516,0.0
542,0.0
592,5793671.095282217
632,28419161.108511053
686,0.9999999999999996
687,0.9999999999999996
688,1.9999999999999991
2,21, 1,21, 0,11,30.00,40.00,Monday
250,6.452930475614792
251,34270932.31478447
336,0.0
385,18.084069676601985
386,26.696053981290927
387,3.0259800238692396
388,0.0
425,0.0
450,0.0
451,0.0
452,9.93973764262344
453,0.0
490,0.0
515,0.0
516,0.0
542,0.0
592,5847681.4279665835
632,28214607.801492147
686,1.0000000000000004
687,1.0000000000000004
688,2.000000000000001
2,21, 1,21, 0,11,40.00,50.00,Monday
250,6.73537219984388
251,34120428.2033753
336,0.0
385,18.08406967660199
386,26.696053981290937
387,3.3050861569846637
388,0.0
425,0.0
450,0.0
451,0.0
452,10.685286518278698
453,0.0
490,0.0
515,0.0
516,0.0
542,0.0
592,5903058.082199926
632,28008724.18781472
686,1.0000000000000009
687,1.0000000000000009
688,2.0000000000000018
2,21, 1,21, 0,11,50.00,60.00,Monday
250,7.017657868712956
251,33969952.851799384
336,0.0
385,18.08406967660199
386,26.696053981290937
387,3.582113287653181
388,0.0
425,0.0
450,0.0
451,0.0
452,11.321080831829136
453,0.0
490,0.0
515,0.0
516,0.0
542,0.0
592,5959860.237244541
632,27801437.017643802
686,1.0000000000000009
687,1.0000000000000009
688,2.0000000000000018
2,21, 1,21, 0,12, 0.00,10.00,Monday
250,7.284321396810734
251,33827831.93683156
336,0.0
385,18.084069676601978
386,26.696053981290916
387,3.822114682035868
388,0.0
425,0.0
450,0.0
451,0.0
452,11.82020306742329
453,0.0
490,0.0
515,0.0
516,0.0
542,0.0
592,5991096.197635709
632,27650611.44208047
686,1.0
687,1.0
688,2.0
2,21, 1,21, 0,12,10.00,20.00,Monday
250,7.549409767614037
251,33690036.45244976
336,0.0
385,18.084069676601978
386,26.696053981290916
387,4.114505319438007
388,0.0
425,0.0
450,0.0
451,0.0
452,12.384191526673936
453,0.0
490,0.0
515,0.0
516,0.0
542,0.0
592,7572016.881221028
632,25930044.578364767
686,1.0
687,1.0
688,2.0
2,21, 1,21, 0,12,20.00,30.00,Monday
250,7.815288663901034
251,33550099.170662344
336,0.0
385,18.084069676601978
386,26.696053981290916
387,4.383625699868908
388,0.0
425,0.0
450,0.0
451,0.0
452,12.899337897402525
453,0.0
490,0.0
515,0.0
516,0.0
542,0.0
592,7609409.155487607
632,25752917.365446493
686,1.0
687,1.0
688,2.0
2,21, 1,21, 0,12,30.00,40.00,Monday
250,8.081066870825984
251,33410217.64706267
336,0.0
385,18.084069676601978
386,26.696053981290916
387,4.6424421833478355
388,0.0
425,0.0
450,0.0
451,0.0
452,13.391041298086293
453,0.0
490,0.0
515,0.0
516,0.0
542,0.0
592,7646583.592010484
632,25575834.14858426
686,1.0
687,1.0
688,2.0
2,21, 1,21, 0,12,40.00,50.00,Monday
250,8.346810244190486
251,33270354.590076152
336,0.0
385,18.084069676601978
386,26.696053981290916
387,4.896871097052367
388,0.0
425,0.0
450,0.0
451,0.0
452,13.833012049128133
453,0.0
490,0.0
515,0.0
516,0.0
542,0.0
592,7683540.190789655
632,25399005.2601548
686,1.0
687,1.0
688,2.0
2,21, 1,21, 0,12,50.00,60.00,Monday
250,8.612542792637143
251,33130496.584785722
336,0.0
385,18.084069676601978
386,26.696053981290916
387,5.145820142167313
388,0.0
425,0.0
450,0.0
451,0.0
452,14.200799766629563
453,0.0
490,0.0
515,0.0
516,0.0
542,0.0
592,7720278.951825123
632,25222406.06877611
686,1.0
687,1.0
688,2.0
2,21, 1,21, 0,13, 0.00,10.00,Monday
250,8.795445416464284
251,33031886.300946213
336,0.0
385,18.084069676601978
386,26.696053981290916
387,5.378210239568305
388,0.0
425,0.0
450,0.0
451,0.0
452,14.492046863988017
453,0.0
490,0.0
515,0.0
516,0.0
542,0.0
592,7745410.487127085
632,25124002.85540252
686,1.0
687,1.0
688,2.0
2,21, 1,21, 0,13,10.00,20.00,Monday
250,8.977893979597226
251,32937465.862158902
336,0.0
385,18.084069676601978
386,26.696053981290916
387,5.597001239611498
388,0.0
425,0.0
450,0.0
451,0.0
452,14.721301058433873
453,0.0
490,0.0
515,0.0
516,0.0
542,0.0
592,7770439.060057994
632,25006614.329955235
686,1.0
687,1.0
688,2.0
2,21, 1,21, 0,13,20.00,30.00,Monday
250,9.160945870977157
251,32842837.718361706
336,0.0
385,18.084069676601978
386,26.696053981290916
387,5.801906928996926
388,0.0
425,0.0
450,0.0
451,0.0
452,14.904477057601499
453,0.0
490,0.0
515,0.0
516,0.0
542,0.0
592,7795364.6706178645
632,24887398.79588066
686,1.0
687,1.0
688,2.0
2,21, 1,21, 0,13,30.00,40.00,Monday
250,9.343810620134072
251,32748339.89999533
336,0.0
385,18.084069676601978
386,26.696053981290916
387,5.99694700595871
388,0.0
425,0.0
450,0.0
451,0.0
452,15.053345018079558
453,0.0
490,0.0
515,0.0
516,0.0
542,0.0
592,7820187.318806681
632,24767990.021383014
686,1.0
687,1.0
688,2.0
2,21, 1,21, 0,13,40.00,50.00,Monday
250,9.526682070118353
251,32653872.0244831
336,0.0
385,18.084069676601978
386,26.696053981290916
387,6.18587165891748
388,0.0
425,0.0
450,0.0
451,0.0
452,15.17266679459718
453,0.0
490,0.0
515,0.0
516,0.0
542,0.0
592,7844907.0046244515
632,24648818.974030104
686,1.0
687,1.0
688,2.0
2,21, 1,21, 0,13,50.00,60.00,Monday
250,9.709544767045108
251,32559442.014379647
336,0.0
385,18.084069676601978
386,26.696053981290916
387,6.369981077750491
388,0.0
425,0.0
450,0.0
451,0.0
452,15.266078090390728
453,0.0
490,0.0
515,0.0
516,0.0
542,0.0
592,7869523.728071173
632,24529780.588392664
686,1.0
687,1.0
688,2.0
2,21, 1,21, 0,14, 0.00,10.00,Monday
250,9.909447407692708
251,32455841.730892166
336,0.0
385,18.084069676601978
386,26.696053981290916
387,6.552114007895254
388,0.0
425,0.0
450,0.0
451,0.0
452,15.322179691378063
453,0.0
490,0.0
515,0.0
516,0.0
542,0.0
592,7896260.907308879
632,24408659.91927155
686,1.0
687,1.0
688,2.0
2,21, 1,21, 0,14,10.00,20.00,Monday
250,10.108908555598816
251,32352084.808574874
336,0.0
385,18.084069676601978
386,26.696053981290916
387,6.732402126446852
388,0.0
425,0.0
450,0.0
451,0.0
452,15.322652453730218
453,0.0
490,0.0
515,0.0
516,0.0
542,0.0
592,7922875.552815756
632,24278063.133166373
686,1.0
687,1.0
688,2.0
2,21, 1,21, 0,14,20.00,30.00,Monday
250,10.308229741168278
251,32248415.285961445
336,0.0
385,18.084069676601978
386,26.696053981290916
387,6.908687929404592
388,0.0
425,0.0
450,0.0
451,0.0
452,15.26702908911507
453,0.0
490,0.0
515,0.0
516,0.0
542,0.0
592,7949367.664591794
632,24147839.25094279
686,1.0
687,1.0
688,2.0
2,21, 1,21, 0,14,30.00,40.00,Monday
250,10.507459229606471
251,32144820.67303834
336,0.0
385,18.084069676601978
386,26.696053981290916
387,7.075019600390129
388,0.0
425,0.0
450,0.0
451,0.0
452,15.144784481285493
453,0.0
490,0.0
515,0.0
516,0.0
542,0.0
592,7975737.242637001
632,24017839.04624416
686,1.0
687,1.0
688,2.0
2,21, 1,21, 0,14,40.00,50.00,Monday
250,10.70660654760974
251,32041292.32965943
336,0.0
385,18.084069676601978
386,26.696053981290916
387,7.227703474313981
388,0.0
425,0.0
450,0.0
451,0.0
452,14.936197797807226
453,0.0
490,0.0
515,0.0
516,0.0
542,0.0
592,8001984.286951375
632,23888032.944747455
686,1.0
687,1.0
688,2.0
2,21, 1,21, 0,14,50.00,60.00,Monday
250,10.905696986493885
251,31937817.158004493
336,0.0
385,18.084069676601978
386,26.696053981290916
387,7.367029649727632
388,0.0
425,0.0
450,0.0
451,0.0
452,14.644308444728768
453,0.0
490,0.0
515,0.0
516,0.0
542,0.0
592,8028108.797534912
632,23758416.3739888
686,1.0
687,1.0
688,2.0
2,21, 1,21, 0,15, 0.00,10.00,Monday
250,11.171210435917514
251,31799193.958319087
336,0.0
385,18.084069676601978
386,26.696053981290916
387,7.488000986321497
388,0.0
425,0.0
450,0.0
451,0.0