Program Version,EnergyPlus, Version 24.2.0-94a887817b, YMD=2025.01.21 23:16
1,5,Environment Title[],Latitude[deg],Longitude[deg],Time Zone[],Elevation[m]
2,8,Day of Simulation[],Month[],Day of Month[],DST Indicator[1=yes 0=no],Hour[],StartMinute[],EndMinute[],DayType
3,5,Cumulative Day of Simulation[],Month[],Day of Month[],DST Indicator[1=yes 0=no],DayType  ! When Daily Report Variables Requested
4,2,Cumulative Days of Simulation[],Month[]  ! When Monthly Report Variables Requested
5,1,Cumulative Days of Simulation[] ! When Run Period Report Variables Requested
6,1,Calendar Year of Simulation[] ! When Annual Report Variables Requested
250,1,LIVING ZONE,Zone Air Temperature [C] !TimeStep,REPORTSCH
251,1,LIVING ZONE,Zone Air System Sensible Heating Energy [J] !TimeStep,REPORTSCH
336,1,LIVING ZONE,Zone Air System Sensible Cooling Energy [J] !TimeStep,REPORTSCH
385,1,LIVING ZONE,Zone Thermostat Heating Setpoint Temperature [C] !TimeStep,REPORTSCH
386,1,LIVING ZONE,Zone Thermostat Cooling Setpoint Temperature [C] !TimeStep,REPORTSCH
387,1,GARAGE ZONE,Zone Air Temperature [C] !TimeStep,REPORTSCH
388,1,GARAGE ZONE,Zone Air System Sensible Heating Energy [J] !TimeStep,REPORTSCH
425,1,GARAGE ZONE,Zone Air System Sensible Cooling Energy [J] !TimeStep,REPORTSCH
450,1,GARAGE ZONE,Zone Thermostat Heating Setpoint Temperature [C] !TimeStep,REPORTSCH
451,1,GARAGE ZONE,Zone Thermostat Cooling Setpoint Temperature [C] !TimeStep,REPORTSCH
452,1,ATTIC ZONE,Zone Air Temperature [C] !TimeStep,REPORTSCH
453,1,ATTIC ZONE,Zone Air System Sensible Heating Energy [J] !TimeStep,REPORTSCH
490,1,ATTIC ZONE,Zone Air System Sensible Cooling Energy [J] !TimeStep,REPORTSCH
515,1,ATTIC ZONE,Zone Thermostat Heating Setpoint Temperature [C] !TimeStep,REPORTSCH
516,1,ATTIC ZONE,Zone Thermostat Cooling Setpoint Temperature [C] !TimeStep,REPORTSCH
542,1,ACDXCOIL 1,Cooling Coil Total Cooling Energy [J] !TimeStep,REPORTSCH
592,1,HEAT PUMP DX HEATING COIL 1,Heating Coil Heating Energy [J] !TimeStep,REPORTSCH
632,1,SUPP HEATING COIL 1,Heating Coil Heating Energy [J] !TimeStep,REPORTSCH
686,1,TWOSPEED HEAT PUMP 1,Unitary System DX Coil Cycling Ratio [] !TimeStep,REPORTSCH
687,1,TWOSPEED HEAT PUMP 1,Unitary System DX Coil Speed Ratio [] !TimeStep,REPORTSCH
688,1,TWOSPEED HEAT PUMP 1,Unitary System DX Coil Speed Level [] !TimeStep,REPORTSCH
End of Data Dictionary
1,CHICAGO_IL_USA ANNUAL HEATING 99% DESIGN CONDITIONS DB,  41.98, -87.92,  -6.00, 201.00
2,1, 1,21, 0, 1, 0.00,10.00,WinterDesignDay
250,-16.957856804344722
251,33258891.428656235
336,0.0
385,18.546401957746657
386,27.078709474707043
387,-18.496605459334567
388,0.0
425,0.0
450,0.0
451,0.0
452,-19.359123387739213
453,0.0
490,0.0
515,0.0
516,0.0
542,0.0
592,0.0
632,33000000.0
686,1.0
687,1.0
688,2.0
2,1, 1,21, 0, 1,10.00,20.00,WinterDesignDay
250,-16.957856804500803
251,33258891.428655114
336,0.0
385,18.546401957746657
386,27.078709474707043
387,-18.496606946699362
388,0.0
425,0.0
450,0.0
451,0.0
452,-19.3591235952061
453,0.0
490,0.0
515,0.0
516,0.0
542,0.0
592,0.0
632,33000000.0
686,1.0
687,1.0
688,2.0
2,1, 1,21, 0, 1,20.00,30.00,WinterDesignDay
250,-16.957856804654813
251,33258891.428654004
336,0.0
385,18.546401957746657
386,27.078709474707043
387,-18.496608414673005
388,0.0
425,0.0
450,0.0
451,0.0
452,-19.359123799967605
453,0.0
490,0.0
515,0.0
516,0.0
542,0.0
592,0.0
632,33000000.0
686,1.0
687,1.0
688,2.0
2,1, 1,21, 0, 1,30.00,40.00,WinterDesignDay
250,-16.957856804806784
251,33258891.428652905
336,0.0
385,18.546401957746657
386,27.078709474707043
387,-18.496609863508425
388,0.0
425,0.0
450,0.0
451,0.0
452,-19.35912400205901
453,0.0
490,0.0
515,0.0
516,0.0
542,0.0
592,0.0
632,33000000.0
686,1.0
687,1.0
688,2.0
2,1, 1,21, 0, 1,40.00,50.00,WinterDesignDay
250,-16.957856804956734
251,33258891.428651825
336,0.0
385,18.546401957746657
386,27.078709474707043
387,-18.496611293455167
388,0.0
425,0.0
450,0.0
451,0.0
452,-19.359124201515133
453,0.0
490,0.0
515,0.0
516,0.0
542,0.0
592,0.0
632,33000000.0
686,1.0
687,1.0
688,2.0
2,1, 1,21, 0, 1,50.00,60.00,WinterDesignDay
250,-16.957856805104697
251,33258891.42865076
336,0.0
385,18.546401957746657
386,27.078709474707043
387,-18.4966127047594
388,0.0
425,0.0
450,0.0
451,0.0
452,-19.35912439837035
453,0.0
490,0.0
515,0.0
516,0.0
542,0.0
592,0.0
632,33000000.0
686,1.0
687,1.0
688,2.0
2,1, 1,21, 0, 2, 0.00,10.00,WinterDesignDay
250,-16.9578568052507
251,33258891.42864971
336,0.0
385,18.546401957746657
386,27.078709474707043
387,-18.496614097664274
388,0.0
425,0.0
450,0.0
451,0.0
452,-19.35912459265858
453,0.0
490,0.0
515,0.0
516,0.0
542,0.0
592,0.0
632,33000000.0
686,1.0
687,1.0
688,2.0
2,1, 1,21, 0, 2,10.00,20.00,WinterDesignDay
250,-16.957856805394762
251,33258891.428648666
336,0.0
385,18.546401957746657
386,27.078709474707043
387,-18.49661547240955
388,0.0
425,0.0
450,0.0
451,0.0
452,-19.359124784413304
453,0.0
490,0.0
515,0.0
516,0.0
542,0.0
592,0.0
632,33000000.0
686,1.0
687,1.0
688,2.0
2,1, 1,21, 0, 2,20.00,30.00,WinterDesignDay
250,-16.957856805536913
251,33258891.42864764
336,0.0
385,18.546401957746657
386,27.078709474707043
387,-18.496616829231957
388,0.0
425,0.0
450,0.0
451,0.0
452,-19.359124973667555
453,0.0
490,0.0
515,0.0
516,0.0
542,0.0
592,0.0
632,33000000.0
686,1.0
687,1.0
688,2.0
2,1, 1,21, 0, 2,30.00,40.00,WinterDesignDay
250,-16.95785680567719
251,33258891.42864664
336,0.0
385,18.546401957746657
386,27.078709474707043
387,-18.4966181683652
388,0.0
425,0.0
450,0.0
451,0.0
452,-19.35912516045395
453,0.0
490,0.0
515,0.0
516,0.0
542,0.0
592,0.0
632,33000000.0
686,1.0
687,1.0
688,2.0
2,1, 1,21, 0, 2,40.00,50.00,WinterDesignDay
250,-16.9578568058156
251,33258891.428645633
336,0.0
385,18.546401957746657
386,27.078709474707043
387,-18.4966194900397
388,0.0
425,0.0
450,0.0
451,0.0
452,-19.359125344804678
453,0.0
490,0.0
515,0.0
516,0.0
542,0.0
592,0.0
632,33000000.0
686,1.0
687,1.0
688,2.0
2,1, 1,21, 0, 2,50.00,60.00,WinterDesignDay
250,-16.957856805952172
251,33258891.428644653
336,0.0
385,18.546401957746657
386,27.078709474707043
387,-18.49662079448305
388,0.0
425,0.0
450,0.0
451,0.0
452,-19.359125526751495
453,0.0
490,0.0
515,0.0
516,0.0
542,0.0
592,0.0
632,33000000.0
686,1.0
687,1.0
688,2.0
2,1, 1,21, 0, 3, 0.00,10.00,WinterDesignDay
250,-16.95785680608694
251,33258891.428643685
336,0.0
385,18.546401957746657
386,27.078709474707043
387,-18.4966220819201
388,0.0
425,0.0
450,0.0
451,0.0
452,-19.359125706325756
453,0.0
490,0.0
515,0.0
516,0.0
542,0.0
592,0.0
632,33000000.0
686,1.0
687,1.0
688,2.0
2,1, 1,21, 0, 3,10.00,20.00,WinterDesignDay
250,-16.957856806219926
251,33258891.42864273
336,0.0
385,18.546401957746657
386,27.078709474707043
387,-18.496623352572716
388,0.0
425,0.0
450,0.0
451,0.0
452,-19.3591258835584
453,0.0
490,0.0
515,0.0
516,0.0
542,0.0
592,0.0
632,33000000.0
686,1.0
687,1.0
688,2.0
2,1, 1,21, 0, 3,20.00,30.00,WinterDesignDay
250,-16.957856806351142
251,33258891.42864178
336,0.0
385,18.546401957746657
386,27.078709474707043
387,-18.496624606659665
388,0.0
425,0.0
450,0.0
451,0.0
452,-19.359126058479962
453,0.0
490,0.0
515,0.0
516,0.0
542,0.0
592,0.0
632,33000000.0
686,1.0
687,1.0
688,2.0
2,1, 1,21, 0, 3,30.00,40.00,WinterDesignDay
250,-16.957856806480624
251,33258891.42864085
336,0.0
385,18.546401957746657
386,27.078709474707043
387,-18.496625844396636
388,0.0
425,0.0
450,0.0
451,0.0
452,-19.359126231120587
453,0.0
490,0.0
515,0.0
516,0.0
542,0.0
592,0.0
632,33000000.0
686,1.0
687,1.0
688,2.0
2,1, 1,21, 0, 3,40.00,50.00,WinterDesignDay
250,-16.95785680660839
251,33258891.428639933
336,0.0
385,18.546401957746657
386,27.078709474707043
387,-18.49662706599679
388,0.0
425,0.0
450,0.0
451,0.0
452,-19.359126401510025
453,0.0
490,0.0
515,0.0
516,0.0
542,0.0
592,0.0
632,33000000.0
686,1.0
687,1.0
688,2.0
2,1, 1,21, 0, 3,50.00,60.00,WinterDesignDay
250,-16.957856806734465
251,33258891.428639024
336,0.0
385,18.546401957746657
386,27.078709474707043
387,-18.496628271670723
388,0.0
425,0.0
450,0.0
451,0.0
452,-19.359126569677628
453,0.0
490,0.0
515,0.0
516,0.0
542,0.0
592,0.0
632,33000000.0
686,1.0
687,1.0
688,2.0
2,1, 1,21, 0, 4, 0.00,10.00,WinterDesignDay
250,-16.95785680685887
251,33258891.42863813
336,0.0
385,18.546401957746657
386,27.078709474707043
387,-18.496629461625965
388,0.0
425,0.0
450,0.0
451,0.0
452,-19.359126735652378
453,0.0
490,0.0
515,0.0
516,0.0
542,0.0
592,0.0
632,33000000.0
686,1.0
687,1.0
688,2.0
2,1, 1,21, 0, 4,10.00,20.00,WinterDesignDay
250,-16.95785680698163
251,33258891.428637248
336,0.0
385,18.546401957746657
386,27.078709474707043
387,-18.496630636067497
388,0.0
425,0.0
450,0.0
451,0.0
452,-19.359126899462872
453,0.0
490,0.0
515,0.0
516,0.0
542,0.0
592,0.0
632,33000000.0
686,1.0
687,1.0
688,2.0
2,1, 1,21, 0, 4,20.00,30.00,WinterDesignDay
250,-16.957856807102765
251,33258891.428636376
336,0.0
385,18.546401957746657
386,27.078709474707043
387,-18.496631795197537
388,0.0
425,0.0
450,0.0
451,0.0
452,-19.359127061137336
453,0.0
490,0.0
515,0.0
516,0.0
542,0.0
592,0.0
632,33000000.0
686,1.0
687,1.0
688,2.0
2,1, 1,21, 0, 4,30.00,40.00,WinterDesignDay
250,-16.957856807222296
251,33258891.428635515
336,0.0
385,18.546401957746657
386,27.078709474707043
387,-18.496632939215367
388,0.0
425,0.0
450,0.0
451,0.0
452,-19.35912722070362
453,0.0
490,0.0
515,0.0
516,0.0
542,0.0
592,0.0
632,33000000.0
686,1.0
687,1.0
688,2.0
2,1, 1,21, 0, 4,40.00,50.00,WinterDesignDay
250,-16.95785680734025
251,33258891.42863467
336,0.0
385,18.546401957746657
386,27.078709474707043
387,-18.49663406831825
388,0.0
425,0.0
450,0.0
451,0.0
452,-19.35912737818922
453,0.0
490,0.0
515,0.0
516,0.0
542,0.0
592,0.0
632,33000000.0
686,1.0
687,1.0
688,2.0
2,1, 1,21, 0, 4,50.00,60.00,WinterDesignDay
250,-16.957856807456636
251,33258891.428633824
336,0.0
385,18.546401957746657
386,27.078709474707043
387,-18.496635182700647
388,0.0
425,0.0
450,0.0
451,0.0
452,-19.359127533621272
453,0.0
490,0.0
515,0.0
516,0.0
542,0.0
592,0.0
632,33000000.0
686,1.0
687,1.0
688,2.0
2,1, 1,21, 0, 5, 0.00,10.00,WinterDesignDay
250,-16.957856807571485
251,33258891.428633
336,0.0
385,18.546401957746657
386,27.078709474707043
387,-18.496636282554505
388,0.0
425,0.0
450,0.0
451,0.0
452,-19.359127687026557
453,0.0
490,0.0
515,0.0
516,0.0
542,0.0
592,0.0
632,33000000.0
686,1.0
687,1.0
688,2.0
2,1, 1,21, 0, 5,10.00,20.00,WinterDesignDay
250,-16.957856807684813
251,33258891.42863219
336,0.0
385,18.546401957746657
386,27.078709474707043
387,-18.49663736806913
388,0.0
425,0.0
450,0.0
451,0.0
452,-19.359127838431508
453,0.0
490,0.0
515,0.0
516,0.0
542,0.0
592,0.0
632,33000000.0
686,1.0
687,1.0
688,2.0
2,1, 1,21, 0, 5,20.00,30.00,WinterDesignDay
250,-16.957856807796645
251,33258891.428631384
336,0.0
385,18.546401957746657
386,27.078709474707043
387,-18.49663843943164
388,0.0
425,0.0
450,0.0
451,0.0
452,-19.359127987862202
453,0.0
490,0.0
515,0.0
516,0.0
542,0.0
592,0.0
632,33000000.0
686,1.0
687,1.0
688,2.0
2,1, 1,21, 0, 5,30.00,40.00,WinterDesignDay
250,-16.957856807907
251,33258891.428630598
336,0.0
385,18.546401957746657
386,27.078709474707043
387,-18.496639496826692
388,0.0
425,0.0
450,0.0
451,0.0
452,-19.35912813534438
453,0.0
490,0.0
515,0.0
516,0.0
542,0.0
592,0.0
632,33000000.0
686,1.0
687,1.0
688,2.0
2,1, 1,21, 0, 5,40.00,50.00,WinterDesignDay
250,-16.95785680801589
251,33258891.428629808
336,0.0
385,18.546401957746657
386,27.078709474707043
387,-18.49664054043609
388,0.0
425,0.0
450,0.0
451,0.0
452,-19.359128280903466
453,0.0
490,0.0
515,0.0
516,0.0
542,0.0
592,0.0
632,33000000.0
686,1.0
687,1.0
688,2.0
2,1, 1,21, 0, 5,50.00,60.00,WinterDesignDay
250,-16.957856808123346
251,33258891.428629044
336,0.0
385,18.546401957746657
386,27.078709474707043
387,-18.4966415704395
388,0.0
425,0.0
450,0.0
451,0.0
452,-19.359128424564542
453,0.0
490,0.0
515,0.0
516,0.0
542,0.0
592,0.0
632,33000000.0
686,1.0
687,1.0
688,2.0
2,1, 1,21, 0, 6, 0.00,10.00,WinterDesignDay
250,-16.957856808229383
251,33258891.42862828
336,0.0
385,18.546401957746657
386,27.078709474707043
387,-18.49664258701415
388,0.0
425,0.0
450,0.0
451,0.0
452,-19.35912856635236
453,0.0
490,0.0
515,0.0
516,0.0
542,0.0
592,0.0
632,33000000.0
686,1.0
687,1.0
688,2.0
2,1, 1,21, 0, 6,10.00,20.00,WinterDesignDay
250,-16.957856808334014
251,33258891.428627525
336,0.0
385,18.546401957746657
386,27.078709474707043
387,-18.49664359033531
388,0.0
425,0.0
450,0.0
451,0.0
452,-19.359128706291344
453,0.0
490,0.0
515,0.0
516,0.0
542,0.0
592,0.0
632,33000000.0
686,1.0
687,1.0
688,2.0
2,1, 1,21, 0, 6,20.00,30.00,WinterDesignDay
250,-16.957856808437263
251,33258891.428626783
336,0.0
385,18.546401957746657
386,27.078709474707043
387,-18.496644580575914
388,0.0
425,0.0
450,0.0
451,0.0
452,-19.3591288444056
453,0.0
490,0.0
515,0.0
516,0.0
542,0.0
592,0.0
632,33000000.0
686,1.0
687,1.0
688,2.0
2,1, 1,21, 0, 6,30.00,40.00,WinterDesignDay
250,-16.957856808539148
251,33258891.42862605
336,0.0
385,18.546401957746657
386,27.078709474707043
387,-18.496645557906486
388,0.0
425,0.0
450,0.0
451,0.0
452,-19.359128980718925
453,0.0
490,0.0
515,0.0
516,0.0
542,0.0
592,0.0
632,33000000.0
686,1.0
687,1.0
688,2.0
2,1, 1,21, 0, 6,40.00,50.00,WinterDesignDay
250,-16.957856808639683
251,33258891.428625334
336,0.0
385,18.546401957746657
386,27.078709474707043
387,-18.49664652249523
388,0.0
425,0.0
450,0.0
451,0.0
452,-19.35912911525481
453,0.0
490,0.0
515,0.0
516,0.0
542,0.0
592,0.0
632,33000000.0
686,1.0
687,1.0
688,2.0
2,1, 1,21, 0, 6,50.00,60.00,WinterDesignDay
250,-16.957856808738892
251,33258891.42862462
336,0.0
385,18.546401957746657
386,27.078709474707043
387,-18.49664747450837
388,0.0
425,0.0
450,0.0
451,0.0
452,-19.359129248036425
453,0.0
490,0.0
515,0.0
516,0.0
542,0.0
592,0.0
632,33000000.0
686,1.0
687,1.0
688,2.0
2,1, 1,21, 0, 7, 0.00,10.00,WinterDesignDay
250,-16.957856808836798
251,33258891.428623922
336,0.0
385,18.546401957746657
386,27.078709474707043
387,-18.496648414109746
388,0.0
425,0.0
450,0.0
451,0.0
452,-19.359129379086653
453,0.0
490,0.0
515,0.0
516,0.0
542,0.0
592,0.0
632,33000000.0
686,1.0
687,1.0
688,2.0
2,1, 1,21, 0, 7,10.00,20.00,WinterDesignDay
250,-16.95785680893341
251,33258891.42862323
336,0.0
385,18.546401957746657
386,27.078709474707043
387,-18.496649341460824
388,0.0
425,0.0
450,0.0
451,0.0
452,-19.35912950842808
453,0.0
490,0.0
515,0.0
516,0.0
542,0.0
592,0.0
632,33000000.0
686,1.0
687,1.0
688,2.0
2,1, 1,21, 0, 7,20.00,30.00,WinterDesignDay
250,-16.957856809028733
251,33258891.428622536
336,0.0
385,18.546401957746657
386,27.078709474707043
387,-18.49665025672168
388,0.0
425,0.0
450,0.0
451,0.0
452,-19.359129636082983
453,0.0
490,0.0
515,0.0
516,0.0
542,0.0
592,0.0
632,33000000.0
686,1.0
687,1.0
688,2.0
2,1, 1,21, 0, 7,30.00,40.00,WinterDesignDay
250,-16.95785680912281
251,33258891.42862187
336,0.0
385,18.546401957746657
386,27.078709474707043
387,-18.49665116005
388,0.0
425,0.0
450,0.0
451,0.0
452,-19.359129762073348
453,0.0
490,0.0
515,0.0
516,0.0
542,0.0
592,0.0
632,33000000.0
686,1.0
687,1.0
688,2.0
2,1, 1,21, 0, 7,40.00,50.00,WinterDesignDay
250,-16.95785680921564
251,33258891.4286212
336,0.0
385,18.546401957746657
386,27.078709474707043
387,-18.496652051601227
388,0.0
425,0.0
450,0.0
451,0.0
452,-19.359129886420888
453,0.0
490,0.0
515,0.0
516,0.0
542,0.0
592,0.0
632,33000000.0
686,1.0
687,1.0
688,2.0
2,1, 1,21, 0, 7,50.00,60.00,WinterDesignDay
250,-16.957856809307245
251,33258891.428620547
336,0.0
385,18.546401957746657
386,27.078709474707043
387,-18.496652931528995
388,0.0
425,0.0
450,0.0
451,0.0
452,-19.359130009147027
453,0.0
490,0.0
515,0.0
516,0.0
542,0.0
592,0.0
632,33000000.0
686,1.0
687,1.0
688,2.0
2,1, 1,21, 0, 8, 0.00,10.00,WinterDesignDay
250,-16.957856809397637
251,33258891.428619895
336,0.0
385,18.546401957746657
386,27.078709474707043
387,-18.496653799985005
388,0.0
425,0.0
450,0.0
451,0.0
452,-19.359130130272902
453,0.0
490,0.0
515,0.0
516,0.0
542,0.0
592,0.0
632,33000000.0
686,1.0
687,1.0
688,2.0
2,1, 1,21, 0, 8,10.00,20.00,WinterDesignDay
250,-16.95785680948684
251,33258891.428619258
336,0.0
385,18.546401957746657
386,27.078709474707043
387,-18.496654657118373
388,0.0
425,0.0
450,0.0
451,0.0
452,-19.35913024981939
453,0.0
490,0.0
515,0.0
516,0.0
542,0.0
592,0.0
632,33000000.0
686,1.0
687,1.0
688,2.0
2,1, 1,21, 0, 8,20.00,30.00,WinterDesignDay
250,-16.957856809574867
251,33258891.428618625
336,0.0
385,18.546401957746657
386,27.078709474707043
387,-18.496655503076997
388,0.0
425,0.0
450,0.0
451,0.0
452,-19.35913036780709
453,0.0
490,0.0
515,0.0
516,0.0
542,0.0
592,0.0
632,33000000.0
686,1.0
687,1.0
688,2.0
2,1, 1,21, 0, 8,30.00,40.00,WinterDesignDay
250,-16.95785680966173
251,33258891.428617995
336,0.0
385,18.546401957746657
386,27.078709474707043
387,-18.496656338006506
388,0.0
425,0.0
450,0.0
451,0.0
452,-19.359130484256323
453,0.0
490,0.0
515,0.0
516,0.0
542,0.0
592,0.0
632,33000000.0
686,1.0
687,1.0
688,2.0
2,1, 1,21, 0, 8,40.00,50.00,WinterDesignDay
250,-16.957856809747447
251,33258891.428617384
336,0.0
385,18.546401957746657
386,27.078709474707043
387,-18.496657162050457
388,0.0
425,0.0
450,0.0
451,0.0
452,-19.35913059918715
453,0.0
490,0.0
515,0.0
516,0.0
542,0.0
592,0.0
632,33000000.0
686,1.0
687,1.0
688,2.0
2,1, 1,21, 0, 8,50.00,60.00,WinterDesignDay
250,-16.957856809832037
251,33258891.428616777
336,0.0
385,18.546401957746657
386,27.078709474707043
387,-18.496657975350924
388,0.0
425,0.0
450,0.0
451,0.0
452,-19.359130712619375
453,0.0
490,0.0
515,0.0
516,0.0
542,0.0
592,0.0
632,33000000.0
686,1.0
687,1.0
688,2.0
2,1, 1,21, 0, 9, 0.00,10.00,WinterDesignDay
250,-16.9578568099155
251,33258891.42861618
336,0.0
385,18.546401957746657
386,27.078709474707043
387,-18.496658778048072
388,0.0
425,0.0
450,0.0
451,0.0
452,-19.359130824572542
453,0.0
490,0.0
515,0.0
516,0.0
542,0.0
592,0.0
632,33000000.0
686,1.0
687,1.0
688,2.0
2,1, 1,21, 0, 9,10.00,20.00,WinterDesignDay
250,-16.957856809997875
251,33258891.428615592
336,0.0
385,18.546401957746657
386,27.078709474707043
387,-18.496659570280116
388,0.0
425,0.0
450,0.0
451,0.0
452,-19.35913093506593
453,0.0
490,0.0
515,0.0
516,0.0
542,0.0
592,0.0
632,33000000.0
686,1.0
687,1.0
688,2.0
2,1, 1,21, 0, 9,20.00,30.00,WinterDesignDay
250,-16.957856810079164
251,33258891.428615015
336,0.0
385,18.546401957746657
386,27.078709474707043
387,-18.496660352183543
388,0.0
425,0.0
450,0.0
451,0.0
452,-19.35913104411858
453,0.0
490,0.0
515,0.0
516,0.0
542,0.0
592,0.0
632,33000000.0
686,1.0
687,1.0
688,2.0
2,1, 1,21, 0, 9,30.00,40.00,WinterDesignDay
250,-16.957856810159374
251,33258891.428614434
336,0.0
385,18.546401957746657
386,27.078709474707043
387,-18.496661123892906
388,0.0
425,0.0
450,0.0
451,0.0
452,-19.359131151749278
453,0.0
490,0.0
515,0.0
516,0.0
542,0.0
592,0.0
632,33000000.0
686,1.0
687,1.0
688,2.0
2,1, 1,21, 0, 9,40.00,50.00,WinterDesignDay
250,-16.95785681023853
251,33258891.428613864
336,0.0
385,18.546401957746657
386,27.078709474707043
387,-18.496661885541076
388,0.0
425,0.0
450,0.0
451,0.0
452,-19.359131257976568
453,0.0
490,0.0
515,0.0
516,0.0
542,0.0
592,0.0
632,33000000.0
686,1.0
687,1.0
688,2.0
2,1, 1,21, 0, 9,50.00,60.00,WinterDesignDay
250,-16.957856810316635
251,33258891.428613305
336,0.0
385,18.546401957746657
386,27.078709474707043
387,-18.49666263725925
388,0.0
425,0.0
450,0.0
451,0.0
452,-19.35913136281875
453,0.0
490,0.0
515,0.0
516,0.0
542,0.0
592,0.0
632,33000000.0
686,1.0
687,1.0
688,2.0
2,1, 1,21, 0,10, 0.00,10.00,WinterDesignDay
250,-16.957856810393714
251,33258891.428612754
336,0.0
385,18.546401957746657
386,27.078709474707043
387,-18.496663379176944
388,0.0
425,0.0
450,0.0
451,0.0
452,-19.35913146629389
453,0.0
490,0.0
515,0.0
516,0.0
542,0.0
592,0.0
632,33000000.0
686,1.0
687,1.0
688,2.0
2,1, 1,21, 0,10,10.00,20.00,WinterDesignDay
250,-16.957856810469778
251,33258891.428612206
336,0.0
385,18.546401957746657
386,27.078709474707043
387,-18.496664111421843
388,0.0
425,0.0
450,0.0
451,0.0
452,-19.359131568419805
453,0.0
490,0.0
515,0.0
516,0.0
542,0.0
592,0.0
632,33000000.0
686,1.0
687,1.0
688,2.0
2,1, 1,21, 0,10,20.00,30.00,WinterDesignDay
250,-16.95785681054484
251,33258891.428611673
336,0.0
385,18.546401957746657
386,27.078709474707043
387,-18.496664834120267
388,0.0
425,0.0
450,0.0
451,0.0
452,-19.359131669214094
453,0.0
490,0.0
515,0.0
516,0.0
542,0.0
592,0.0
632,33000000.0
686,1.0
687,1.0
688,2.0
2,1, 1,21, 0,10,30.00,40.00,WinterDesignDay
250,-16.957856810618914
251,33258891.42861115
336,0.0
385,18.546401957746657
386,27.078709474707043
387,-18.4966655473966
388,0.0
425,0.0
450,0.0
451,0.0
452,-19.359131768694123
453,0.0
490,0.0
515,0.0
516,0.0
542,0.0
592,0.0
632,33000000.0
686,1.0
687,1.0
688,2.0
2,1, 1,21, 0,10,40.00,50.00,WinterDesignDay
250,-16.95785681069201
251,33258891.42861062
336,0.0
385,18.546401957746657
386,27.078709474707043
387,-18.49666625137352
388,0.0
425,0.0
450,0.0
451,0.0
452,-19.359131866877032
453,0.0
490,0.0
515,0.0
516,0.0
542,0.0
592,0.0
632,33000000.0
686,1.0
687,1.0
688,2.0
2,1, 1,21, 0,10,50.00,60.00,WinterDesignDay
250,-16.957856810764145
251,33258891.428610105
336,0.0
385,18.546401957746657
386,27.078709474707043
387,-18.496666946172297
388,0.0
425,0.0
450,0.0
451,0.0
452,-19.35913196377973
453,0.0
490,0.0
515,0.0
516,0.0
542,0.0
592,0.0
632,33000000.0
686,1.0
687,1.0
688,2.0
2,1, 1,21, 0,11, 0.00,10.00,WinterDesignDay
250,-16.957856810835327
251,33258891.42860959
336,0.0
385,18.546401957746657
386,27.078709474707043
387,-18.496667631912487
388,0.0
425,0.0
450,0.0
451,0.0
452,-19.35913205941892
453,0.0
490,0.0
515,0.0
516,0.0
542,0.0
592,0.0
632,33000000.0
686,1.0
687,1.0
688,2.0
2,1, 1,21, 0,11,10.00,20.00,WinterDesignDay
250,-16.957856810905575
251,33258891.42860909
336,0.0
385,18.546401957746657
386,27.078709474707043
387,-18.49666830871223
388,0.0
425,0.0
450,0.0
451,0.0
452,-19.359132153811068
453,0.0
490,0.0
515,0.0
516,0.0
542,0.0
592,0.0
632,33000000.0
686,1.0
687,1.0
688,2.0
2,1, 1,21, 0,11,20.00,30.00,WinterDesignDay
250,-16.957856810974892
251,33258891.428608593
336,0.0
385,18.546401957746657
386,27.078709474707043
387,-18.496668976688184
388,0.0
425,0.0
450,0.0
451,0.0
452,-19.35913224697244
453,0.0
490,0.0
515,0.0
516,0.0
542,0.0
592,0.0
632,33000000.0
686,1.0
687,1.0
688,2.0
2,1, 1,21, 0,11,30.00,40.00,WinterDesignDay
250,-16.9578568110433
251,33258891.4286081
336,0.0
385,18.546401957746657
386,27.078709474707043
387,-18.496669635955534
388,0.0
425,0.0
450,0.0
451,0.0
452,-19.359132338919085
453,0.0
490,0.0
515,0.0
516,0.0
542,0.0
592,0.0
632,33000000.0
686,1.0
687,1.0
688,2.0
2,1, 1,21, 0,11,40.00,50.00,WinterDesignDay
250,-16.957856811110805
251,33258891.428607624
336,0.0
385,18.546401957746657
386,27.078709474707043
387,-18.496670286627932
388,0.0
425,0.0
450,0.0
451,0.0
452,-19.359132429666843
453,0.0
490,0.0
515,0.0
516,0.0
542,0.0
592,0.0
632,33000000.0
686,1.0
687,1.0
688,2.0
2,1, 1,21, 0,11,50.00,60.00,WinterDesignDay
250,-16.95785681117742
251,33258891.428607143
336,0.0
385,18.546401957746657
386,27.078709474707043
387,-18.496670928817203
388,0.0
425,0.0
450,0.0
451,0.0
452,-19.359132519231345
453,0.0
490,0.0
515,0.0
516,0.0
542,0.0
592,0.0
632,33000000.0
686,1.0
687,1.0
688,2.0
2,1, 1,21, 0,12, 0.00,10.00,WinterDesignDay
250,-16.95785681124316
251,33258891.428606678
336,0.0
385,18.546401957746657
386,27.078709474707043
387,-18.496671562633605
388,0.0
425,0.0
450,0.0
451,0.0
452,-19.359132607628023
453,0.0
490,0.0
515,0.0
516,0.0
542,0.0
592,0.0
632,33000000.0
686,1.0
687,1.0
688,2.0
2,1, 1,21, 0,12,10.00,20.00,WinterDesignDay
250,-16.957856811308034
251,33258891.42860621
336,0.0
385,18.546401957746657
386,27.078709474707043
387,-18.496672188186416
388,0.0
425,0.0
450,0.0
451,0.0
452,-19.359132694872105
453,0.0
490,0.0
515,0.0
516,0.0
542,0.0
592,0.0
632,33000000.0
686,1.0
687,1.0
688,2.0
2,1, 1,21, 0,12,20.00,30.00,WinterDesignDay
250,-16.957856811372054
251,33258891.428605754
336,0.0
385,18.546401957746657
386,27.078709474707043
387,-18.4966728055836
388,0.0
425,0.0
450,0.0
451,0.0
452,-19.35913278097862
453,0.0
490,0.0
515,0.0
516,0.0
542,0.0
592,0.0
632,33000000.0
686,1.0
687,1.0
688,2.0
2,1, 1,21, 0,12,30.00,40.00,WinterDesignDay
250,-16.95785681143523
251,33258891.428605296
336,0.0
385,18.546401957746657
386,27.078709474707043
387,-18.496673414931564
388,0.0
425,0.0
450,0.0
451,0.0
452,-19.3591328659624
453,0.0
490,0.0
515,0.0
516,0.0
542,0.0
592,0.0
632,33000000.0
686,1.0
687,1.0
688,2.0
2,1, 1,21, 0,12,40.00,50.00,WinterDesignDay
250,-16.957856811497575
251,33258891.428604856
336,0.0
385,18.546401957746657
386,27.078709474707043
387,-18.49667401633515
388,0.0
425,0.0
450,0.0
451,0.0
452,-19.359132949838088
453,0.0
490,0.0
515,0.0
516,0.0
542,0.0
592,0.0
632,33000000.0
686,1.0
687,1.0
688,2.0
2,1, 1,21, 0,12,50.00,60.00,WinterDesignDay
250,-16.9578568115591
251,33258891.428604417
336,0.0
385,18.546401957746657
386,27.078709474707043
387,-18.49667460989795
388,0.0
425,0.0
450,0.0
451,0.0
452,-19.359133032620132
453,0.0
490,0.0
515,0.0
516,0.0
542,0.0
592,0.0
632,33000000.0
686,1.0
687,1.0
688,2.0
2,1, 1,21, 0,13, 0.00,10.00,WinterDesignDay
250,-16.95785681161982
251,33258891.428603984
336,0.0
385,18.546401957746657
386,27.078709474707043
387,-18.49667519572228
388,0.0
425,0.0
450,0.0
451,0.0
452,-19.35913311432279
453,0.0
490,0.0
515,0.0
516,0.0
542,0.0
592,0.0
632,33000000.0
686,1.0
687,1.0
688,2.0
2,1, 1,21, 0,13,10.00,20.00,WinterDesignDay
250,-16.95785681167973
251,33258891.428603552
336,0.0
385,18.546401957746657
386,27.078709474707043
387,-18.496675773908766
388,0.0
425,0.0
450,0.0
451,0.0
452,-19.359133194960144
453,0.0
490,0.0
515,0.0
516,0.0
542,0.0
592,0.0
632,33000000.0
686,1.0
687,1.0
688,2.0
2,1, 1,21, 0,13,20.00,30.00,WinterDesignDay
250,-16.95785681173886
251,33258891.42860313
336,0.0
385,18.546401957746657
386,27.078709474707043
387,-18.496676344556963
388,0.0
425,0.0
450,0.0
451,0.0
452,-19.35913327454608
453,0.0
490,0.0
515,0.0
516,0.0
542,0.0
592,0.0
632,33000000.0
686,1.0
687,1.0
688,2.0
2,1, 1,21, 0,13,30.00,40.00,WinterDesignDay
250,-16.95785681179721
251,33258891.428602718
336,0.0
385,18.546401957746657
386,27.078709474707043
387,-18.496676907765348
388,0.0
425,0.0
450,0.0
451,0.0
452,-19.359133353094307
453,0.0
490,0.0
515,0.0
516,0.0
542,0.0
592,0.0
632,33000000.0
686,1.0
687,1.0
688,2.0
2,1, 1,21, 0,13,40.00,50.00,WinterDesignDay
250,-16.95785681185479
251,33258891.428602297
336,0.0
385,18.546401957746657
386,27.078709474707043
387,-18.496677463630924
388,0.0
425,0.0
450,0.0
451,0.0
452,-19.35913343061836
453,0.0
490,0.0
515,0.0
516,0.0
542,0.0
592,0.0
632,33000000.0
686,1.0
687,1.0
688,2.0
2,1, 1,21, 0,13,50.00,60.00,WinterDesignDay
250,-16.957856811911615
251,33258891.42860189
336,0.0
385,18.546401957746657
386,27.078709474707043
387,-18.496678012249454
388,0.0
425,0.0
450,0.0
451,0.0
452,-19.359133507131595
453,0.0
490,0.0
515,0.0
516,0.0
542,0.0
592,0.0
632,33000000.0
686,1.0
687,1.0
688,2.0
2,1, 1,21, 0,14, 0.00,10.00,WinterDesignDay
250,-16.957856811967687
251,33258891.428601496
336,0.0
385,18.546401957746657
386,27.078709474707043
387,-18.49667855371534
388,0.0
425,0.0
450,0.0
451,0.0
452,-19.359133582647186
453,0.0
490,0.0
515,0.0
516,0.0
542,0.0
592,0.0
632,33000000.0
686,1.0
687,1.0
688,2.0
2,1, 1,21, 0,14,10.00,20.00,WinterDesignDay
250,-16.95785681202303
251,33258891.428601105
336,0.0
385,18.546401957746657
386,27.078709474707043
387,-18.496679088121724
388,0.0
425,0.0
450,0.0
451,0.0
452,-19.35913365717815
453,0.0
490,0.0
515,0.0
516,0.0
542,0.0
592,0.0
632,33000000.0
686,1.0
687,1.0
688,2.0
2,1, 1,21, 0,14,20.00,30.00,WinterDesignDay
250,-16.95785681207764
251,33258891.428600702
336,0.0
385,18.546401957746657
386,27.078709474707043
387,-18.496679615560748
388,0.0
425,0.0
450,0.0
451,0.0
452,-19.35913373073732
453,0.0
490,0.0
515,0.0
516,0.0
542,0.0
592,0.0
632,33000000.0
686,1.0
687,1.0
688,2.0
2,1, 1,21, 0,14,30.00,40.00,WinterDesignDay
250,-16.957856812131535
251,33258891.42860033
336,0.0
385,18.546401957746657
386,27.078709474707043
387,-18.496680136123302
388,0.0
425,0.0
450,0.0
451,0.0
452,-19.359133803337368
453,0.0
490,0.0
515,0.0
516,0.0
542,0.0
592,0.0
632,33000000.0
686,1.0
687,1.0
688,2.0
2,1, 1,21, 0,14,40.00,50.00,WinterDesignDay
250,-16.957856812184716
251,33258891.42859994
336,0.0
385,18.546401957746657
386,27.078709474707043
387,-18.496680649898895
388,0.0
425,0.0
450,0.0
451,0.0
452,-19.359133874990807
453,0.0
490,0.0
515,0.0
516,0.0
542,0.0
592,0.0
632,33000000.0
686,1.0
687,1.0
688,2.0
2,1, 1,21, 0,14,50.00,60.00,WinterDesignDay
250,-16.957856812237203
251,33258891.428599574
336,0.0
385,18.546401957746657
386,27.078709474707043
387,-18.49668115697594
388,0.0
425,0.0
450,0.0
451,0.0
452,-19.359133945709974
453,0.0
490,0.0
515,0.0
516,0.0
542,0.0
592,0.0
632,33000000.0
686,1.0
687,1.0
688,2.0
2,1, 1,21, 0,15, 0.00,10.00,WinterDesignDay
250,-16.957856812289
251,33258891.428599194
336,0.0
385,18.546401957746657
386,27.078709474707043
387,-18.49668165744204
388,0.0
425,0.0
450,0.0
451,0.0
452,-19.359134015507053
453,0.0
490,0.0
515,0.0
516,0.0
542,0.0
592,0.0
632,33000000.0
686,1.0
687,1.0
688,2.0
2,1, 1,21, 0,15,10.00,20.00,WinterDesignDay
250,-16.957856812340108
251,33258891.42859883
336,0.0
385,18.546401957746657
386,27.078709474707043
387,-18.496682151383315
388,0.0
425,0.0
450,0.0
451,0.0
452,-19.359134084394068
453,0.0
490,0.0
515,0.0
516,0.0
542,0.0
592,0.0
632,33000000.0
686,1.0
687,1.0
688,2.0
2,1, 1,21, 0,15,20.00,30.00,WinterDesignDay
250,-16.957856812390553
251,33258891.42859848
336,0.0
385,18.546401957746657
386,27.078709474707043
387,-18.496682638884884
388,0.0
425,0.0
450,0.0
451,0.0
452,-19.359134152382882
453,0.0
490,0.0
515,0.0
516,0.0
542,0.0
592,0.0
632,33000000.0
686,1.0
687,1.0
688,2.0
2,1, 1,21, 0,15,30.00,40.00,WinterDesignDay
250,-16.95785681244033
251,33258891.428598117
336,0.0
385,18.546401957746657
386,27.078709474707043
387,-18.496683120030685
388,0.0
425,0.0
450,0.0
451,0.0
452,-19.359134219485213
453,0.0
490,0.0
515,0.0
516,0.0
542,0.0
592,0.0
632,33000000.0
686,1.0
687,1.0
688,2.0
2,1, 1,21, 0,15,40.00,50.00,WinterDesignDay
250,-16.957856812489453
251,33258891.428597767
336,0.0
385,18.546401957746657
386,27.078709474707043
387,-18.496683594903477
388,0.0
425,0.0
450,0.0
451,0.0
452,-19.35913428571262
453,0.0
490,0.0