Program Version,EnergyPlus, Version 24.1.0-9d7789a3ac, YMD=2024.06.19 21:16
1,5,Environment Title[],Latitude[deg],Longitude[deg],Time Zone[],Elevation[m]
2,8,Day of Simulation[],Month[],Day of Month[],DST Indicator[1=yes 0=no],Hour[],StartMinute[],EndMinute[],DayType
3,5,Cumulative Day of Simulation[],Month[],Day of Month[],DST Indicator[1=yes 0=no],DayType  ! When Daily Report Variables Requested
4,2,Cumulative Days of Simulation[],Month[]  ! When Monthly Report Variables Requested
5,1,Cumulative Days of Simulation[] ! When Run Period Report Variables Requested
6,1,Calendar Year of Simulation[] ! When Annual Report Variables Requested
250,1,LIVING ZONE,Zone Air Temperature [C] !TimeStep,REPORTSCH
251,1,LIVING ZONE,Zone Air System Sensible Heating Energy [J] !TimeStep,REPORTSCH
336,1,LIVING ZONE,Zone Air System Sensible Cooling Energy [J] !TimeStep,REPORTSCH
385,1,LIVING ZONE,Zone Thermostat Heating Setpoint Temperature [C] !TimeStep,REPORTSCH
386,1,LIVING ZONE,Zone Thermostat Cooling Setpoint Temperature [C] !TimeStep,REPORTSCH
387,1,GARAGE ZONE,Zone Air Temperature [C] !TimeStep,REPORTSCH
388,1,GARAGE ZONE,Zone Air System Sensible Heating Energy [J] !TimeStep,REPORTSCH
425,1,GARAGE ZONE,Zone Air System Sensible Cooling Energy [J] !TimeStep,REPORTSCH
450,1,GARAGE ZONE,Zone Thermostat Heating Setpoint Temperature [C] !TimeStep,REPORTSCH
451,1,GARAGE ZONE,Zone Thermostat Cooling Setpoint Temperature [C] !TimeStep,REPORTSCH
452,1,ATTIC ZONE,Zone Air Temperature [C] !TimeStep,REPORTSCH
453,1,ATTIC ZONE,Zone Air System Sensible Heating Energy [J] !TimeStep,REPORTSCH
490,1,ATTIC ZONE,Zone Air System Sensible Cooling Energy [J] !TimeStep,REPORTSCH
515,1,ATTIC ZONE,Zone Thermostat Heating Setpoint Temperature [C] !TimeStep,REPORTSCH
516,1,ATTIC ZONE,Zone Thermostat Cooling Setpoint Temperature [C] !TimeStep,REPORTSCH
542,1,ACDXCOIL 1,Cooling Coil Total Cooling Energy [J] !TimeStep,REPORTSCH
592,1,HEAT PUMP DX HEATING COIL 1,Heating Coil Heating Energy [J] !TimeStep,REPORTSCH
632,1,SUPP HEATING COIL 1,Heating Coil Heating Energy [J] !TimeStep,REPORTSCH
686,1,TWOSPEED HEAT PUMP 1,Unitary System DX Coil Cycling Ratio [] !TimeStep,REPORTSCH
687,1,TWOSPEED HEAT PUMP 1,Unitary System DX Coil Speed Ratio [] !TimeStep,REPORTSCH
688,1,TWOSPEED HEAT PUMP 1,Unitary System DX Coil Speed Level [] !TimeStep
End of Data Dictionary
1,CHICAGO_IL_USA ANNUAL HEATING 99% DESIGN CONDITIONS DB,  41.98, -87.92,  -6.00, 201.00
2,1, 1,21, 0, 1, 0.00,10.00,WinterDesignDay
250,19.654147832959413
251,14715088.712466922
336,0.0
385,19.916003258466557
386,28.326521754856174
387,-17.60941877319335
388,0.0
425,0.0
450,0.0
451,0.0
452,-18.291866216467202
453,0.0
490,0.0
515,0.0
516,0.0
542,0.0
592,0.0
632,14378793.601416845
686,1.0
687,1.0
688,2.0
2,1, 1,21, 0, 1,10.00,20.00,WinterDesignDay
250,19.95436104553203
251,13475894.792952254
336,0.0
385,19.916003258466557
386,28.326521754856174
387,-17.609429552230047
388,0.0
425,0.0
450,0.0
451,0.0
452,-18.291986198990173
453,0.0
490,0.0
515,0.0
516,0.0
542,0.0
592,0.0
632,13068682.03491119
686,1.0
687,1.0
688,2.0
2,1, 1,21, 0, 1,20.00,30.00,WinterDesignDay
250,20.193193319624555
251,14517734.889446566
336,0.0
385,20.582669925133224
386,28.326521754856174
387,-17.60933221940893
388,0.0
425,0.0
450,0.0
451,0.0
452,-18.29194393313103
453,0.0
490,0.0
515,0.0
516,0.0
542,0.0
592,0.0
632,14992819.724127172
686,1.0
687,1.0
688,2.0
2,1, 1,21, 0, 1,30.00,40.00,WinterDesignDay
250,20.547777963728613
251,15564562.12217605
336,0.0
385,20.582669925133224
386,28.326521754856174
387,-17.609323228412965
388,0.0
425,0.0
450,0.0
451,0.0
452,-18.291799076692996
453,0.0
490,0.0
515,0.0
516,0.0
542,0.0
592,0.0
632,15407568.099300534
686,1.0
687,1.0
688,2.0
2,1, 1,21, 0, 1,40.00,50.00,WinterDesignDay
250,19.6541478310562
251,14715088.745183242
336,0.0
385,19.91600325846653
386,28.326521754856135
387,-17.609423647675463
388,0.0
425,0.0
450,0.0
451,0.0
452,-18.291866681334746
453,0.0
490,0.0
515,0.0
516,0.0
542,0.0
592,0.0
632,14378793.633638762
686,0.9999999999999986
687,0.9999999999999986
688,1.9999999999999971
2,1, 1,21, 0, 1,50.00,60.00,WinterDesignDay
250,19.95436104543429
251,13475894.833019162
336,0.0
385,19.916003258466574
386,28.326521754856195
387,-17.60943436592601
388,0.0
425,0.0
450,0.0
451,0.0
452,-18.29198665788237
453,0.0
490,0.0
515,0.0
516,0.0
542,0.0
592,0.0
632,13068682.075304389
686,1.0000000000000009
687,1.0000000000000009
688,2.0000000000000018
2,1, 1,21, 0, 2, 0.00,10.00,WinterDesignDay
250,20.193193319884283
251,14517734.929245722
336,0.0
385,20.582669925133224
386,28.326521754856174
387,-17.60933696007392
388,0.0
425,0.0
450,0.0
451,0.0
452,-18.29194438501072
453,0.0
490,0.0
515,0.0
516,0.0
542,0.0
592,0.0
632,14992819.764107106
686,1.0
687,1.0
688,2.0
2,1, 1,21, 0, 2,10.00,20.00,WinterDesignDay
250,20.547777963768176
251,15564562.162472032
336,0.0
385,20.582669925133224
386,28.326521754856174
387,-17.60932790536446
388,0.0
425,0.0
450,0.0
451,0.0
452,-18.291799522667628
453,0.0
490,0.0
515,0.0
516,0.0
542,0.0
592,0.0
632,15407568.139530635
686,1.0
687,1.0
688,2.0
2,1, 1,21, 0, 2,20.00,30.00,WinterDesignDay
250,19.654147829251322
251,14715088.776210492
336,0.0
385,19.916003258466574
386,28.326521754856195
387,-17.609428270520933
388,0.0
425,0.0
450,0.0
451,0.0
452,-18.291867122214992
453,0.0
490,0.0
515,0.0
516,0.0
542,0.0
592,0.0
632,14378793.664197134
686,1.0000000000000007
687,1.0000000000000007
688,2.0000000000000013
2,1, 1,21, 0, 2,30.00,40.00,WinterDesignDay
250,19.95436104534159
251,13475894.871017585
336,0.0
385,19.916003258466574
386,28.326521754856195
387,-17.609438931122988
388,0.0
425,0.0
450,0.0
451,0.0
452,-18.29198709309539
453,0.0
490,0.0
515,0.0
516,0.0
542,0.0
592,0.0
632,13068682.113612257
686,1.0000000000000009
687,1.0000000000000009
688,2.0000000000000018
2,1, 1,21, 0, 2,40.00,50.00,WinterDesignDay
250,20.193193320130593
251,14517734.966990242
336,0.0
385,20.582669925133224
386,28.326521754856174
387,-17.609341456009947
388,0.0
425,0.0
450,0.0
451,0.0
452,-18.291944813572982
453,0.0
490,0.0
515,0.0
516,0.0
542,0.0
592,0.0
632,14992819.802023076
686,1.0
687,1.0
688,2.0
2,1, 1,21, 0, 2,50.00,60.00,WinterDesignDay
250,20.547777963805697
251,15564562.200687801
336,0.0
385,20.582669925133224
386,28.326521754856174
387,-17.609332340876236
388,0.0
425,0.0
450,0.0
451,0.0
452,-18.29179994562935
453,0.0
490,0.0
515,0.0
516,0.0
542,0.0
592,0.0
632,15407568.177683927
686,1.0
687,1.0
688,2.0
2,1, 1,21, 0, 3, 0.00,10.00,WinterDesignDay
250,19.654147827539553
251,14715088.805635989
336,0.0
385,19.916003258466557
386,28.326521754856174
387,-17.60943265471947
388,0.0
425,0.0
450,0.0
451,0.0
452,-18.29186754034498
453,0.0
490,0.0
515,0.0
516,0.0
542,0.0
592,0.0
632,14378793.69317795
686,1.0
687,1.0
688,2.0
2,1, 1,21, 0, 3,10.00,20.00,WinterDesignDay
250,19.95436104525364
251,13475894.907054346
336,0.0
385,19.916003258466557
386,28.326521754856174
387,-17.609443260648526
388,0.0
425,0.0
450,0.0
451,0.0
452,-18.291987505850518
453,0.0
490,0.0
515,0.0
516,0.0
542,0.0
592,0.0
632,13068682.149942491
686,1.0
687,1.0
688,2.0
2,1, 1,21, 0, 3,20.00,30.00,WinterDesignDay
250,20.19319332036419
251,14517735.00278619
336,0.0
385,20.582669925133224
386,28.326521754856174
387,-17.60934571984979
388,0.0
425,0.0
450,0.0
451,0.0
452,-18.29194522002045
453,0.0
490,0.0
515,0.0
516,0.0
542,0.0
592,0.0
632,14992819.837981619
686,1.0
687,1.0
688,2.0
2,1, 1,21, 0, 3,30.00,40.00,WinterDesignDay
250,20.547777963841277
251,15564562.23693066
336,0.0
385,20.582669925133224
386,28.326521754856174
387,-17.609336547410713
388,0.0
425,0.0
450,0.0
451,0.0
452,-18.29180034676511
453,0.0
490,0.0
515,0.0
516,0.0
542,0.0
592,0.0
632,15407568.213867534
686,1.0
687,1.0
688,2.0
2,1, 1,21, 0, 3,40.00,50.00,WinterDesignDay
250,19.654147825916148
251,14715088.833542394
336,0.0
385,19.91600325846653
386,28.326521754856135
387,-17.60943681258967
388,0.0
425,0.0
450,0.0
451,0.0
452,-18.291867936898157
453,0.0
490,0.0
515,0.0
516,0.0
542,0.0
592,0.0
632,14378793.720662639
686,0.9999999999999986
687,0.9999999999999986
688,1.9999999999999971
2,1, 1,21, 0, 3,50.00,60.00,WinterDesignDay
250,19.95436104517028
251,13475894.941230632
336,0.0
385,19.916003258466574
386,28.326521754856195
387,-17.609447366668434
388,0.0
425,0.0
450,0.0
451,0.0
452,-18.29198789730614
453,0.0
490,0.0
515,0.0
516,0.0
542,0.0
592,0.0
632,13068682.184397098
686,1.0000000000000009
687,1.0000000000000009
688,2.0000000000000018
2,1, 1,21, 0, 4, 0.00,10.00,WinterDesignDay
250,20.193193320585735
251,14517735.036734093
336,0.0
385,20.582669925133224
386,28.326521754856174
387,-17.60934976357488
388,0.0
425,0.0
450,0.0
451,0.0
452,-18.291945605493787
453,0.0
490,0.0
515,0.0
516,0.0
542,0.0
592,0.0
632,14992819.872083725
686,1.0
687,1.0
688,2.0
2,1, 1,21, 0, 4,10.00,20.00,WinterDesignDay
250,20.54777796387502
251,15564562.271302342
336,0.0
385,20.582669925133224
386,28.326521754856174
387,-17.609340536788437
388,0.0
425,0.0
450,0.0
451,0.0
452,-18.29180072720068
453,0.0
490,0.0
515,0.0
516,0.0
542,0.0
592,0.0
632,15407568.248183018
686,1.0
687,1.0
688,2.0
2,1, 1,21, 0, 4,20.00,30.00,WinterDesignDay
250,19.654147824376622
251,14715088.860008087
336,0.0
385,19.916003258466574
386,28.326521754856195
387,-17.609440755815317
388,0.0
425,0.0
450,0.0
451,0.0
452,-18.29186831298754
453,0.0
490,0.0
515,0.0
516,0.0
542,0.0
592,0.0
632,14378793.746728389
686,1.0000000000000007
687,1.0000000000000007
688,2.0000000000000013
2,1, 1,21, 0, 4,30.00,40.00,WinterDesignDay
250,19.9543610450912
251,13475894.97364251
336,0.0
385,19.916003258466574
386,28.326521754856195
387,-17.609451260720157
388,0.0
425,0.0
450,0.0
451,0.0
452,-18.291988268560846
453,0.0
490,0.0
515,0.0
516,0.0
542,0.0
592,0.0
632,13068682.217072926
686,1.0000000000000009
687,1.0000000000000009
688,2.0000000000000018
2,1, 1,21, 0, 4,40.00,50.00,WinterDesignDay
250,20.193193320795835
251,14517735.068929492
336,0.0
385,20.582669925133224
386,28.326521754856174
387,-17.609353598547248
388,0.0
425,0.0
450,0.0
451,0.0
452,-18.291945971074846
453,0.0
490,0.0
515,0.0
516,0.0
542,0.0
592,0.0
632,14992819.904425362
686,1.0
687,1.0
688,2.0
2,1, 1,21, 0, 4,50.00,60.00,WinterDesignDay
250,20.547777963907027
251,15564562.303899657
336,0.0
385,20.582669925133224
386,28.326521754856174
387,-17.60934432021905
388,0.0
425,0.0
450,0.0
451,0.0
452,-18.29180108800382
453,0.0
490,0.0
515,0.0
516,0.0
542,0.0
592,0.0
632,15407568.280727036
686,1.0
687,1.0
688,2.0
2,1, 1,21, 0, 5, 0.00,10.00,WinterDesignDay
250,19.654147822916517
251,14715088.885107469
336,0.0
385,19.916003258466557
386,28.326521754856174
387,-17.60944449547623
388,0.0
425,0.0
450,0.0
451,0.0
452,-18.291868669668588
453,0.0
490,0.0
515,0.0
516,0.0
542,0.0
592,0.0
632,14378793.771448473
686,1.0
687,1.0
688,2.0
2,1, 1,21, 0, 5,10.00,20.00,WinterDesignDay
250,19.954361045016192
251,13475895.004381182
336,0.0
385,19.916003258466557
386,28.326521754856174
387,-17.609454953745477
388,0.0
425,0.0
450,0.0
451,0.0
452,-18.29198862065669
453,0.0
490,0.0
515,0.0
516,0.0
542,0.0
592,0.0
632,13068682.248061927
686,1.0
687,1.0
688,2.0
2,1, 1,21, 0, 5,20.00,30.00,WinterDesignDay
250,20.19319332099509
251,14517735.09946275
336,0.0
385,20.582669925133224
386,28.326521754856174
387,-17.609357235543005
388,0.0
425,0.0
450,0.0
451,0.0
452,-18.29194631778977
453,0.0
490,0.0
515,0.0
516,0.0
542,0.0
592,0.0
632,14992819.935097303
686,1.0
687,1.0
688,2.0
2,1, 1,21, 0, 5,30.00,40.00,WinterDesignDay
250,20.547777963937378
251,15564562.33481408
336,0.0
385,20.582669925133224
386,28.326521754856174
387,-17.609347908333564
388,0.0
425,0.0
450,0.0
451,0.0
452,-18.291801430187263
453,0.0
490,0.0
515,0.0
516,0.0
542,0.0
592,0.0
632,15407568.311590917
686,1.0
687,1.0
688,2.0
2,1, 1,21, 0, 5,40.00,50.00,WinterDesignDay
250,19.654147821531783
251,14715088.908911088
336,0.0
385,19.91600325846653
386,28.326521754856135
387,-17.609448042080416
388,0.0
425,0.0
450,0.0
451,0.0
452,-18.291869007942545
453,0.0
490,0.0
515,0.0
516,0.0
542,0.0
592,0.0
632,14378793.79489237
686,0.9999999999999986
687,0.9999999999999986
688,1.9999999999999971
2,1, 1,21, 0, 5,50.00,60.00,WinterDesignDay
250,19.954361044945085
251,13475895.033532862
336,0.0
385,19.916003258466574
386,28.326521754856195
387,-17.60945845612168
388,0.0
425,0.0
450,0.0
451,0.0
452,-18.29198895458202
453,0.0
490,0.0
515,0.0
516,0.0
542,0.0
592,0.0
632,13068682.277451003
686,1.0000000000000009
687,1.0000000000000009
688,2.0000000000000018
2,1, 1,21, 0, 6, 0.00,10.00,WinterDesignDay
250,20.19319332118406
251,14517735.128419686
336,0.0
385,20.582669925133224
386,28.326521754856174
387,-17.609360684782082
388,0.0
425,0.0
450,0.0
451,0.0
452,-18.291946646611766
453,0.0
490,0.0
515,0.0
516,0.0
542,0.0
592,0.0
632,14992819.964185778
686,1.0
687,1.0
688,2.0
2,1, 1,21, 0, 6,10.00,20.00,WinterDesignDay
250,20.547777963966162
251,15564562.364132486
336,0.0
385,20.582669925133224
386,28.326521754856174
387,-17.60935131121486
388,0.0
425,0.0
450,0.0
451,0.0
452,-18.291801754711535
453,0.0
490,0.0
515,0.0
516,0.0
542,0.0
592,0.0
632,15407568.340861391
686,1.0
687,1.0
688,2.0
2,1, 1,21, 0, 6,20.00,30.00,WinterDesignDay
250,19.654147820218604
251,14715088.93148575
336,0.0
385,19.916003258466574
386,28.326521754856195
387,-17.609451405594147
388,0.0
425,0.0
450,0.0
451,0.0
452,-18.291869328759027
453,0.0
490,0.0
515,0.0
516,0.0
542,0.0
592,0.0
632,14378793.817125887
686,1.0000000000000007
687,1.0000000000000007
688,2.0000000000000013
2,1, 1,21, 0, 6,30.00,40.00,WinterDesignDay
250,19.954361044877636
251,13475895.061179657
336,0.0
385,19.916003258466574
386,28.326521754856195
387,-17.609461777690214
388,0.0
425,0.0
450,0.0
451,0.0
452,-18.291989271274165
453,0.0
490,0.0
515,0.0
516,0.0
542,0.0
592,0.0
632,13068682.305322945
686,1.0000000000000009
687,1.0000000000000009
688,2.0000000000000018
2,1, 1,21, 0, 6,40.00,50.00,WinterDesignDay
250,20.193193321363275
251,14517735.155881641
336,0.0
385,20.582669925133224
386,28.326521754856174
387,-17.609363955956272
388,0.0
425,0.0
450,0.0
451,0.0
452,-18.291946958463907
453,0.0
490,0.0
515,0.0
516,0.0
542,0.0
592,0.0
632,14992819.99177247
686,1.0
687,1.0
688,2.0
2,1, 1,21, 0, 6,50.00,60.00,WinterDesignDay
250,20.54777796399346
251,15564562.391937297
336,0.0
385,20.582669925133224
386,28.326521754856174
387,-17.609354538424157
388,0.0
425,0.0
450,0.0
451,0.0
452,-18.29180206248763
453,0.0
490,0.0
515,0.0
516,0.0
542,0.0
592,0.0
632,15407568.368620742
686,1.0
687,1.0
688,2.0
2,1, 1,21, 0, 7, 0.00,10.00,WinterDesignDay
250,19.654147818973165
251,14715088.952895049
336,0.0
385,19.916003258466557
386,28.326521754856174
387,-17.60945459546815
388,0.0
425,0.0
450,0.0
451,0.0
452,-18.291869633018557
453,0.0
490,0.0
515,0.0
516,0.0
542,0.0
592,0.0
632,14378793.838211648
686,1.0
687,1.0
688,2.0
2,1, 1,21, 0, 7,10.00,20.00,WinterDesignDay
250,19.95436104481365
251,13475895.087399017
336,0.0
385,19.916003258466557
386,28.326521754856174
387,-17.60946492778464
388,0.0
425,0.0
450,0.0
451,0.0
452,-18.29198957162218
453,0.0
490,0.0
515,0.0
516,0.0
542,0.0
592,0.0
632,13068682.331755832
686,1.0
687,1.0
688,2.0
2,1, 1,21, 0, 7,20.00,30.00,WinterDesignDay
250,20.193193321533233
251,14517735.181925928
336,0.0
385,20.582669925133224
386,28.326521754856174
387,-17.6093670582582
388,0.0
425,0.0
450,0.0
451,0.0
452,-18.29194725422165
453,0.0
490,0.0
515,0.0
516,0.0
542,0.0
592,0.0
632,14992820.017935062
686,1.0
687,1.0
688,2.0
2,1, 1,21, 0, 7,30.00,40.00,WinterDesignDay
250,20.547777964019353
251,15564562.418306693
336,0.0
385,20.582669925133224
386,28.326521754856174
387,-17.60935759903095
388,0.0
425,0.0
450,0.0
451,0.0
452,-18.291802354379612
453,0.0
490,0.0
515,0.0
516,0.0
542,0.0
592,0.0
632,15407568.394947026
686,1.0
687,1.0
688,2.0
2,1, 1,21, 0, 7,40.00,50.00,WinterDesignDay
250,19.65414781779201
251,14715088.973199021
336,0.0
385,19.91600325846653
386,28.326521754856135
387,-17.609457620667268
388,0.0
425,0.0
450,0.0
451,0.0
452,-18.29186992157535
453,0.0
490,0.0
515,0.0
516,0.0
542,0.0
592,0.0
632,14378793.858208792
686,0.9999999999999986
687,0.9999999999999986
688,1.9999999999999971
2,1, 1,21, 0, 7,50.00,60.00,WinterDesignDay
250,19.954361044752996
251,13475895.112264918
336,0.0
385,19.916003258466574
386,28.326521754856195
387,-17.609467915257632
388,0.0
425,0.0
450,0.0
451,0.0
452,-18.291989856469325
453,0.0
490,0.0
515,0.0
516,0.0
542,0.0
592,0.0
632,13068682.35682423
686,1.0000000000000009
687,1.0000000000000009
688,2.0000000000000018
2,1, 1,21, 0, 8, 0.00,10.00,WinterDesignDay
250,20.193193321694423
251,14517735.206625624
336,0.0
385,20.582669925133224
386,28.326521754856174
387,-17.60937000040555
388,0.0
425,0.0
450,0.0
451,0.0
452,-18.29194753471536
453,0.0
490,0.0
515,0.0
516,0.0
542,0.0
592,0.0
632,14992820.042746946
686,1.0
687,1.0
688,2.0
2,1, 1,21, 0, 8,10.00,20.00,WinterDesignDay
250,20.547777964043902
251,15564562.44331476
336,0.0
385,20.582669925133224
386,28.326521754856174
387,-17.609360501635557
388,0.0
425,0.0
450,0.0
451,0.0
452,-18.291802631206984
453,0.0
490,0.0
515,0.0
516,0.0
542,0.0
592,0.0
632,15407568.419914208
686,1.0
687,1.0
688,2.0
2,1, 1,21, 0, 8,20.00,30.00,WinterDesignDay
250,19.654147816671895
251,14715088.992454808
336,0.0
385,19.916003258466574
386,28.326521754856195
387,-17.609460489691713
388,0.0
425,0.0
450,0.0
451,0.0
452,-18.29187019523966
453,0.0
490,0.0
515,0.0
516,0.0
542,0.0
592,0.0
632,14378793.877173588
686,1.0000000000000007
687,1.0000000000000007
688,2.0000000000000013
2,1, 1,21, 0, 8,30.00,40.00,WinterDesignDay
250,19.954361044695464
251,13475895.13584704
336,0.0
385,19.916003258466574
386,28.326521754856195
387,-17.609470748503483
388,0.0
425,0.0
450,0.0
451,0.0
452,-18.291990126615318
453,0.0
490,0.0
515,0.0
516,0.0
542,0.0
592,0.0
632,13068682.380598396
686,1.0000000000000009
687,1.0000000000000009
688,2.0000000000000018
2,1, 1,21, 0, 8,40.00,50.00,WinterDesignDay
250,20.19319332184729
251,14517735.230050217
336,0.0
385,20.582669925133224
386,28.326521754856174
387,-17.60937279066587
388,0.0
425,0.0
450,0.0
451,0.0
452,-18.291947800732565
453,0.0
490,0.0
515,0.0
516,0.0
542,0.0
592,0.0
632,14992820.066277944
686,1.0
687,1.0
688,2.0
2,1, 1,21, 0, 8,50.00,60.00,WinterDesignDay
250,20.547777964067187
251,15564562.4670318
336,0.0
385,20.582669925133224
386,28.326521754856174
387,-17.609363254394257
388,0.0
425,0.0
450,0.0
451,0.0
452,-18.29180289374701
453,0.0
490,0.0
515,0.0
516,0.0
542,0.0
592,0.0
632,15407568.44359247
686,1.0
687,1.0
688,2.0
2,1, 1,21, 0, 9, 0.00,10.00,WinterDesignDay
250,19.65414781560956
251,14715089.010716539
336,0.0
385,19.916003258466557
386,28.326521754856174
387,-17.60946321060367
388,0.0
425,0.0
450,0.0
451,0.0
452,-18.291870454779744
453,0.0
490,0.0
515,0.0
516,0.0
542,0.0
592,0.0
632,14378793.895159353
686,1.0
687,1.0
688,2.0
2,1, 1,21, 0, 9,10.00,20.00,WinterDesignDay
250,19.954361044640883
251,13475895.15821171
336,0.0
385,19.916003258466557
386,28.326521754856174
387,-17.609473435483512
388,0.0
425,0.0
450,0.0
451,0.0
452,-18.291990382818657
453,0.0
490,0.0
515,0.0
516,0.0
542,0.0
592,0.0
632,13068682.403145198
686,1.0
687,1.0
688,2.0
2,1, 1,21, 0, 9,20.00,30.00,WinterDesignDay
250,20.19319332199226
251,14517735.252265524
336,0.0
385,20.582669925133224
386,28.326521754856174
387,-17.60937543687907
388,0.0
425,0.0
450,0.0
451,0.0
452,-18.291948053020178
453,0.0
490,0.0
515,0.0
516,0.0
542,0.0
592,0.0
632,14992820.088594157
686,1.0
687,1.0
688,2.0
2,1, 1,21, 0, 9,30.00,40.00,WinterDesignDay
250,20.547777964089274
251,15564562.48952436
336,0.0
385,20.582669925133224
386,28.326521754856174
387,-17.609365865041845
388,0.0
425,0.0
450,0.0
451,0.0
452,-18.29180314273684
453,0.0
490,0.0
515,0.0
516,0.0
542,0.0
592,0.0
632,15407568.466048257
686,1.0
687,1.0
688,2.0
2,1, 1,21, 0, 9,40.00,50.00,WinterDesignDay
250,19.654147814602048
251,14715089.028035482
336,0.0
385,19.91600325846653
386,28.326521754856135
387,-17.609465791048578
388,0.0
425,0.0
450,0.0
451,0.0
452,-18.291870700924385
453,0.0
490,0.0
515,0.0
516,0.0
542,0.0
592,0.0
632,14378793.912216572
686,0.9999999999999986
687,0.9999999999999986
688,1.9999999999999971
2,1, 1,21, 0, 9,50.00,60.00,WinterDesignDay
250,19.95436104458915
251,13475895.17942186
336,0.0
385,19.916003258466574
386,28.326521754856195
387,-17.609475983748784
388,0.0
425,0.0
450,0.0
451,0.0
452,-18.291990625798775
453,0.0
490,0.0
515,0.0
516,0.0
542,0.0
592,0.0
632,13068682.424528074
686,1.0000000000000009
687,1.0000000000000009
688,2.0000000000000018
2,1, 1,21, 0,10, 0.00,10.00,WinterDesignDay
250,20.193193322129755
251,14517735.273333881
336,0.0
385,20.582669925133224
386,28.326521754856174
387,-17.609377946482486
388,0.0
425,0.0
450,0.0
451,0.0
452,-18.291948292286605
453,0.0
490,0.0
515,0.0
516,0.0
542,0.0
592,0.0
632,14992820.109758213
686,1.0
687,1.0
688,2.0
2,1, 1,21, 0,10,10.00,20.00,WinterDesignDay
250,20.547777964110217
251,15564562.510855751
336,0.0
385,20.582669925133224
386,28.326521754856174
387,-17.609368340915914
388,0.0
425,0.0
450,0.0
451,0.0
452,-18.291803378875628
453,0.0
490,0.0
515,0.0
516,0.0
542,0.0
592,0.0
632,15407568.487344775
686,1.0
687,1.0
688,2.0
2,1, 1,21, 0,10,20.00,30.00,WinterDesignDay
250,19.654147813646627
251,14715089.044460237
336,0.0
385,19.916003258466574
386,28.326521754856195
387,-17.609468238279156
388,0.0
425,0.0
450,0.0
451,0.0
452,-18.29187093436485
453,0.0
490,0.0
515,0.0
516,0.0
542,0.0
592,0.0
632,14378793.928393114
686,1.0000000000000007
687,1.0000000000000007
688,2.0000000000000013
2,1, 1,21, 0,10,30.00,40.00,WinterDesignDay
250,19.95436104454007
251,13475895.199536882
336,0.0
385,19.916003258466574
386,28.326521754856195
387,-17.609478400460304
388,0.0
425,0.0
450,0.0
451,0.0
452,-18.29199085623795
453,0.0
490,0.0
515,0.0
516,0.0
542,0.0
592,0.0
632,13068682.444806907
686,1.0000000000000009
687,1.0000000000000009
688,2.0000000000000018
2,1, 1,21, 0,10,40.00,50.00,WinterDesignDay
250,20.193193322260143
251,14517735.29331453
336,0.0
385,20.582669925133224
386,28.326521754856174
387,-17.609380326527337
388,0.0
425,0.0
450,0.0
451,0.0
452,-18.291948519203753
453,0.0
490,0.0
515,0.0
516,0.0
542,0.0
592,0.0
632,14992820.12982962
686,1.0
687,1.0
688,2.0
2,1, 1,21, 0,10,50.00,60.00,WinterDesignDay
250,20.547777964130077
251,15564562.531085841
336,0.0
385,20.582669925133224
386,28.326521754856174
387,-17.609370688971936
388,0.0
425,0.0
450,0.0
451,0.0
452,-18.29180360282652
453,0.0
490,0.0
515,0.0
516,0.0
542,0.0
592,0.0
632,15407568.507541787
686,1.0
687,1.0
688,2.0
2,1, 1,21, 0,11, 0.00,10.00,WinterDesignDay
250,19.65414781274047
251,14715089.060037097
336,0.0
385,19.916003258466557
386,28.326521754856174
387,-17.609470559170347
388,0.0
425,0.0
450,0.0
451,0.0
452,-18.291871155756567
453,0.0
490,0.0
515,0.0
516,0.0
542,0.0
592,0.0
632,14378793.943734583
686,1.0
687,1.0
688,2.0
2,1, 1,21, 0,11,10.00,20.00,WinterDesignDay
250,19.954361044493513
251,13475895.218613612
336,0.0
385,19.916003258466557
386,28.326521754856174
387,-17.60948069240815
388,0.0
425,0.0
450,0.0
451,0.0
452,-18.291991074783272
453,0.0
490,0.0
515,0.0
516,0.0
542,0.0
592,0.0
632,13068682.464038989
686,1.0
687,1.0
688,2.0
2,1, 1,21, 0,11,20.00,30.00,WinterDesignDay
250,20.193193322383802
251,14517735.31226371
336,0.0
385,20.582669925133224
386,28.326521754856174
387,-17.609382583701954
388,0.0
425,0.0
450,0.0
451,0.0
452,-18.291948734408802
453,0.0
490,0.0
515,0.0
516,0.0
542,0.0
592,0.0
632,14992820.148864876
686,1.0
687,1.0
688,2.0
2,1, 1,21, 0,11,30.00,40.00,WinterDesignDay
250,20.547777964148917
251,15564562.550271625
336,0.0
385,20.582669925133224
386,28.326521754856174
387,-17.60937291580978
388,0.0
425,0.0
450,0.0
451,0.0
452,-18.29180381521835
453,0.0
490,0.0
515,0.0
516,0.0
542,0.0
592,0.0
632,15407568.526696203
686,1.0
687,1.0
688,2.0
2,1, 1,21, 0,11,40.00,50.00,WinterDesignDay
250,19.654147811881074
251,14715089.07480982
336,0.0
385,19.91600325846653
386,28.326521754856135
387,-17.609472760245964
388,0.0
425,0.0
450,0.0
451,0.0
452,-18.29187136572128
453,0.0
490,0.0
515,0.0
516,0.0
542,0.0
592,0.0
632,14378793.958284061
686,0.9999999999999986
687,0.9999999999999986
688,1.9999999999999971
2,1, 1,21, 0,11,50.00,60.00,WinterDesignDay
250,19.95436104444939
251,13475895.236705355
336,0.0
385,19.916003258466574
386,28.326521754856195
387,-17.609482866034732
388,0.0
425,0.0
450,0.0
451,0.0
452,-18.291991282048524
453,0.0
490,0.0
515,0.0
516,0.0
542,0.0
592,0.0
632,13068682.482278064
686,1.0000000000000009
687,1.0000000000000009
688,2.0000000000000018
2,1, 1,21, 0,12, 0.00,10.00,WinterDesignDay
250,20.19319332250108
251,14517735.330234557
336,0.0
385,20.582669925133224
386,28.326521754856174
387,-17.609384724350164
388,0.0
425,0.0
450,0.0
451,0.0
452,-18.291948938506135
453,0.0
490,0.0
515,0.0
516,0.0
542,0.0
592,0.0
632,14992820.16691735
686,1.0
687,1.0
688,2.0
2,1, 1,21, 0,12,10.00,20.00,WinterDesignDay
250,20.54777796416678
251,15564562.568466812
336,0.0
385,20.582669925133224
386,28.326521754856174
387,-17.609375027687086
388,0.0
425,0.0
450,0.0
451,0.0
452,-18.291804016647635
453,0.0
490,0.0
515,0.0
516,0.0
542,0.0
592,0.0
632,15407568.54486164
686,1.0
687,1.0
688,2.0
2,1, 1,21, 0,12,20.00,30.00,WinterDesignDay
250,19.654147811066125
251,14715089.088819865
336,0.0
385,19.916003258466574
386,28.326521754856195
387,-17.60947484769065
388,0.0
425,0.0
450,0.0
451,0.0
452,-18.291871564848734
453,0.0
490,0.0
515,0.0
516,0.0
542,0.0
592,0.0
632,14378793.972082388
686,1.0000000000000007
687,1.0000000000000007
688,2.0000000000000013
2,1, 1,21, 0,12,30.00,40.00,WinterDesignDay
250,19.954361044407527
251,13475895.253863115
336,0.0
385,19.916003258466574
386,28.326521754856195
387,-17.60948492744743
388,0.0
425,0.0
450,0.0
451,0.0
452,-18.291991478615746
453,0.0
490,0.0
515,0.0
516,0.0
542,0.0
592,0.0
632,13068682.499575555
686,1.0000000000000009
687,1.0000000000000009
688,2.0000000000000018
2,1, 1,21, 0,12,40.00,50.00,WinterDesignDay
250,20.1931933226123
251,14517735.347277734
336,0.0
385,20.582669925133224
386,28.326521754856174
387,-17.60938675448714
388,0.0
425,0.0
450,0.0
451,0.0
452,-18.291949132068954
453,0.0
490,0.0
515,0.0
516,0.0
542,0.0
592,0.0
632,14992820.184037937
686,1.0
687,1.0
688,2.0
2,1, 1,21, 0,12,50.00,60.00,WinterDesignDay
250,20.54777796418372
251,15564562.585722696
336,0.0
385,20.582669925133224
386,28.326521754856174
387,-17.609377030538187
388,0.0
425,0.0
450,0.0
451,0.0
452,-18.291804207680084
453,0.0
490,0.0
515,0.0
516,0.0
542,0.0
592,0.0
632,15407568.562089317
686,1.0
687,1.0
688,2.0
2,1, 1,21, 0,13, 0.00,10.00,WinterDesignDay
250,19.65414781029319
251,14715089.102106618
336,0.0
385,19.916003258466557
386,28.326521754856174
387,-17.60947682737049
388,0.0
425,0.0
450,0.0
451,0.0
452,-18.291871753698082
453,0.0
490,0.0
515,0.0
516,0.0
542,0.0
592,0.0
632,14378793.98516835
686,1.0
687,1.0
688,2.0
2,1, 1,21, 0,13,10.00,20.00,WinterDesignDay
250,19.954361044367815
251,13475895.27013508
336,0.0
385,19.916003258466557
386,28.326521754856174
387,-17.609486882438752
388,0.0
425,0.0
450,0.0
451,0.0
452,-18.29199166503702
453,0.0
490,0.0
515,0.0
516,0.0
542,0.0
592,0.0
632,13068682.515980033
686,1.0
687,1.0
688,2.0
2,1, 1,21, 0,13,20.00,30.00,WinterDesignDay
250,20.19319332271778
251,14517735.363441002
336,0.0
385,20.582669925133224
386,28.326521754856174
387,-17.60938867981698
388,0.0
425,0.0
450,0.0
451,0.0
452,-18.29194931564087
453,0.0
490,0.0
515,0.0
516,0.0
542,0.0
592,0.0
632,14992820.200274628
686,1.0
687,1.0
688,2.0
2,1, 1,21, 0,13,30.00,40.00,WinterDesignDay
250,20.54777796419979
251,15564562.602087844
336,0.0
385,20.582669925133224
386,28.326521754856174
387,-17.609378929991166
388,0.0
425,0.0
450,0.0
451,0.0
452,-18.2918043888522
453,0.0
490,0.0
515,0.0
516,0.0
542,0.0
592,0.0
632,15407568.57842771
686,1.0
687,1.0
688,2.0
2,1, 1,21, 0,13,40.00,50.00,WinterDesignDay
250,19.65414780956014
251,14715089.114707459
336,0.0
385,19.91600325846653
386,28.326521754856135
387,-17.609478704848563
388,0.0
425,0.0
450,0.0
451,0.0
452,-18.291871932799722
453,0.0
490,0.0
515,0.0
516,0.0
542,0.0
592,0.0
632,14378793.997578768
686,0.9999999999999986
687,0.9999999999999986
688,1.9999999999999971
2,1, 1,21, 0,13,50.00,60.00,WinterDesignDay
250,19.95436104433018
251,13475895.285567028
336,0.0
385,19.916003258466574
386,28.326521754856195
387,-17.609488736503245
388,0.0
425,0.0
450,0.0
451,0.0
452,-18.29199184183594
453,0.0
490,0.0
515,0.0
516,0.0
542,0.0
592,0.0
632,13068682.531537654
686,1.0000000000000009
687,1.0000000000000009
688,2.0000000000000018
2,1, 1,21, 0,14, 0.00,10.00,WinterDesignDay
250,20.193193322817816
251,14517735.378769891
336,0.0
385,20.582669925133224
386,28.326521754856174
387,-17.609390505751435
388,0.0
425,0.0
450,0.0
451,0.0
452,-18.291949489737473
453,0.0
490,0.0
515,0.0
516,0.0
542,0.0
592,0.0
632,14992820.215673143
686,1.0
687,1.0
688,2.0
2,1, 1,21, 0,14,10.00,20.00,WinterDesignDay
250,20.547777964215026
251,15564562.617608044
336,0.0
385,20.582669925133224
386,28.326521754856174
387,-17.6093807313843
388,0.0
425,0.0
450,0.0
451,0.0
452,-18.29180456067284
453,0.0
490,0.0
515,0.0
516,0.0
542,0.0
592,0.0
632,15407568.593922535
686,1.0
687,1.0
688,2.0
2,1, 1,21, 0,14,20.00,30.00,WinterDesignDay
250,19.654147808865012
251,14715089.126657786
336,0.0
385,19.916003258466574
386,28.326521754856195
387,-17.609480485400958
388,0.0
425,0.0
450,0.0
451,0.0
452,-18.291872102656793
453,0.0
490,0.0
515,0.0
516,0.0
542,0.0
592,0.0
632,14378794.009348502
686,1.0000000000000007
687,1.0000000000000007
688,2.0000000000000013
2,1, 1,21, 0,14,30.00,40.00,WinterDesignDay
250,19.954361044294476
251,13475895.30020234
336,0.0
385,19.916003258466574
386,28.326521754856195
387,-17.609490494850583
388,0.0
425,0.0
450,0.0
451,0.0
452,-18.29199200950906
453,0.0
490,0.0
515,0.0
516,0.0
542,0.0
592,0.0
632,13068682.54629215
686,1.0000000000000009
687,1.0000000000000009
688,2.0000000000000018
2,1, 1,21, 0,14,40.00,50.00,WinterDesignDay
250,20.193193322912688
251,14517735.39330738
336,0.0
385,20.582669925133224
386,28.326521754856174
387,-17.60939223742114
388,0.0
425,0.0
450,0.0
451,0.0
452,-18.291949654847755
453,0.0
490,0.0
515,0.0
516,0.0
542,0.0
592,0.0