Program Version,EnergyPlus, Version 24.2.0-94a887817b, YMD=2025.01.30 19:34
1,5,Environment Title[],Latitude[deg],Longitude[deg],Time Zone[],Elevation[m]
2,8,Day of Simulation[],Month[],Day of Month[],DST Indicator[1=yes 0=no],Hour[],StartMinute[],EndMinute[],DayType
3,5,Cumulative Day of Simulation[],Month[],Day of Month[],DST Indicator[1=yes 0=no],DayType  ! When Daily Report Variables Requested
4,2,Cumulative Days of Simulation[],Month[]  ! When Monthly Report Variables Requested
5,1,Cumulative Days of Simulation[] ! When Run Period Report Variables Requested
6,1,Calendar Year of Simulation[] ! When Annual Report Variables Requested
250,1,LIVING ZONE,Zone Air Temperature [C] !TimeStep,REPORTSCH
251,1,LIVING ZONE,Zone Air System Sensible Heating Energy [J] !TimeStep,REPORTSCH
336,1,LIVING ZONE,Zone Air System Sensible Cooling Energy [J] !TimeStep,REPORTSCH
385,1,LIVING ZONE,Zone Thermostat Heating Setpoint Temperature [C] !TimeStep,REPORTSCH
386,1,LIVING ZONE,Zone Thermostat Cooling Setpoint Temperature [C] !TimeStep,REPORTSCH
387,1,GARAGE ZONE,Zone Air Temperature [C] !TimeStep,REPORTSCH
388,1,GARAGE ZONE,Zone Air System Sensible Heating Energy [J] !TimeStep,REPORTSCH
425,1,GARAGE ZONE,Zone Air System Sensible Cooling Energy [J] !TimeStep,REPORTSCH
450,1,GARAGE ZONE,Zone Thermostat Heating Setpoint Temperature [C] !TimeStep,REPORTSCH
451,1,GARAGE ZONE,Zone Thermostat Cooling Setpoint Temperature [C] !TimeStep,REPORTSCH
452,1,ATTIC ZONE,Zone Air Temperature [C] !TimeStep,REPORTSCH
453,1,ATTIC ZONE,Zone Air System Sensible Heating Energy [J] !TimeStep,REPORTSCH
490,1,ATTIC ZONE,Zone Air System Sensible Cooling Energy [J] !TimeStep,REPORTSCH
515,1,ATTIC ZONE,Zone Thermostat Heating Setpoint Temperature [C] !TimeStep,REPORTSCH
516,1,ATTIC ZONE,Zone Thermostat Cooling Setpoint Temperature [C] !TimeStep,REPORTSCH
542,1,ACDXCOIL 1,Cooling Coil Total Cooling Energy [J] !TimeStep,REPORTSCH
592,1,HEAT PUMP DX HEATING COIL 1,Heating Coil Heating Energy [J] !TimeStep,REPORTSCH
632,1,SUPP HEATING COIL 1,Heating Coil Heating Energy [J] !TimeStep,REPORTSCH
686,1,TWOSPEED HEAT PUMP 1,Unitary System DX Coil Cycling Ratio [] !TimeStep,REPORTSCH
687,1,TWOSPEED HEAT PUMP 1,Unitary System DX Coil Speed Ratio [] !TimeStep,REPORTSCH
688,1,TWOSPEED HEAT PUMP 1,Unitary System DX Coil Speed Level [] !TimeStep,REPORTSCH
End of Data Dictionary
1,RUN PERIOD 1,  41.98, -87.92,  -6.00, 201.00
2,21, 1,21, 0, 1, 0.00,10.00,Monday
250,-0.7064024963428062
251,38060564.56730025
336,0.0
385,18.740205130140154
386,25.001532425461967
387,-0.9449129523103815
388,0.0
425,0.0
450,0.0
451,0.0
452,-1.972065504454105
453,0.0
490,0.0
515,0.0
516,0.0
542,0.0
592,4839743.985079641
632,32962784.085472554
686,1.0
687,1.0
688,2.0
2,21, 1,21, 0, 1,10.00,20.00,Monday
250,-0.7064476964955417
251,38062215.13253774
336,0.0
385,18.740205130140154
386,25.001532425461967
387,-0.9532803765171982
388,0.0
425,0.0
450,0.0
451,0.0
452,-1.9539323249972438
453,0.0
490,0.0
515,0.0
516,0.0
542,0.0
592,4823801.676011796
632,32979497.69611501
686,1.0
687,1.0
688,2.0
2,21, 1,21, 0, 1,20.00,30.00,Monday
250,-0.7065591699995251
251,38063938.23210199
336,0.0
385,18.740205130140154
386,25.001532425461967
387,-0.9628809871089686
388,0.0
425,0.0
450,0.0
451,0.0
452,-1.950850790495084
453,0.0
490,0.0
515,0.0
516,0.0
542,0.0
592,4807858.162905221
632,32997128.630343124
686,1.0
687,1.0
688,2.0
2,21, 1,21, 0, 1,30.00,40.00,Monday
250,-0.7068053733885891
251,38050937.42026912
336,0.0
385,18.740205130140154
386,25.001532425461967
387,-0.9739195164439092
388,0.0
425,0.0
450,0.0
451,0.0
452,-1.9637176719052556
453,0.0
490,0.0
515,0.0
516,0.0
542,0.0
592,4791913.445623511
632,33000000.0
686,1.0
687,1.0
688,2.0
2,21, 1,21, 0, 1,40.00,50.00,Monday
250,-0.7070858698005759
251,38035009.96722627
336,0.0
385,18.740205130140154
386,25.001532425461967
387,-0.9865533320329508
388,0.0
425,0.0
450,0.0
451,0.0
452,-1.9909134034738862
453,0.0
490,0.0
515,0.0
516,0.0
542,0.0
592,4775967.524030241
632,33000000.0
686,1.0
687,1.0
688,2.0
2,21, 1,21, 0, 1,50.00,60.00,Monday
250,-0.7073667591162947
251,38019063.059284635
336,0.0
385,18.740205130140154
386,25.001532425461967
387,-1.000971282736552
388,0.0
425,0.0
450,0.0
451,0.0
452,-2.0309075962958056
453,0.0
490,0.0
515,0.0
516,0.0
542,0.0
592,4760020.397988959
632,33000000.0
686,1.0
687,1.0
688,2.0
2,21, 1,21, 0, 2, 0.00,10.00,Monday
250,-0.7074831589296541
251,38018974.49973556
336,0.0
385,18.740205130140154
386,25.001532425461967
387,-1.016492138480813
388,0.0
425,0.0
450,0.0
451,0.0
452,-2.0776570541023687
453,0.0
490,0.0
515,0.0
516,0.0
542,0.0
592,4760020.397988958
632,33000000.0
686,1.0
687,1.0
688,2.0
2,21, 1,21, 0, 2,10.00,20.00,Monday
250,-0.7075946174979924
251,38018971.839261435
336,0.0
385,18.740205130140154
386,25.001532425461967
387,-1.0321743598682678
388,0.0
425,0.0
450,0.0
451,0.0
452,-2.1203766333667096
453,0.0
490,0.0
515,0.0
516,0.0
542,0.0
592,4760020.397988958
632,33000000.0
686,1.0
687,1.0
688,2.0
2,21, 1,21, 0, 2,20.00,30.00,Monday
250,-0.7077061801506082
251,38018971.89528704
336,0.0
385,18.740205130140154
386,25.001532425461967
387,-1.0474649667341942
388,0.0
425,0.0
450,0.0
451,0.0
452,-2.1518376746357926
453,0.0
490,0.0
515,0.0
516,0.0
542,0.0
592,4760020.397988958
632,33000000.0
686,1.0
687,1.0
688,2.0
2,21, 1,21, 0, 2,30.00,40.00,Monday
250,-0.7078155195209732
251,38018970.69820841
336,0.0
385,18.740205130140154
386,25.001532425461967
387,-1.0620427206017964
388,0.0
425,0.0
450,0.0
451,0.0
452,-2.171218466790808
453,0.0
490,0.0
515,0.0
516,0.0
542,0.0
592,4760020.397988958
632,33000000.0
686,1.0
687,1.0
688,2.0
2,21, 1,21, 0, 2,40.00,50.00,Monday
250,-0.7079232018337165
251,38018969.80599841
336,0.0
385,18.740205130140154
386,25.001532425461967
387,-1.0757670614044417
388,0.0
425,0.0
450,0.0
451,0.0
452,-2.1813595239524015
453,0.0
490,0.0
515,0.0
516,0.0
542,0.0
592,4760020.397988958
632,33000000.0
686,1.0
687,1.0
688,2.0
2,21, 1,21, 0, 2,50.00,60.00,Monday
250,-0.7080289709368385
251,38018968.775868
336,0.0
385,18.740205130140154
386,25.001532425461967
387,-1.0886004389315938
388,0.0
425,0.0
450,0.0
451,0.0
452,-2.185409050087341
453,0.0
490,0.0
515,0.0
516,0.0
542,0.0
592,4760020.397988958
632,33000000.0
686,1.0
687,1.0
688,2.0
2,21, 1,21, 0, 3, 0.00,10.00,Monday
250,-0.6261907998685281
251,37977386.15799537
336,0.0
385,18.740205130140154
386,25.001532425461967
387,-1.0901561927258578
388,0.0
425,0.0
450,0.0
451,0.0
452,-2.1779379447535456
453,0.0
490,0.0
515,0.0
516,0.0
542,0.0
592,4762558.894114007
632,33000000.0
686,1.0
687,1.0
688,2.0
2,21, 1,21, 0, 3,10.00,20.00,Monday
250,-0.5425303617778491
251,37978832.708414175
336,0.0
385,18.740205130140154
386,25.001532425461967
387,-1.079126562774549
388,0.0
425,0.0
450,0.0
451,0.0
452,-2.152969728275489
453,0.0
490,0.0
515,0.0
516,0.0
542,0.0
592,4764988.4357309695
632,33000000.0
686,1.0
687,1.0
688,2.0
2,21, 1,21, 0, 3,20.00,30.00,Monday
250,-0.4599014893087674
251,37940880.2306068
336,0.0
385,18.740205130140154
386,25.001532425461967
387,-1.0599235352181324
388,0.0
425,0.0
450,0.0
451,0.0
452,-2.109053971325175
453,0.0
490,0.0
515,0.0
516,0.0
542,0.0
592,4767308.250738334
632,32959174.1155467
686,1.0
687,1.0
688,2.0
2,21, 1,21, 0, 3,30.00,40.00,Monday
250,-0.37717267246817265
251,37897912.64817303
336,0.0
385,18.740205130140154
386,25.001532425461967
387,-1.036344600989977
388,0.0
425,0.0
450,0.0
451,0.0
452,-2.049320941532584
453,0.0
490,0.0
515,0.0
516,0.0
542,0.0
592,4769517.689516207
632,32914052.76892314
686,1.0
687,1.0
688,2.0
2,21, 1,21, 0, 3,40.00,50.00,Monday
250,-0.29440645056810194
251,37854933.93588266
336,0.0
385,18.740205130140154
386,25.001532425461967
387,-1.009700426856824
388,0.0
425,0.0
450,0.0
451,0.0
452,-1.9782543615176986
453,0.0
490,0.0
515,0.0
516,0.0
542,0.0
592,4771616.115684973
632,32868997.645874668
686,1.0
687,1.0
688,2.0
2,21, 1,21, 0, 3,50.00,60.00,Monday
250,-0.21161943847538614
251,37811950.940445
336,0.0
385,18.740205130140154
386,25.001532425461967
387,-0.9797800595895036
388,0.0
425,0.0
450,0.0
451,0.0
452,-1.8994732176645106
453,0.0
490,0.0
515,0.0
516,0.0
542,0.0
592,4773602.736238396
632,32824041.111743513
686,1.0
687,1.0
688,2.0
2,21, 1,21, 0, 4, 0.00,10.00,Monday
250,-0.21072579784569825
251,37813079.56778823
336,0.0
385,18.740205130140154
386,25.001532425461967
387,-0.9570640542929691
388,0.0
425,0.0
450,0.0
451,0.0
452,-1.8232651142582115
453,0.0
490,0.0
515,0.0
516,0.0
542,0.0
592,4773428.982371631
632,32781240.440920375
686,1.0
687,1.0
688,2.0
2,21, 1,21, 0, 4,10.00,20.00,Monday
250,-0.2112145109679132
251,37813406.3940941
336,0.0
385,18.740205130140154
386,25.001532425461967
387,-0.944423086365039
388,0.0
425,0.0
450,0.0
451,0.0
452,-1.758668296875303
453,0.0
490,0.0
515,0.0
516,0.0
542,0.0
592,4773255.169447958
632,32780996.591570575
686,1.0
687,1.0
688,2.0
2,21, 1,21, 0, 4,20.00,30.00,Monday
250,-0.21103386048247305
251,37813337.68055289
336,0.0
385,18.740205130140154
386,25.001532425461967
387,-0.9384081612689362
388,0.0
425,0.0
450,0.0
451,0.0
452,-1.709288461643888
453,0.0
490,0.0
515,0.0
516,0.0
542,0.0
592,4773081.297437258
632,32781462.24691312
686,1.0
687,1.0
688,2.0
2,21, 1,21, 0, 4,30.00,40.00,Monday
250,-0.21098903161963847
251,37813354.687735535
336,0.0
385,18.740205130140154
386,25.001532425461967
387,-0.9351646136281315
388,0.0
425,0.0
450,0.0
451,0.0
452,-1.6734690460164012
453,0.0
490,0.0
515,0.0
516,0.0
542,0.0
592,4772907.366309401
632,32781580.036221925
686,1.0
687,1.0
688,2.0
2,21, 1,21, 0, 4,40.00,50.00,Monday
250,-0.2109561268416367
251,37813375.75366341
336,0.0
385,18.740205130140154
386,25.001532425461967
387,-0.9328941873372469
388,0.0
425,0.0
450,0.0
451,0.0
452,-1.6475406580785923
453,0.0
490,0.0
515,0.0
516,0.0
542,0.0
592,4772733.376034233
632,32781768.67051895
686,1.0
687,1.0
688,2.0
2,21, 1,21, 0, 4,50.00,60.00,Monday
250,-0.21092174419431398
251,37813395.8074906
336,0.0
385,18.740205130140154
386,25.001532425461967
387,-0.9314038950173515
388,0.0
425,0.0
450,0.0
451,0.0
452,-1.6284441199445387
453,0.0
490,0.0
515,0.0
516,0.0
542,0.0
592,4772559.326581574
632,32781963.56975084
686,1.0
687,1.0
688,2.0
2,21, 1,21, 0, 5, 0.00,10.00,Monday
250,-0.21088932227181623
251,37813416.969722375
336,0.0
385,18.740205130140154
386,25.001532425461967
387,-0.9307434160354402
388,0.0
425,0.0
450,0.0
451,0.0
452,-1.61356340336771
453,0.0
490,0.0
515,0.0
516,0.0
542,0.0
592,4759720.85868958
632,32794822.143907677
686,1.0
687,1.0
688,2.0
2,21, 1,21, 0, 5,10.00,20.00,Monday
250,-0.2108444939426798
251,37814697.6684449
336,0.0
385,18.740205130140154
386,25.001532425461967
387,-0.9307770629660131
388,0.0
425,0.0
450,0.0
451,0.0
452,-1.6005878363790311
453,0.0
490,0.0
515,0.0
516,0.0
542,0.0
592,4746877.262331868
632,32808953.12152856
686,1.0
687,1.0
688,2.0
2,21, 1,21, 0, 5,20.00,30.00,Monday
250,-0.21079919717369983
251,37816007.28684572
336,0.0
385,18.740205130140154
386,25.001532425461967
387,-0.9312766920460024
388,0.0
425,0.0
450,0.0
451,0.0
452,-1.5881157243101383
453,0.0
490,0.0
515,0.0
516,0.0
542,0.0
592,4734028.534436011
632,32823111.72098182
686,1.0
687,1.0
688,2.0
2,21, 1,21, 0, 5,30.00,40.00,Monday
250,-0.21075445195748307
251,37817307.46356358
336,0.0
385,18.740205130140154
386,25.001532425461967
387,-0.9320391356582667
388,0.0
425,0.0
450,0.0
451,0.0
452,-1.5757134186557695
453,0.0
490,0.0
515,0.0
516,0.0
542,0.0
592,4721174.671927156
632,32837265.463982474
686,1.0
687,1.0
688,2.0
2,21, 1,21, 0, 5,40.00,50.00,Monday
250,-0.21070991131728786
251,37818610.2233155
336,0.0
385,18.740205130140154
386,25.001532425461967
387,-0.9329281866746157
388,0.0
425,0.0
450,0.0
451,0.0
452,-1.5634495059528726
453,0.0
490,0.0
515,0.0
516,0.0
542,0.0
592,4708315.671727969
632,32851427.11458538
686,1.0
687,1.0
688,2.0
2,21, 1,21, 0, 5,50.00,60.00,Monday
250,-0.21066529556328673
251,37819913.6574393
336,0.0
385,18.740205130140154
386,25.001532425461967
387,-0.9338644246146267
388,0.0
425,0.0
450,0.0
451,0.0
452,-1.5514749162068093
453,0.0
490,0.0
515,0.0
516,0.0
542,0.0
592,4695451.530758676
632,32865594.73098166
686,1.0
687,1.0
688,2.0
2,21, 1,21, 0, 6, 0.00,10.00,Monday
250,-0.2106187502044417
251,37821216.54762768
336,0.0
385,18.740205130140154
386,25.001532425461967
387,-0.9349343710492675
388,0.0
425,0.0
450,0.0
451,0.0
452,-1.5404855721300286
453,0.0
490,0.0
515,0.0
516,0.0
542,0.0
592,4695264.08225586
632,32867086.109960653
686,1.0
687,1.0
688,2.0
2,21, 1,21, 0, 6,10.00,20.00,Monday
250,-0.2105848956654041
251,37821258.862176664
336,0.0
385,18.740205130140154
386,25.001532425461967
387,-0.9362215569961589
388,0.0
425,0.0
450,0.0
451,0.0
452,-1.5312946068533062
453,0.0
490,0.0
515,0.0
516,0.0
542,0.0
592,4695076.569900009
632,32867309.100574873
686,1.0
687,1.0
688,2.0
2,21, 1,21, 0, 6,20.00,30.00,Monday
250,-0.21055140780635637
251,37821272.69532674
336,0.0
385,18.740205130140154
386,25.001532425461967
387,-0.9377204848809256
388,0.0
425,0.0
450,0.0
451,0.0
452,-1.5242286826249267
453,0.0
490,0.0
515,0.0
516,0.0
542,0.0
592,4694888.993658494
632,32867510.31245733
686,1.0
687,1.0
688,2.0
2,21, 1,21, 0, 6,30.00,40.00,Monday
250,-0.21051738609713622
251,37821296.53331913
336,0.0
385,18.740205130140154
386,25.001532425461967
387,-0.9393892218322453
388,0.0
425,0.0
450,0.0
451,0.0
452,-1.519081711710696
453,0.0
490,0.0
515,0.0
516,0.0
542,0.0
592,4694701.353498662
632,32867722.07820633
686,1.0
687,1.0
688,2.0
2,21, 1,21, 0, 6,40.00,50.00,Monday
250,-0.2104830164289474
251,37821318.24919909
336,0.0
385,18.740205130140154
386,25.001532425461967
387,-0.9411958544094401
388,0.0
425,0.0
450,0.0
451,0.0
452,-1.5154037756186172
453,0.0
490,0.0
515,0.0
516,0.0
542,0.0
592,4694513.649387832
632,32867931.685656812
686,1.0
687,1.0
688,2.0
2,21, 1,21, 0, 6,50.00,60.00,Monday
250,-0.21044823414689318
251,37821339.568689175
336,0.0
385,18.740205130140154
386,25.001532425461967
387,-0.9431232283470194
388,0.0
425,0.0
450,0.0
451,0.0
452,-1.5127743755279577
453,0.0
490,0.0
515,0.0
516,0.0
542,0.0
592,4694325.881293308
632,32868140.995530065
686,1.0
687,1.0
688,2.0
2,21, 1,21, 0, 7, 0.00,10.00,Monday
250,-0.21133957092954392
251,37821859.821304135
336,0.0
385,18.740205130140154
386,25.001532425461967
387,-0.947594558784122
388,0.0
425,0.0
450,0.0
451,0.0
452,-1.5160605800320703
453,0.0
490,0.0
515,0.0
516,0.0
542,0.0
592,4723573.583255435
632,32838914.658905394
686,1.0
687,1.0
688,2.0
2,21, 1,21, 0, 7,10.00,20.00,Monday
250,-0.21131273540396786
251,37818963.14104249
336,0.0
385,18.740205130140154
386,25.001532425461967
387,-0.956783916847042
388,0.0
425,0.0
450,0.0
451,0.0
452,-1.5347345611234515
453,0.0
490,0.0
515,0.0
516,0.0
542,0.0
592,4752837.186047653
632,32807248.981241487
686,1.0
687,1.0
688,2.0
2,21, 1,21, 0, 7,20.00,30.00,Monday
250,-0.21125627948999173
251,37815982.818967335
336,0.0
385,18.740205130140154
386,25.001532425461967
387,-0.9709316942767523
388,0.0
425,0.0
450,0.0
451,0.0
452,-1.574167798743612
453,0.0
490,0.0
515,0.0
516,0.0
542,0.0
592,4782116.702651945
632,32775005.095060203
686,1.0
687,1.0
688,2.0
2,21, 1,21, 0, 7,30.00,40.00,Monday
250,-0.21120714052990958
251,37813028.540553994
336,0.0
385,18.740205130140154
386,25.001532425461967
387,-0.989082273968299
388,0.0
425,0.0
450,0.0
451,0.0
452,-1.6319804390336587
453,0.0
490,0.0
515,0.0
516,0.0
542,0.0
592,4811412.146064443
632,32742751.43025303
686,1.0
687,1.0
688,2.0
2,21, 1,21, 0, 7,40.00,50.00,Monday
250,-0.21115566557230572
251,37810066.92936702
336,0.0
385,18.740205130140154
386,25.001532425461967
387,-1.010156438905407
388,0.0
425,0.0
450,0.0
451,0.0
452,-1.7019177637483225
453,0.0
490,0.0
515,0.0
516,0.0
542,0.0
592,4840723.5292954575
632,32710479.691761583
686,1.0
687,1.0
688,2.0
2,21, 1,21, 0, 7,50.00,60.00,Monday
250,-0.2111032955489785
251,37807102.81717028
336,0.0
385,18.740205130140154
386,25.001532425461967
387,-1.0334069015704082
388,0.0
425,0.0
450,0.0
451,0.0
452,-1.7782851168847926
453,0.0
490,0.0
515,0.0
516,0.0
542,0.0
592,4870050.865369482
632,32678188.72331117
686,1.0
687,1.0
688,2.0
2,21, 1,21, 0, 8, 0.00,10.00,Monday
250,-0.010719343007337364
251,37696271.51325271
336,0.0
385,18.740205130140154
386,25.001532425461967
387,-1.0295119279743759
388,0.0
425,0.0
450,0.0
451,0.0
452,-1.837240839359553
453,0.0
490,0.0
515,0.0
516,0.0
542,0.0
592,4889730.300311493
632,32655543.66051896
686,1.0
687,1.0
688,2.0
2,21, 1,21, 0, 8,10.00,20.00,Monday
250,0.18981261660497453
251,37590583.45839898
336,0.0
385,18.740205130140154
386,25.001532425461967
387,-0.9879443156381295
388,0.0
425,0.0
450,0.0
451,0.0
452,-1.8284210922526922
453,0.0
490,0.0
515,0.0
516,0.0
542,0.0
592,4909380.719869506
632,32530291.44360937
686,1.0
687,1.0
688,2.0
2,21, 1,21, 0, 8,20.00,30.00,Monday
250,0.3884023373213086
251,37486058.25532662
336,0.0
385,18.740205130140154
386,25.001532425461967
387,-0.9169218324693519
388,0.0
425,0.0
450,0.0
451,0.0
452,-1.7210432217695908
453,0.0
490,0.0
515,0.0
516,0.0
542,0.0
592,4929009.6156952735
632,32405098.38307202
686,1.0
687,1.0
688,2.0
2,21, 1,21, 0, 8,30.00,40.00,Monday
250,0.5875569822421407
251,37381185.62050556
336,0.0
385,18.740205130140154
386,25.001532425461967
387,-0.8265941278482193
388,0.0
425,0.0
450,0.0
451,0.0
452,-1.5255173011026564
453,0.0
490,0.0
515,0.0
516,0.0
542,0.0
592,4952863.646772657
632,32276682.738360707
686,1.0
687,1.0
688,2.0
2,21, 1,21, 0, 8,40.00,50.00,Monday
250,0.7867861018497604
251,37275869.95903121
336,0.0
385,18.740205130140154
386,25.001532425461967
387,-0.7249434816263216
388,0.0
425,0.0
450,0.0
451,0.0
452,-1.2498949449862498
453,0.0
490,0.0
515,0.0
516,0.0
542,0.0
592,4977062.298687916
632,32147214.222087327
686,1.0
687,1.0
688,2.0
2,21, 1,21, 0, 8,50.00,60.00,Monday
250,0.9867148228115346
251,37171105.109801486
336,0.0
385,18.740205130140154
386,25.001532425461967
387,-0.6290356269529819
388,0.0
425,0.0
450,0.0
451,0.0
452,-0.9368575977042484
453,0.0
490,0.0
515,0.0
516,0.0
542,0.0
592,5001395.306277513
632,31965388.232347578
686,1.0
687,1.0
688,2.0
2,21, 1,21, 0, 9, 0.00,10.00,Monday
250,1.252288603967124
251,37032021.778101
336,0.0
385,18.740205130140154
386,25.001532425461967
387,-0.49062262363872977
388,0.0
425,0.0
450,0.0
451,0.0
452,-0.45738934888677907
453,0.0
490,0.0
515,0.0
516,0.0
542,0.0
592,5029363.153609448
632,31815067.617441036
686,1.0
687,1.0
688,2.0
2,21, 1,21, 0, 9,10.00,20.00,Monday
250,1.5176977307426065
251,36892081.486531585
336,0.0
385,18.740205130140154
386,25.001532425461967
387,-0.3398107644758712
388,0.0
425,0.0
450,0.0
451,0.0
452,0.06683914780394332
453,0.0
490,0.0
515,0.0
516,0.0
542,0.0
592,5057356.862312016
632,31647091.512490597
686,1.0
687,1.0
688,2.0
2,21, 1,21, 0, 9,20.00,30.00,Monday
250,1.783238705418666
251,36752064.95609717
336,0.0
385,18.740205130140154
386,25.001532425461967
387,-0.1799065010912005
388,0.0
425,0.0
450,0.0
451,0.0
452,0.6315303570433797
453,0.0
490,0.0
515,0.0
516,0.0
542,0.0
592,5085392.284952975
632,31479075.486710288
686,1.0
687,1.0
688,2.0
2,21, 1,21, 0, 9,30.00,40.00,Monday
250,2.048725219834214
251,36612075.90910193
336,0.0
385,18.740205130140154
386,25.001532425461967
387,-0.010167788598224028
388,0.0
425,0.0
450,0.0
451,0.0
452,1.2261607759158506
453,0.0
490,0.0
515,0.0
516,0.0
542,0.0
592,5113485.892141593
632,31310979.627184235
686,1.0
687,1.0
688,2.0
2,21, 1,21, 0, 9,40.00,50.00,Monday
250,2.3144767719347232
251,36470960.221373
336,0.0
385,18.74020513014017
386,25.00153242546199
387,0.13499158330871486
388,0.0
425,0.0
450,0.0
451,0.0
452,1.7279159862631226
453,0.0
490,0.0
515,0.0
516,0.0
542,0.0
592,5141654.529350725
632,31118170.187850893
686,1.0000000000000009
687,1.0000000000000009
688,2.0000000000000018
2,21, 1,21, 0, 9,50.00,60.00,Monday
250,2.5803586195508856
251,36330220.00223015
336,0.0
385,18.740205130140154
386,25.001532425461967
387,0.28714301929352926
388,0.0
425,0.0
450,0.0
451,0.0
452,2.2684656546442072
453,0.0
490,0.0
515,0.0
516,0.0
542,0.0
592,5169915.672059795
632,30974018.058109507
686,1.0
687,1.0
688,2.0
2,21, 1,21, 0,10, 0.00,10.00,Monday
250,3.0428331772722617
251,36084840.830137834
336,0.0
385,18.740205130140154
386,25.001532425461967
387,0.4776137094738845
388,0.0
425,0.0
450,0.0
451,0.0
452,2.827826868919364
453,0.0
490,0.0
515,0.0
516,0.0
542,0.0
592,5241404.10703412
632,30667706.44909829
686,1.0
687,1.0
688,2.0
2,21, 1,21, 0,10,10.00,20.00,Monday
250,3.5063703527674694
251,35839504.16606812
336,0.0
385,18.740205130140154
386,25.001532425461967
387,0.7686625785531206
388,0.0
425,0.0
450,0.0
451,0.0
452,3.582731800955011
453,0.0
490,0.0
515,0.0
516,0.0
542,0.0
592,5315291.857316207
632,30347639.20700216
686,1.0
687,1.0
688,2.0
2,21, 1,21, 0,10,20.00,30.00,Monday
250,3.970232136773306
251,35592728.14500377
336,0.0
385,18.740205130140147
386,25.001532425461956
387,1.0490526339215775
388,0.0
425,0.0
450,0.0
451,0.0
452,4.2717320373265535
453,0.0
490,0.0
515,0.0
516,0.0
542,0.0
592,5391793.298050373
632,30024462.546585023
686,0.9999999999999996
687,0.9999999999999996
688,1.9999999999999991
2,21, 1,21, 0,10,30.00,40.00,Monday
250,4.434283179269834
251,35345716.65793397
336,0.0
385,18.74020513014016
386,25.001532425461978
387,1.330820136215716
388,0.0
425,0.0
450,0.0
451,0.0
452,4.973538836967897
453,0.0
490,0.0
515,0.0
516,0.0
542,0.0
592,5471132.199313744
632,29698190.609821334
686,1.0000000000000004
687,1.0000000000000004
688,2.000000000000001
2,21, 1,21, 0,10,40.00,50.00,Monday
250,4.898593795076886
251,35098424.744024724
336,0.0
385,18.74020513014017
386,25.00153242546199
387,1.62095876650881
388,0.0
425,0.0
450,0.0
451,0.0
452,5.737613513760657
453,0.0
490,0.0
515,0.0
516,0.0
542,0.0
592,5553542.375759332
632,29368581.898604333
686,1.0000000000000009
687,1.0000000000000009
688,2.0000000000000018
2,21, 1,21, 0,10,50.00,60.00,Monday
250,5.362919460614384
251,34850977.44902303
336,0.0
385,18.74020513014017
386,25.00153242546199
387,1.921182965468663
388,0.0
425,0.0
450,0.0
451,0.0
452,6.566689445602776
453,0.0
490,0.0
515,0.0
516,0.0
542,0.0
592,5639267.778995938
632,29035460.840837713
686,1.0000000000000009
687,1.0000000000000009
688,2.0000000000000018
2,21, 1,21, 0,11, 0.00,10.00,Monday
250,5.646438153817585
251,34700108.30909079
336,0.0
385,18.740205130140154
386,25.001532425461967
387,2.2076921281725292
388,0.0
425,0.0
450,0.0
451,0.0
452,7.421917819112791
453,0.0
490,0.0
515,0.0
516,0.0
542,0.0
592,5689519.861596226
632,28802091.774703838
686,1.0
687,1.0
688,2.0
2,21, 1,21, 0,11,10.00,20.00,Monday
250,5.929135616114971
251,34549620.872092426
336,0.0
385,18.740205130140154
386,25.001532425461967
387,2.4774620863282464
388,0.0
425,0.0
450,0.0
451,0.0
452,8.272450661893055
453,0.0
490,0.0
515,0.0
516,0.0
542,0.0
592,5740969.350869595
632,28600020.35820764
686,1.0
687,1.0
688,2.0
2,21, 1,21, 0,11,20.00,30.00,Monday
250,6.211894083336461
251,34399051.693049096
336,0.0
385,18.740205130140147
386,25.001532425461956
387,2.7496225801199183
388,0.0
425,0.0
450,0.0
451,0.0
452,9.119068330861158
453,0.0
490,0.0
515,0.0
516,0.0
542,0.0
592,5793671.095282218
632,28396776.851788543
686,0.9999999999999996
687,0.9999999999999996
688,1.9999999999999991
2,21, 1,21, 0,11,30.00,40.00,Monday
250,6.494351317943231
251,34248592.00321835
336,0.0
385,18.74020513014016
386,25.001532425461978
387,3.0269575537672146
388,0.0
425,0.0
450,0.0
451,0.0
452,9.940947575251908
453,0.0
490,0.0
515,0.0
516,0.0
542,0.0
592,5847681.4279665835
632,28192270.05211735
686,1.0000000000000004
687,1.0000000000000004
688,2.000000000000001
2,21, 1,21, 0,11,40.00,50.00,Monday
250,6.776677830387982
251,34098148.91747987
336,0.0
385,18.74020513014017
386,25.00153242546199
387,3.306065508632794
388,0.0
425,0.0
450,0.0
451,0.0
452,10.686498671796825
453,0.0
490,0.0
515,0.0
516,0.0
542,0.0
592,5903058.082199926
632,27986444.692333505
686,1.0000000000000009
687,1.0000000000000009
688,2.0000000000000018
2,21, 1,21, 0,11,50.00,60.00,Monday
250,7.058827707696009
251,33947745.726451285
336,0.0
385,18.74020513014017
386,25.00153242546199
387,3.583093860281081
388,0.0
425,0.0
450,0.0
451,0.0
452,11.322277159377654
453,0.0
490,0.0
515,0.0
516,0.0
542,0.0
592,5959860.237244541
632,27779225.95244254
686,1.0000000000000009
687,1.0000000000000009
688,2.0000000000000018
2,21, 1,21, 0,12, 0.00,10.00,Monday
250,7.325483028075588
251,33805624.818735324
336,0.0
385,18.740205130140154
386,25.001532425461967
387,3.8230941525464712
388,0.0
425,0.0
450,0.0
451,0.0
452,11.821411777504192
453,0.0
490,0.0
515,0.0
516,0.0
542,0.0
592,5991096.197635709
632,27628508.723058388
686,1.0
687,1.0
688,2.0
2,21, 1,21, 0,12,10.00,20.00,Monday
250,7.590371536391785
251,33667931.561545074
336,0.0
385,18.740205130140154
386,25.001532425461967
387,4.115485503965848
388,0.0
425,0.0
450,0.0
451,0.0
452,12.385404696254723
453,0.0
490,0.0
515,0.0
516,0.0
542,0.0
592,7572016.881221027
632,25908027.132904522
686,1.0
687,1.0
688,2.0
2,21, 1,21, 0,12,20.00,30.00,Monday
250,7.856151236306382
251,33528045.342119016
336,0.0
385,18.740205130140154
386,25.001532425461967
387,4.384606625467574
388,0.0
425,0.0
450,0.0
451,0.0
452,12.900635294138652
453,0.0
490,0.0
515,0.0
516,0.0
542,0.0
592,7609409.155487607
632,25730975.86058166
686,1.0
687,1.0
688,2.0
2,21, 1,21, 0,12,30.00,40.00,Monday
250,8.12181422330445
251,33388223.66291975
336,0.0
385,18.740205130140154
386,25.001532425461967
387,4.643423185220884
388,0.0
425,0.0
450,0.0
451,0.0
452,13.392283777338957
453,0.0
490,0.0
515,0.0
516,0.0
542,0.0
592,7646583.592010485
632,25553948.17245949
686,1.0
687,1.0
688,2.0
2,21, 1,21, 0,12,40.00,50.00,Monday
250,8.38743772659248
251,33248422.947318457
336,0.0
385,18.740205130140154
386,25.001532425461967
387,4.8978527951493085
388,0.0
425,0.0
450,0.0
451,0.0
452,13.834212982780912
453,0.0
490,0.0
515,0.0
516,0.0
542,0.0
592,7683540.190789656
632,25377180.354172215
686,1.0
687,1.0
688,2.0
2,21, 1,21, 0,12,50.00,60.00,Monday
250,8.653048829767169
251,33108628.131132536
336,0.0
385,18.740205130140154
386,25.001532425461967
387,5.146802900746339
388,0.0
425,0.0
450,0.0
451,0.0
452,14.202013507619482
453,0.0
490,0.0
515,0.0
516,0.0
542,0.0
592,7720278.951825122
632,25200643.933067515
686,1.0
687,1.0
688,2.0
2,21, 1,21, 0,13, 0.00,10.00,Monday
250,8.835896258841988
251,33010059.791071404
336,0.0
385,18.740205130140154
386,25.001532425461967
387,5.3791936414861015
388,0.0
425,0.0
450,0.0
451,0.0
452,14.49327194564204
453,0.0
490,0.0
515,0.0
516,0.0
542,0.0
592,7745410.487127085
632,25101871.739845023
686,1.0
687,1.0
688,2.0
2,21, 1,21, 0,13,10.00,20.00,Monday
250,9.018232475728064
251,32915687.18902092
336,0.0
385,18.740205130140154
386,25.001532425461967
387,5.597984404722633
388,0.0
425,0.0
450,0.0
451,0.0
452,14.722527900897411
453,0.0
490,0.0
515,0.0
516,0.0
542,0.0
592,7770439.060057999
632,24984775.0001868
686,1.0
687,1.0
688,2.0
2,21, 1,21, 0,13,20.00,30.00,Monday
250,9.201248240609228
251,32821075.966870453
336,0.0
385,18.740205130140154
386,25.001532425461967
387,5.802889606207891
388,0.0
425,0.0
450,0.0
451,0.0
452,14.905704178095515
453,0.0
490,0.0
515,0.0
516,0.0
542,0.0
592,7795364.67061786
632,24865617.526325073
686,1.0
687,1.0
688,2.0
2,21, 1,21, 0,13,30.00,40.00,Monday
250,9.384051950536014
251,32726608.175969098
336,0.0
385,18.740205130140154
386,25.001532425461967
387,5.997928947346715
388,0.0
425,0.0
450,0.0
451,0.0
452,15.0545778869936
453,0.0
490,0.0
515,0.0
516,0.0
542,0.0
592,7820187.318806681
632,24746225.325964488
686,1.0
687,1.0
688,2.0
2,21, 1,21, 0,13,40.00,50.00,Monday
250,9.566865361670926
251,32632168.730847884
336,0.0
385,18.740205130140154
386,25.001532425461967
387,6.186852598261085
388,0.0
425,0.0
450,0.0
451,0.0
452,15.173900305181855
453,0.0
490,0.0
515,0.0
516,0.0
542,0.0
592,7844907.0046244515
632,24627084.32455327
686,1.0
687,1.0
688,2.0
2,21, 1,21, 0,13,50.00,60.00,Monday
250,9.749666719202036
251,32537768.92034658
336,0.0
385,18.740205130140154
386,25.001532425461967
387,6.370960934583679
388,0.0
425,0.0
450,0.0
451,0.0
452,15.267310260914318
453,0.0
490,0.0
515,0.0
516,0.0
542,0.0
592,7869523.728071173
632,24508074.351720523
686,1.0
687,1.0
688,2.0
2,21, 1,21, 0,14, 0.00,10.00,Monday
250,9.949555487297333
251,32434173.167328324
336,0.0
385,18.740205130140154
386,25.001532425461967
387,6.5530924708940335
388,0.0
425,0.0
450,0.0
451,0.0
452,15.323410253652574
453,0.0
490,0.0
515,0.0
516,0.0
542,0.0
592,7896260.907308882
632,24386983.844398495
686,1.0
687,1.0
688,2.0
2,21, 1,21, 0,14,10.00,20.00,Monday
250,10.148947408442156
251,32330452.018297702
336,0.0
385,18.740205130140154
386,25.001532425461967
387,6.733378739694764
388,0.0
425,0.0
450,0.0
451,0.0
452,15.323881053991936
453,0.0
490,0.0
515,0.0
516,0.0
542,0.0
592,7922875.552815756
632,24256392.93276661
686,1.0
687,1.0
688,2.0
2,21, 1,21, 0,14,20.00,30.00,Monday
250,10.348180154235413
251,32226827.28351642
336,0.0
385,18.740205130140154
386,25.001532425461967
387,6.909662355021561
388,0.0
425,0.0
450,0.0
451,0.0
452,15.268255410679231
453,0.0
490,0.0
515,0.0
516,0.0
542,0.0
592,7949367.664591796
632,24126203.452856522
686,1.0
687,1.0
688,2.0
2,21, 1,21, 0,14,30.00,40.00,Monday
250,10.547309877423674
251,32123283.89615724
336,0.0
385,18.740205130140154
386,25.001532425461967
387,7.075991791353881
388,0.0
425,0.0
450,0.0
451,0.0
452,15.146008527878825
453,0.0
490,0.0
515,0.0
516,0.0
542,0.0
592,7975737.242637001
632,23996248.348438285
686,1.0
687,1.0
688,2.0
2,21, 1,21, 0,14,40.00,50.00,Monday
250,10.746347031830041
251,32019812.327409122
336,0.0
385,18.740205130140154
386,25.001532425461967
387,7.228673365125054
388,0.0
425,0.0
450,0.0
451,0.0
452,14.937420108277841
453,0.0
490,0.0
515,0.0
516,0.0
542,0.0
592,8001984.286951372
632,23866493.3954942
686,1.0
687,1.0
688,2.0
2,21, 1,21, 0,14,50.00,60.00,Monday
250,10.945320489219714
251,31916397.583525255
336,0.0
385,18.740205130140154
386,25.001532425461967
387,7.36799702937931
388,0.0
425,0.0
450,0.0
451,0.0
452,14.64553094637808
453,0.0
490,0.0
515,0.0
516,0.0
542,0.0
592,8028108.797534915
632,23736933.55992185
686,1.0
687,1.0
688,2.0
2,21, 1,21, 0,15, 0.00,10.00,Monday
250,11.21067943562261
251,31777856.207008667
336,0.0
385,18.740205130140154
386,25.001532425461967
387,7.4889656438247165
388,0.0