Program Version,EnergyPlus, Version 24.2.0-94a887817b, YMD=2025.02.04 15:40
1,5,Environment Title[],Latitude[deg],Longitude[deg],Time Zone[],Elevation[m]
2,8,Day of Simulation[],Month[],Day of Month[],DST Indicator[1=yes 0=no],Hour[],StartMinute[],EndMinute[],DayType
3,5,Cumulative Day of Simulation[],Month[],Day of Month[],DST Indicator[1=yes 0=no],DayType  ! When Daily Meters Requested
4,2,Cumulative Days of Simulation[],Month[]  ! When Monthly Meters Requested
5,1,Cumulative Days of Simulation[] ! When Run Period Meters Requested
6,1,Calendar Year of Simulation[] ! When Annual Meters Requested
11,9,Electricity:Facility [J] !Monthly [Value,Min,Day,Hour,Minute,Max,Day,Hour,Minute]
23,9,Electricity:Building [J] !Monthly [Value,Min,Day,Hour,Minute,Max,Day,Hour,Minute]
59,9,InteriorLights:Electricity [J] !Monthly [Value,Min,Day,Hour,Minute,Max,Day,Hour,Minute]
521,9,Electricity:HVAC [J] !Monthly [Value,Min,Day,Hour,Minute,Max,Day,Hour,Minute]
637,9,NaturalGas:Facility [J] !Monthly [Value,Min,Day,Hour,Minute,Max,Day,Hour,Minute]
649,9,NaturalGas:HVAC [J] !Monthly [Value,Min,Day,Hour,Minute,Max,Day,Hour,Minute]
13,11,Electricity:Facility [J] !RunPeriod [Value,Min,Month,Day,Hour,Minute,Max,Month,Day,Hour,Minute]
25,11,Electricity:Building [J] !RunPeriod [Value,Min,Month,Day,Hour,Minute,Max,Month,Day,Hour,Minute]
61,11,InteriorLights:Electricity [J] !RunPeriod [Value,Min,Month,Day,Hour,Minute,Max,Month,Day,Hour,Minute]
523,11,Electricity:HVAC [J] !RunPeriod [Value,Min,Month,Day,Hour,Minute,Max,Month,Day,Hour,Minute]
639,11,NaturalGas:Facility [J] !RunPeriod [Value,Min,Month,Day,Hour,Minute,Max,Month,Day,Hour,Minute]
651,11,NaturalGas:HVAC [J] !RunPeriod [Value,Min,Month,Day,Hour,Minute,Max,Month,Day,Hour,Minute]
End of Data Dictionary
1,RUN PERIOD 1,  41.98, -87.92,  -6.00, 201.00
4,31, 1
11,9822733668.06021,408891.4285714286, 5, 6,50,2979243.940382306,16,13,60
23,983683566.8291991,30000.0, 1, 1,10,609770.7006008814, 1, 9,10
59,970200000.0,30000.0, 1, 1,10,600000.0, 1, 8,10
521,8839050101.230986,378891.4285714286, 5, 6,50,2369473.239781425,16,13,60
637,179014937464.99158,28252434.513720386,21,16,10,41250000.0, 1, 1,10
649,179014937464.99158,28252434.513720386,21,16,10,41250000.0, 1, 1,10
4,59, 2
11,9356260961.784924,99999999999999.0, 5, 6,50,3020705.3806454283,22,15,30
23,859884840.7210435,99999999999999.0, 1, 1,10,-99999999999999.0, 1, 9,10
59,848160000.0,99999999999999.0, 1, 1,10,-99999999999999.0, 1, 8,10
521,8496376121.063895,99999999999999.0, 5, 6,50,2410934.680044547,22,15,30
637,158399811461.83466,26563893.1361333,23,12,10,-99999999999999.0, 1, 1,10
649,158399811461.83466,26563893.1361333,23,12,10,-99999999999999.0, 1, 1,10
4,90, 3
11,10970349020.677197,99999999999999.0, 5, 6,50,3227177.422577913,27,15,10
23,909791082.7570952,99999999999999.0, 1, 1,10,-99999999999999.0, 1, 9,10
59,897480000.0,99999999999999.0, 1, 1,10,-99999999999999.0, 1, 8,10
521,10060557937.920048,0.0,27,15,20,2617406.721977032,27,15,10
637,162487458780.51364,0.0,27,15,20,-99999999999999.0, 1, 1,10
649,162487458780.51364,0.0,27,15,20,-99999999999999.0, 1, 1,10
4,120, 4
11,9704219647.841267,30000.0,11,19,10,-99999999999999.0,27,15,10
23,942417324.7931473,99999999999999.0, 1, 1,10,-99999999999999.0, 1, 9,10
59,929520000.0,99999999999999.0, 1, 1,10,-99999999999999.0, 1, 8,10
521,8761802323.048143,99999999999999.0,27,15,20,-99999999999999.0,27,15,10
637,120309685741.04918,99999999999999.0,27,15,20,-99999999999999.0, 1, 1,10
649,120309685741.04918,99999999999999.0,27,15,20,-99999999999999.0, 1, 1,10
4,151, 5
11,9375921726.031939,99999999999999.0,11,19,10,3229674.796758944,20,11,10
23,983971106.5171981,99999999999999.0, 1, 1,10,625682.8563607882,28,13,10
59,970200000.0,99999999999999.0, 1, 1,10,-99999999999999.0, 1, 8,10
521,8391950619.514714,99999999999999.0,27,15,20,2619904.096158063,20,11,10
637,92935305220.09761,99999999999999.0,27,15,20,-99999999999999.0, 1, 1,10
649,92935305220.09761,99999999999999.0,27,15,20,-99999999999999.0, 1, 1,10
4,181, 6
11,7824004582.351501,99999999999999.0,11,19,10,-99999999999999.0,20,11,10
23,868537800.3512816,99999999999999.0, 1, 1,10,-99999999999999.0,28,13,10
59,856800000.0,99999999999999.0, 1, 1,10,-99999999999999.0, 1, 8,10
521,6955466782.00019,99999999999999.0,27,15,20,-99999999999999.0,20,11,10
637,41816576298.08961,99999999999999.0,27,15,20,-99999999999999.0, 1, 1,10
649,41816576298.08961,99999999999999.0,27,15,20,-99999999999999.0, 1, 1,10
4,212, 7
11,7376780584.110911,99999999999999.0,11,19,10,-99999999999999.0,20,11,10
23,983927066.9839863,99999999999999.0, 1, 1,10,-99999999999999.0,28,13,10
59,970200000.0,99999999999999.0, 1, 1,10,-99999999999999.0, 1, 8,10
521,6392853517.126864,99999999999999.0,27,15,20,-99999999999999.0,20,11,10
637,15006865124.681229,99999999999999.0,27,15,20,-99999999999999.0, 1, 1,10
649,15006865124.681229,99999999999999.0,27,15,20,-99999999999999.0, 1, 1,10
4,243, 8
11,6666803453.678785,99999999999999.0,11,19,10,-99999999999999.0,20,11,10
23,947015481.9680852,99999999999999.0, 1, 1,10,625785.4335031803,12,14,10
59,933840000.0,99999999999999.0, 1, 1,10,-99999999999999.0, 1, 8,10
521,5719787971.710704,99999999999999.0,27,15,20,-99999999999999.0,20,11,10
637,27976007885.074036,99999999999999.0,27,15,20,-99999999999999.0, 1, 1,10
649,27976007885.074036,99999999999999.0,27,15,20,-99999999999999.0, 1, 1,10
4,273, 9
11,7739281682.937279,99999999999999.0,11,19,10,3231258.020008754,25,14,20
23,905485248.0885212,99999999999999.0, 1, 1,10,-99999999999999.0,12,14,10
59,893160000.0,99999999999999.0, 1, 1,10,-99999999999999.0, 1, 8,10
521,6833796434.8487425,99999999999999.0,27,15,20,2621487.3194078724,25,14,20
637,64016255915.23099,99999999999999.0,27,15,20,-99999999999999.0, 1, 1,10
649,64016255915.23099,99999999999999.0,27,15,20,-99999999999999.0, 1, 1,10
4,304,10
11,10584161778.552986,99999999999999.0,11,19,10,-99999999999999.0,25,14,20
23,983707404.2040552,99999999999999.0, 1, 1,10,633608.0754570009,22,16,40
59,970200000.0,99999999999999.0, 1, 1,10,-99999999999999.0, 1, 8,10
521,9600454374.348919,99999999999999.0,27,15,20,-99999999999999.0,25,14,20
637,128365968048.06273,99999999999999.0,27,15,20,-99999999999999.0, 1, 1,10
649,128365968048.06273,99999999999999.0,27,15,20,-99999999999999.0, 1, 1,10
4,334,11
11,10451129655.561031,99999999999999.0,11,19,10,-99999999999999.0,25,14,20
23,905471082.7570952,99999999999999.0, 1, 1,10,-99999999999999.0,22,16,40
59,893160000.0,99999999999999.0, 1, 1,10,-99999999999999.0, 1, 8,10
521,9545658572.803902,99999999999999.0,27,15,20,-99999999999999.0,25,14,20
637,147619315919.62283,99999999999999.0,27,15,20,-99999999999999.0, 1, 1,10
649,147619315919.62283,99999999999999.0,27,15,20,-99999999999999.0, 1, 1,10
4,365,12
11,10435687945.176992,99999999999999.0,11,19,10,-99999999999999.0,25,14,20
23,946737324.7931472,99999999999999.0, 1, 1,10,-99999999999999.0,22,16,40
59,933840000.0,99999999999999.0, 1, 1,10,-99999999999999.0, 1, 8,10
521,9488950620.383821,99999999999999.0,27,15,20,-99999999999999.0,25,14,20
637,179852594836.48532,99999999999999.0,27,15,20,-99999999999999.0, 1, 1,10
649,179852594836.48532,99999999999999.0,27,15,20,-99999999999999.0, 1, 1,10
5,365
13,110307334706.77296,30000.0, 4,11,19,10,3231258.020008754, 9,25,14,20
25,11220629330.76568,30000.0, 1, 1, 1,10,633608.0754570009,10,22,16,40
61,11066760000.0,30000.0, 1, 1, 1,10,600000.0, 1, 1, 8,10
523,99086705376.00668,0.0, 3,27,15,20,2621487.3194078724, 9,25,14,20
639,1317800782695.734,0.0, 3,27,15,20,41250000.0, 1, 1, 1,10
651,1317800782695.734,0.0, 3,27,15,20,41250000.0, 1, 1, 1,10
1,RUN PERIOD 2,  41.98, -87.92,  -6.00, 201.00
4,1, 7
11,158830488.60922092,99999999999999.0,11,19,10,-99999999999999.0,25,14,20
23,41266242.03605292,99999999999999.0, 1, 1,10,-99999999999999.0,22,16,40
59,40680000.0,99999999999999.0, 1, 1,10,-99999999999999.0, 1, 8,10
521,117564246.57316807,99999999999999.0,27,15,20,-99999999999999.0,25,14,20
637,0.0,99999999999999.0,27,15,20,-99999999999999.0, 1, 1,10
649,0.0,99999999999999.0,27,15,20,-99999999999999.0, 1, 1,10
5,1
13,158830488.60922092,99999999999999.0, 4,11,19,10,-99999999999999.0, 9,25,14,20
25,41266242.03605292,99999999999999.0, 1, 1, 1,10,-99999999999999.0,10,22,16,40
61,40680000.0,99999999999999.0, 1, 1, 1,10,-99999999999999.0, 1, 1, 8,10
523,117564246.57316807,99999999999999.0, 3,27,15,20,-99999999999999.0, 9,25,14,20
639,0.0,99999999999999.0, 3,27,15,20,-99999999999999.0, 1, 1, 1,10
651,0.0,99999999999999.0, 3,27,15,20,-99999999999999.0, 1, 1, 1,10
End of Data
 Number of Records Written=          90
