Program Version,EnergyPlus, Version 24.2.0-94a887817b, YMD=2025.02.04 15:37
1,5,Environment Title[],Latitude[deg],Longitude[deg],Time Zone[],Elevation[m]
2,8,Day of Simulation[],Month[],Day of Month[],DST Indicator[1=yes 0=no],Hour[],StartMinute[],EndMinute[],DayType
3,5,Cumulative Day of Simulation[],Month[],Day of Month[],DST Indicator[1=yes 0=no],DayType  ! When Daily Report Variables Requested
4,2,Cumulative Days of Simulation[],Month[]  ! When Monthly Report Variables Requested
5,1,Cumulative Days of Simulation[] ! When Run Period Report Variables Requested
6,1,Calendar Year of Simulation[] ! When Annual Report Variables Requested
250,1,LIVING ZONE,Zone Air Temperature [C] !TimeStep,REPORTSCH
251,1,LIVING ZONE,Zone Air System Sensible Heating Energy [J] !TimeStep,REPORTSCH
336,1,LIVING ZONE,Zone Air System Sensible Cooling Energy [J] !TimeStep,REPORTSCH
385,1,LIVING ZONE,Zone Thermostat Heating Setpoint Temperature [C] !TimeStep,REPORTSCH
386,1,LIVING ZONE,Zone Thermostat Cooling Setpoint Temperature [C] !TimeStep,REPORTSCH
387,1,GARAGE ZONE,Zone Air Temperature [C] !TimeStep,REPORTSCH
388,1,GARAGE ZONE,Zone Air System Sensible Heating Energy [J] !TimeStep,REPORTSCH
425,1,GARAGE ZONE,Zone Air System Sensible Cooling Energy [J] !TimeStep,REPORTSCH
450,1,GARAGE ZONE,Zone Thermostat Heating Setpoint Temperature [C] !TimeStep,REPORTSCH
451,1,GARAGE ZONE,Zone Thermostat Cooling Setpoint Temperature [C] !TimeStep,REPORTSCH
452,1,ATTIC ZONE,Zone Air Temperature [C] !TimeStep,REPORTSCH
453,1,ATTIC ZONE,Zone Air System Sensible Heating Energy [J] !TimeStep,REPORTSCH
490,1,ATTIC ZONE,Zone Air System Sensible Cooling Energy [J] !TimeStep,REPORTSCH
515,1,ATTIC ZONE,Zone Thermostat Heating Setpoint Temperature [C] !TimeStep,REPORTSCH
516,1,ATTIC ZONE,Zone Thermostat Cooling Setpoint Temperature [C] !TimeStep,REPORTSCH
542,1,ACDXCOIL 1,Cooling Coil Total Cooling Energy [J] !TimeStep,REPORTSCH
592,1,HEAT PUMP DX HEATING COIL 1,Heating Coil Heating Energy [J] !TimeStep,REPORTSCH
632,1,SUPP HEATING COIL 1,Heating Coil Heating Energy [J] !TimeStep,REPORTSCH
686,1,TWOSPEED HEAT PUMP 1,Unitary System DX Coil Cycling Ratio [] !TimeStep,REPORTSCH
687,1,TWOSPEED HEAT PUMP 1,Unitary System DX Coil Speed Ratio [] !TimeStep,REPORTSCH
688,1,TWOSPEED HEAT PUMP 1,Unitary System DX Coil Speed Level [] !TimeStep,REPORTSCH
End of Data Dictionary
1,RUN PERIOD 1,  41.98, -87.92,  -6.00, 201.00
2,21, 1,21, 0, 1, 0.00,10.00,Monday
250,0.6732258246044754
251,37317924.14190489
336,0.0
385,18.23122839612518
386,24.403983938791566
387,-0.9149996841972858
388,0.0
425,0.0
450,0.0
451,0.0
452,-1.940442968019474
453,0.0
490,0.0
515,0.0
516,0.0
542,0.0
592,4839743.985079642
632,32222970.825326946
686,1.0
687,1.0
688,2.0
2,21, 1,21, 0, 1,10.00,20.00,Monday
250,0.6734210368766914
251,37319327.32011787
336,0.0
385,18.23122839612518
386,24.403983938791566
387,-0.9234443654528312
388,0.0
425,0.0
450,0.0
451,0.0
452,-1.9224227183297622
453,0.0
490,0.0
515,0.0
516,0.0
542,0.0
592,4823801.676011796
632,32236739.300637543
686,1.0
687,1.0
688,2.0
2,21, 1,21, 0, 1,20.00,30.00,Monday
250,0.6727794649389327
251,37321329.34273554
336,0.0
385,18.23122839612518
386,24.403983938791566
387,-0.9330971493835302
388,0.0
425,0.0
450,0.0
451,0.0
452,-1.919256094933377
453,0.0
490,0.0
515,0.0
516,0.0
542,0.0
592,4807858.162905221
632,32254234.370073818
686,1.0
687,1.0
688,2.0
2,21, 1,21, 0, 1,30.00,40.00,Monday
250,0.6723682305805453
251,37323165.477085695
336,0.0
385,18.23122839612518
386,24.403983938791566
387,-0.9441636439863305
388,0.0
425,0.0
450,0.0
451,0.0
452,-1.932012979300625
453,0.0
490,0.0
515,0.0
516,0.0
542,0.0
592,4791913.445623511
632,32272139.211107764
686,1.0
687,1.0
688,2.0
2,21, 1,21, 0, 1,40.00,50.00,Monday
250,0.6719484901843912
251,37325009.20681245
336,0.0
385,18.23122839612518
386,24.403983938791566
387,-0.9568020833285499
388,0.0
425,0.0
450,0.0
451,0.0
452,-1.9590919975910548
453,0.0
490,0.0
515,0.0
516,0.0
542,0.0
592,4775967.524030239
632,32289924.27332989
686,1.0
687,1.0
688,2.0
2,21, 1,21, 0, 1,50.00,60.00,Monday
250,0.6715131642246271
251,37326864.57021599
336,0.0
385,18.23122839612518
386,24.403983938791566
387,-0.9712017287439997
388,0.0
425,0.0
450,0.0
451,0.0
452,-1.9989252013260603
453,0.0
490,0.0
515,0.0
516,0.0
542,0.0
592,4760020.397988958
632,32307718.36160162
686,1.0
687,1.0
688,2.0
2,21, 1,21, 0, 2, 0.00,10.00,Monday
250,0.6710979037857091
251,37328709.11938516
336,0.0
385,18.23122839612518
386,24.403983938791566
387,-0.986696051499144
388,0.0
425,0.0
450,0.0
451,0.0
452,-2.045491859224905
453,0.0
490,0.0
515,0.0
516,0.0
542,0.0
592,4760020.397988958
632,32309573.704455934
686,1.0
687,1.0
688,2.0
2,21, 1,21, 0, 2,10.00,20.00,Monday
250,0.6706273904721671
251,37329074.925180085
336,0.0
385,18.23122839612518
386,24.403983938791566
387,-1.0023597263253718
388,0.0
425,0.0
450,0.0
451,0.0
452,-2.088074902569525
453,0.0
490,0.0
515,0.0
516,0.0
542,0.0
592,4760020.397988958
632,32309909.759723455
686,1.0
687,1.0
688,2.0
2,21, 1,21, 0, 2,20.00,30.00,Monday
250,0.6701515790293238
251,37329294.849441566
336,0.0
385,18.23122839612518
386,24.403983938791566
387,-1.0176472329659634
388,0.0
425,0.0
450,0.0
451,0.0
452,-2.1194656239881597
453,0.0
490,0.0
515,0.0
516,0.0
542,0.0
592,4760020.397988958
632,32310126.83155742
686,1.0
687,1.0
688,2.0
2,21, 1,21, 0, 2,30.00,40.00,Monday
250,0.6696887706969903
251,37329549.76909808
336,0.0
385,18.23122839612518
386,24.403983938791566
387,-1.0322381334861486
388,0.0
425,0.0
450,0.0
451,0.0
452,-2.1388496095718414
453,0.0
490,0.0
515,0.0
516,0.0
542,0.0
592,4760020.397988958
632,32310388.75244509
686,1.0
687,1.0
688,2.0
2,21, 1,21, 0, 2,40.00,50.00,Monday
250,0.6692345841821314
251,37329797.18286592
336,0.0
385,18.23122839612518
386,24.403983938791566
387,-1.04599041877605
388,0.0
425,0.0
450,0.0
451,0.0
452,-2.149020461978745
453,0.0
490,0.0
515,0.0
516,0.0
542,0.0
592,4760020.397988958
632,32310640.808443103
686,1.0
687,1.0
688,2.0
2,21, 1,21, 0, 2,50.00,60.00,Monday
250,0.6687899323658663
251,37330036.361364126
336,0.0
385,18.23122839612518
386,24.403983938791566
387,-1.0588648933906406
388,0.0
425,0.0
450,0.0
451,0.0
452,-2.153105219538461
453,0.0
490,0.0
515,0.0
516,0.0
542,0.0
592,4760020.397988958
632,32310885.120715152
686,1.0
687,1.0
688,2.0
2,21, 1,21, 0, 3, 0.00,10.00,Monday
250,0.7457172755758709
251,37288616.25221622
336,0.0
385,18.23122839612518
386,24.403983938791566
387,-1.0604963906468274
388,0.0
425,0.0
450,0.0
451,0.0
452,-2.1457015640446646
453,0.0
490,0.0
515,0.0
516,0.0
542,0.0
592,4762558.894114006
632,32308585.95537488
686,1.0
687,1.0
688,2.0
2,21, 1,21, 0, 3,10.00,20.00,Monday
250,0.8283845620087081
251,37245534.23337698
336,0.0
385,18.23122839612518
386,24.403983938791566
387,-1.0496216489125745
388,0.0
425,0.0
450,0.0
451,0.0
452,-2.120897219137236
453,0.0
490,0.0
515,0.0
516,0.0
542,0.0
592,4764988.4357309695
632,32266166.662553903
686,1.0
687,1.0
688,2.0
2,21, 1,21, 0, 3,20.00,30.00,Monday
250,0.9087168780243556
251,37203856.236341365
336,0.0
385,18.23122839612518
386,24.403983938791566
387,-1.030682349514812
388,0.0
425,0.0
450,0.0
451,0.0
452,-2.0771977072236787
453,0.0
490,0.0
515,0.0
516,0.0
542,0.0
592,4767308.250738335
632,32220913.416669056
686,1.0
687,1.0
688,2.0
2,21, 1,21, 0, 3,30.00,40.00,Monday
250,0.9894166645663923
251,37161947.37371423
336,0.0
385,18.23122839612518
386,24.403983938791566
387,-1.0074778160433615
388,0.0
425,0.0
450,0.0
451,0.0
452,-2.017678834917777
453,0.0
490,0.0
515,0.0
516,0.0
542,0.0
592,4769517.689516205
632,32176994.79628454
686,1.0
687,1.0
688,2.0
2,21, 1,21, 0, 3,40.00,50.00,Monday
250,1.0703941563401338
251,37119898.19231467
336,0.0
385,18.23122839612518
386,24.403983938791566
387,-0.981317434006624
388,0.0
425,0.0
450,0.0
451,0.0
452,-1.9468035372976997
453,0.0
490,0.0
515,0.0
516,0.0
542,0.0
592,4771616.115684973
632,32132998.560996693
686,1.0
687,1.0
688,2.0
2,21, 1,21, 0, 3,50.00,60.00,Monday
250,1.1514987764425322
251,37077790.025461055
336,0.0
385,18.23122839612518
386,24.403983938791566
387,-0.9520313735743106
388,0.0
425,0.0
450,0.0
451,0.0
452,-1.8682018084556564
453,0.0
490,0.0
515,0.0
516,0.0
542,0.0
592,4773602.736238396
632,32088974.08197499
686,1.0
687,1.0
688,2.0
2,21, 1,21, 0, 4, 0.00,10.00,Monday
250,1.1552660187226318
251,37077339.47889435
336,0.0
385,18.23122839612518
386,24.403983938791566
387,-0.9301164870889985
388,0.0
425,0.0
450,0.0
451,0.0
452,-1.792144618974642
453,0.0
490,0.0
515,0.0
516,0.0
542,0.0
592,4773428.982371633
632,32047047.97143949
686,1.0
687,1.0
688,2.0
2,21, 1,21, 0, 4,10.00,20.00,Monday
250,1.1533539235504675
251,37078514.33758498
336,0.0
385,18.23122839612518
386,24.403983938791566
387,-0.9180900337348576
388,0.0
425,0.0
450,0.0
451,0.0
452,-1.7276429887339104
453,0.0
490,0.0
515,0.0
516,0.0
542,0.0
592,4773255.169447958
632,32045337.948685482
686,1.0
687,1.0
688,2.0
2,21, 1,21, 0, 4,20.00,30.00,Monday
250,1.1538736990723835
251,37078237.71991534
336,0.0
385,18.23122839612518
386,24.403983938791566
387,-0.9124139159402009
388,0.0
425,0.0
450,0.0
451,0.0
452,-1.6783315961514227
453,0.0
490,0.0
515,0.0
516,0.0
542,0.0
592,4773081.29743726
632,32046544.927744586
686,1.0
687,1.0
688,2.0
2,21, 1,21, 0, 4,30.00,40.00,Monday
250,1.1541358031949809
251,37078139.81396958
336,0.0
385,18.23122839612518
386,24.403983938791566
387,-0.9093389505490462
388,0.0
425,0.0
450,0.0
451,0.0
452,-1.6426091035070065
453,0.0
490,0.0
515,0.0
516,0.0
542,0.0
592,4772907.3663094025
632,32046482.179831184
686,1.0
687,1.0
688,2.0
2,21, 1,21, 0, 4,40.00,50.00,Monday
250,1.1542416997398282
251,37078123.35264113
336,0.0
385,18.23122839612518
386,24.403983938791566
387,-0.9072530568160243
388,0.0
425,0.0
450,0.0
451,0.0
452,-1.6169602367404425
453,0.0
490,0.0
515,0.0
516,0.0
542,0.0
592,4772733.376034233
632,32046555.58052736
686,1.0
687,1.0
688,2.0
2,21, 1,21, 0, 4,50.00,60.00,Monday
250,1.1543655375546897
251,37078094.29207812
336,0.0
385,18.23122839612518
386,24.403983938791566
387,-0.9059529553468757
388,0.0
425,0.0
450,0.0
451,0.0
452,-1.5981612976622777
453,0.0
490,0.0
515,0.0
516,0.0
542,0.0
592,4772559.326581573
632,32046710.232078888
686,1.0
687,1.0
688,2.0
2,21, 1,21, 0, 5, 0.00,10.00,Monday
250,1.1544886446265543
251,37078065.78110376
336,0.0
385,18.23122839612518
386,24.403983938791566
387,-0.9054400008964134
388,0.0
425,0.0
450,0.0
451,0.0
452,-1.5834835639971876
453,0.0
490,0.0
515,0.0
516,0.0
542,0.0
592,4759720.85868958
632,32059519.795508888
686,1.0
687,1.0
688,2.0
2,21, 1,21, 0, 5,10.00,20.00,Monday
250,1.1546621281303246
251,37079184.244881615
336,0.0
385,18.23122839612518
386,24.403983938791566
387,-0.9055834607111837
388,0.0
425,0.0
450,0.0
451,0.0
452,-1.570653200234772
453,0.0
490,0.0
515,0.0
516,0.0
542,0.0
592,4746877.262331866
632,32073508.989888415
686,1.0
687,1.0
688,2.0
2,21, 1,21, 0, 5,20.00,30.00,Monday
250,1.1548461698947834
251,37080413.359839216
336,0.0
385,18.23122839612518
386,24.403983938791566
387,-0.9061821662859497
388,0.0
425,0.0
450,0.0
451,0.0
452,-1.558325599291459
453,0.0
490,0.0
515,0.0
516,0.0
542,0.0
592,4734028.534436013
632,32087592.52283153
686,1.0
687,1.0
688,2.0
2,21, 1,21, 0, 5,30.00,40.00,Monday
250,1.1550300470674078
251,37081610.42229273
336,0.0
385,18.23122839612518
386,24.403983938791566
387,-0.9070513982372768
388,0.0
425,0.0
450,0.0
451,0.0
452,-1.5460861644169304
453,0.0
490,0.0
515,0.0
516,0.0
542,0.0
592,4721174.671927155
632,32101643.362605486
686,1.0
687,1.0
688,2.0
2,21, 1,21, 0, 5,40.00,50.00,Monday
250,1.1552171657732875
251,37082808.47236405
336,0.0
385,18.23122839612518
386,24.403983938791566
387,-0.9080596127039934
388,0.0
425,0.0
450,0.0
451,0.0
452,-1.533995024458355
453,0.0
490,0.0
515,0.0
516,0.0
542,0.0
592,4708315.671727969
632,32115702.162376516
686,1.0
687,1.0
688,2.0
2,21, 1,21, 0, 5,50.00,60.00,Monday
250,1.1554088356812011
251,37084006.99523857
336,0.0
385,18.23122839612518
386,24.403983938791566
387,-0.9091250899715985
388,0.0
425,0.0
450,0.0
451,0.0
452,-1.5221910818290971
453,0.0
490,0.0
515,0.0
516,0.0
542,0.0
592,4695451.530758676
632,32129767.281320862
686,1.0
687,1.0
688,2.0
2,21, 1,21, 0, 6, 0.00,10.00,Monday
250,1.1556144279633802
251,37085198.41239349
336,0.0
385,18.23122839612518
386,24.403983938791566
387,-0.9103289161919154
388,0.0
425,0.0
450,0.0
451,0.0
452,-1.5113513647826688
453,0.0
490,0.0
515,0.0
516,0.0
542,0.0
592,4695264.082255858
632,32131153.65032971
686,1.0
687,1.0
688,2.0
2,21, 1,21, 0, 6,10.00,20.00,Monday
250,1.1557782867949888
251,37085237.1798366
336,0.0
385,18.23122839612518
386,24.403983938791566
387,-0.911750370207948
388,0.0
425,0.0
450,0.0
451,0.0
452,-1.5022966067051444
453,0.0
490,0.0
515,0.0
516,0.0
542,0.0
592,4695076.569900009
632,32131357.449392356
686,1.0
687,1.0
688,2.0
2,21, 1,21, 0, 6,20.00,30.00,Monday
250,1.1559431049212905
251,37085159.43037514
336,0.0
385,18.23122839612518
386,24.403983938791566
387,-0.9133821556306669
388,0.0
425,0.0
450,0.0
451,0.0
452,-1.495364995437289
453,0.0
490,0.0
515,0.0
516,0.0
542,0.0
592,4694888.993658494
632,32131467.79295492
686,1.0
687,1.0
688,2.0
2,21, 1,21, 0, 6,30.00,40.00,Monday
250,1.156104188287357
251,37085116.39315233
336,0.0
385,18.23122839612518
386,24.403983938791566
387,-0.9151820481448874
388,0.0
425,0.0
450,0.0
451,0.0
452,-1.4903459122369478
453,0.0
490,0.0
515,0.0
516,0.0
542,0.0
592,4694701.35349866
632,32131610.38414046
686,1.0
687,1.0
688,2.0
2,21, 1,21, 0, 6,40.00,50.00,Monday
250,1.156265702435619
251,37085070.91345792
336,0.0
385,18.23122839612518
386,24.403983938791566
387,-0.9171183463432742
388,0.0
425,0.0
450,0.0
451,0.0
452,-1.4867857289294373
453,0.0
490,0.0
515,0.0
516,0.0
542,0.0
592,4694513.649387832
632,32131752.840709854
686,1.0
687,1.0
688,2.0
2,21, 1,21, 0, 6,50.00,60.00,Monday
250,1.1564296506300678
251,37085021.720145926
336,0.0
385,18.23122839612518
386,24.403983938791566
387,-0.9191741055986706
388,0.0
425,0.0
450,0.0
451,0.0
452,-1.4842637961267329
453,0.0
490,0.0
515,0.0
516,0.0
542,0.0
592,4694325.881293308
632,32131892.726769157
686,1.0
687,1.0
688,2.0
2,21, 1,21, 0, 7, 0.00,10.00,Monday
250,1.1525939515105346
251,37087127.211453825
336,0.0
385,18.23122839612518
386,24.403983938791566
387,-0.9237871142799616
388,0.0
425,0.0
450,0.0
451,0.0
452,-1.4876277483130274
453,0.0
490,0.0
515,0.0
516,0.0
542,0.0
592,4723573.583255435
632,32102595.962576713
686,1.0
687,1.0
688,2.0
2,21, 1,21, 0, 7,10.00,20.00,Monday
250,1.1524882488323618
251,37084513.36108046
336,0.0
385,18.23122839612518
386,24.403983938791566
387,-0.9331158638886483
388,0.0
425,0.0
450,0.0
451,0.0
452,-1.5063195619213452
453,0.0
490,0.0
515,0.0
516,0.0
542,0.0
592,4752837.186047653
632,32072727.81001907
686,1.0
687,1.0
688,2.0
2,21, 1,21, 0, 7,20.00,30.00,Monday
250,1.1528061334305928
251,37081402.975195125
336,0.0
385,18.23122839612518
386,24.403983938791566
387,-0.9473613485575731
388,0.0
425,0.0
450,0.0
451,0.0
452,-1.5457435849953243
453,0.0
490,0.0
515,0.0
516,0.0
542,0.0
592,4782116.702651945
632,32040566.05802166
686,1.0
687,1.0
688,2.0
2,21, 1,21, 0, 7,30.00,40.00,Monday
250,1.1529914051151278
251,37078437.86652075
336,0.0
385,18.23122839612518
386,24.403983938791566
387,-0.9655409232753956
388,0.0
425,0.0
450,0.0
451,0.0
452,-1.6036176178344423
453,0.0
490,0.0
515,0.0
516,0.0
542,0.0
592,4811412.146064443
632,32008234.072322447
686,1.0
687,1.0
688,2.0
2,21, 1,21, 0, 7,40.00,50.00,Monday
250,1.1531854095795349
251,37075461.37327653
336,0.0
385,18.23122839612518
386,24.403983938791566
387,-0.986577260742689
388,0.0
425,0.0
450,0.0
451,0.0
452,-1.6736809051417496
453,0.0
490,0.0
515,0.0
516,0.0
542,0.0
592,4840723.52929546
632,31975950.89090454
686,1.0
687,1.0
688,2.0
2,21, 1,21, 0, 7,50.00,60.00,Monday
250,1.1533910813343236
251,37072471.48815214
336,0.0
385,18.23122839612518
386,24.403983938791566
387,-1.0097453382842017
388,0.0
425,0.0
450,0.0
451,0.0
452,-1.7501953680354043
453,0.0
490,0.0
515,0.0
516,0.0
542,0.0
592,4870050.865369484
632,31943639.944186933
686,1.0
687,1.0
688,2.0
2,21, 1,21, 0, 8, 0.00,10.00,Monday
250,1.3550223072389995
251,36961025.27413199
336,0.0
385,18.23122839612518
386,24.403983938791566
387,-1.0059019723259277
388,0.0
425,0.0
450,0.0
451,0.0
452,-1.8092522996274634
453,0.0
490,0.0
515,0.0
516,0.0
542,0.0
592,4889730.300311495
632,31920969.34404753
686,1.0
687,1.0
688,2.0
2,21, 1,21, 0, 8,10.00,20.00,Monday
250,1.5566621982569084
251,36854417.67449867
336,0.0
385,18.23122839612518
386,24.403983938791566
387,-0.9645611426226927
388,0.0
425,0.0
450,0.0
451,0.0
452,-1.8008342358605953
453,0.0
490,0.0
515,0.0
516,0.0
542,0.0
592,4909380.719869504
632,31794721.773243997
686,1.0
687,1.0
688,2.0
2,21, 1,21, 0, 8,20.00,30.00,Monday
250,1.750199711974597
251,36752648.37337495
336,0.0
385,18.23122839612518
386,24.403983938791566
387,-0.8928993246975525
388,0.0
425,0.0
450,0.0
451,0.0
452,-1.694092442260338
453,0.0
490,0.0
515,0.0
516,0.0
542,0.0
592,4929009.6156952735
632,31668967.651493147
686,1.0
687,1.0
688,2.0
2,21, 1,21, 0, 8,30.00,40.00,Monday
250,1.9456037151227497
251,36649739.09926564
336,0.0
385,18.23122839612518
386,24.403983938791566
387,-0.8013630504631238
388,0.0
425,0.0
450,0.0
451,0.0
452,-1.5007821280839915
453,0.0
490,0.0
515,0.0
516,0.0
542,0.0
592,4952863.6467726575
632,31543216.104805112
686,1.0
687,1.0
688,2.0
2,21, 1,21, 0, 8,40.00,50.00,Monday
250,2.1419810503510663
251,36545933.79646747
336,0.0
385,18.23122839612518
386,24.403983938791566
387,-0.6985631177946962
388,0.0
425,0.0
450,0.0
451,0.0
452,-1.2231524251134391
453,0.0
490,0.0
515,0.0
516,0.0
542,0.0
592,4977062.298687914
632,31415741.970358018
686,1.0
687,1.0
688,2.0
2,21, 1,21, 0, 8,50.00,60.00,Monday
250,2.3409272285803038
251,36441604.85022804
336,0.0
385,18.23122839612518
386,24.403983938791566
387,-0.6020673382209959
388,0.0
425,0.0
450,0.0
451,0.0
452,-0.9079943287822008
453,0.0
490,0.0
515,0.0
516,0.0
542,0.0
592,5001395.306277512
632,31237770.52973323
686,1.0
687,1.0
688,2.0
2,21, 1,21, 0, 9, 0.00,10.00,Monday
250,2.602801433349441
251,36304357.95807038
336,0.0
385,18.23122839612518
386,24.403983938791566
387,-0.46302746993720967
388,0.0
425,0.0
450,0.0
451,0.0
452,-0.4268710454662501
453,0.0
490,0.0
515,0.0
516,0.0
542,0.0
592,5029363.153609448
632,31089863.884384453
686,1.0
687,1.0
688,2.0
2,21, 1,21, 0, 9,10.00,20.00,Monday
250,2.8640772246639177
251,36166595.17955286
336,0.0
385,18.23122839612518
386,24.403983938791566
387,-0.31155377820523833
388,0.0
425,0.0
450,0.0
451,0.0
452,0.09765587812531425
453,0.0
490,0.0
515,0.0
516,0.0
542,0.0
592,5057356.862312016
632,30923748.363209452
686,1.0
687,1.0
688,2.0
2,21, 1,21, 0, 9,20.00,30.00,Monday
250,3.1256036082580643
251,36028679.00049181
336,0.0
385,18.23122839612518
386,24.403983938791566
387,-0.15158011483648154
388,0.0
425,0.0
450,0.0
451,0.0
452,0.662386503046199
453,0.0
490,0.0
515,0.0
516,0.0
542,0.0
592,5085392.284952975
632,30757879.59179271
686,1.0
687,1.0
688,2.0
2,21, 1,21, 0, 9,30.00,40.00,Monday
250,3.3868013378429147
251,35890940.20080249
336,0.0
385,18.23122839612518
386,24.403983938791566
387,0.018009262471611207
388,0.0
425,0.0
450,0.0
451,0.0
452,1.2571113828879246
453,0.0
490,0.0
515,0.0
516,0.0
542,0.0
592,5113485.892141593
632,30591954.82591296
686,1.0
687,1.0
688,2.0
2,21, 1,21, 0, 9,40.00,50.00,Monday
250,3.6494583044318425
251,35751529.95220078
336,0.0
385,18.231228396125193
386,24.403983938791587
387,0.1628881373615565
388,0.0
425,0.0
450,0.0
451,0.0
452,1.7597017285014116
453,0.0
490,0.0
515,0.0
516,0.0
542,0.0
592,5141654.529350725
632,30399014.622776374
686,1.0000000000000009
687,1.0000000000000009
688,2.0000000000000018
2,21, 1,21, 0, 9,50.00,60.00,Monday
250,3.9112280367129886
251,35612918.68626827
336,0.0
385,18.23122839612518
386,24.403983938791566
387,0.31494826995518155
388,0.0
425,0.0
450,0.0
451,0.0
452,2.3009972227315267
453,0.0
490,0.0
515,0.0
516,0.0
542,0.0
592,5169915.672059796
632,30258410.447665818
686,1.0
687,1.0
688,2.0
2,21, 1,21, 0,10, 0.00,10.00,Monday
250,4.359907688683509
251,35374932.97840949
336,0.0
385,18.23122839612518
386,24.40398393879157
387,0.5052682928046062
388,0.0
425,0.0
450,0.0
451,0.0
452,2.86124344718177
453,0.0
490,0.0
515,0.0
516,0.0
542,0.0
592,5241404.10703412
632,29956923.451780804
686,1.0
687,1.0
688,2.0
2,21, 1,21, 0,10,10.00,20.00,Monday
250,4.811422818892676
251,35135954.94537708
336,0.0
385,18.23122839612518
386,24.403983938791566
387,0.7964054457123793
388,0.0
425,0.0
450,0.0
451,0.0
452,3.61633305611132
453,0.0
490,0.0
515,0.0
516,0.0
542,0.0
592,5315291.857316207
632,29644048.959703676
686,1.0
687,1.0
688,2.0
2,21, 1,21, 0,10,20.00,30.00,Monday
250,5.265124537833332
251,34894595.168325275
336,0.0
385,18.23122839612517
386,24.403983938791555
387,1.0770250666896015
388,0.0
425,0.0
450,0.0
451,0.0
452,4.306317910072602
453,0.0
490,0.0
515,0.0
516,0.0
542,0.0
592,5391793.298050373
632,29326621.936301164
686,0.9999999999999996
687,0.9999999999999996
688,1.9999999999999991
2,21, 1,21, 0,10,30.00,40.00,Monday
250,5.719810013316554
251,34652576.52768682
336,0.0
385,18.231228396125186
386,24.403983938791576
387,1.3589766627829263
388,0.0
425,0.0
450,0.0
451,0.0
452,5.006808245249278
453,0.0
490,0.0
515,0.0
516,0.0
542,0.0
592,5471132.199313744
632,29005484.6416675
686,1.0000000000000004
687,1.0000000000000004
688,2.000000000000001
2,21, 1,21, 0,10,40.00,50.00,Monday
250,6.175778128986598
251,34409728.78614077
336,0.0
385,18.231228396125193
386,24.403983938791587
387,1.6492617242042689
388,0.0
425,0.0
450,0.0
451,0.0
452,5.770775781480323
453,0.0
490,0.0
515,0.0
516,0.0
542,0.0
592,5553542.375759332
632,28680506.86626755
686,1.0000000000000009
687,1.0000000000000009
688,2.0000000000000018
2,21, 1,21, 0,10,50.00,60.00,Monday
250,6.631850320133617
251,34166680.91625534
336,0.0
385,18.231228396125193
386,24.403983938791587
387,1.9496098766780108
388,0.0
425,0.0
450,0.0
451,0.0
452,6.600269529041329
453,0.0
490,0.0
515,0.0
516,0.0
542,0.0
592,5639267.778995938
632,28351799.95160851
686,1.0000000000000009
687,1.0000000000000009
688,2.0000000000000018
2,21, 1,21, 0,11, 0.00,10.00,Monday
250,6.915694881576135
251,34015637.78024549
336,0.0
385,18.23122839612518
386,24.40398393879157
387,2.2362229593674443
388,0.0
425,0.0
450,0.0
451,0.0
452,7.455621723092559
453,0.0
490,0.0
515,0.0
516,0.0
542,0.0
592,5689519.861596228
632,28119069.648684867
686,1.0
687,1.0
688,2.0
2,21, 1,21, 0,11,10.00,20.00,Monday
250,7.196633099873985
251,33866059.83160402
336,0.0
385,18.23122839612518
386,24.403983938791566
387,2.5060469587864667
388,0.0
425,0.0
450,0.0
451,0.0
452,8.306315518659666
453,0.0
490,0.0
515,0.0
516,0.0
542,0.0
592,5740969.350869596
632,27917451.02248708
686,1.0
687,1.0
688,2.0
2,21, 1,21, 0,11,20.00,30.00,Monday
250,7.4775630131178215
251,33716442.9370195
336,0.0
385,18.23122839612517
386,24.403983938791555
387,2.7782238061987448
388,0.0
425,0.0
450,0.0
451,0.0
452,9.15309859960089
453,0.0
490,0.0
515,0.0
516,0.0
542,0.0
592,5793671.095282219
632,27715148.91824474
686,0.9999999999999996
687,0.9999999999999996
688,1.9999999999999991
2,21, 1,21, 0,11,30.00,40.00,Monday
250,7.757094191290694
251,33567526.833937705
336,0.0
385,18.231228396125186
386,24.403983938791576
387,3.0555590813058493
388,0.0
425,0.0
450,0.0
451,0.0
452,9.975738348000661
453,0.0
490,0.0
515,0.0
516,0.0
542,0.0
592,5847681.4279665835
632,27511983.599965528
686,1.0000000000000004
687,1.0000000000000004
688,2.000000000000001
2,21, 1,21, 0,11,40.00,50.00,Monday
250,8.035965780692067
251,33418913.53418031
336,0.0
385,18.231228396125193
386,24.403983938791587
387,3.3346527921632783
388,0.0
425,0.0
450,0.0
451,0.0
452,10.721045621253566
453,0.0
490,0.0
515,0.0
516,0.0
542,0.0
592,5903058.082199926
632,27307889.576968905
686,1.0000000000000009
687,1.0000000000000009
688,2.0000000000000018
2,21, 1,21, 0,11,50.00,60.00,Monday
250,8.3139753621697
251,33270710.852903664
336,0.0
385,18.231228396125193
386,24.403983938791587
387,3.611652335648212
388,0.0
425,0.0
450,0.0
451,0.0
452,11.356193220410004
453,0.0
490,0.0
515,0.0
516,0.0
542,0.0
592,5959860.237244541
632,27102744.138886906
686,1.0000000000000009
687,1.0000000000000009
688,2.0000000000000018
2,21, 1,21, 0,12, 0.00,10.00,Monday
250,8.579625474157877
251,33129015.80677562
336,0.0
385,18.23122839612518
386,24.403983938791566
387,3.851565386347626
388,0.0
425,0.0
450,0.0
451,0.0
452,11.855541436910347
453,0.0
490,0.0
515,0.0
516,0.0
542,0.0
592,5991096.197635708
632,26954454.21546554
686,1.0
687,1.0
688,2.0
2,21, 1,21, 0,12,10.00,20.00,Monday
250,8.839013981652114
251,32994136.556666277
336,0.0
385,18.23122839612518
386,24.403983938791566
387,4.143912356438761
388,0.0
425,0.0
450,0.0
451,0.0
452,12.419482589013002
453,0.0
490,0.0
515,0.0
516,0.0
542,0.0
592,7572016.881221027
632,25236119.658091575
686,1.0
687,1.0
688,2.0
2,21, 1,21, 0,12,20.00,30.00,Monday
250,9.101951032093037
251,32855709.842551995
336,0.0
385,18.23122839612518
386,24.403983938791566
387,4.413014940982842
388,0.0
425,0.0
450,0.0
451,0.0
452,12.935404082373942
453,0.0
490,0.0
515,0.0
516,0.0
542,0.0
592,7609409.155487607
632,25061159.935844116
686,1.0
687,1.0
688,2.0
2,21, 1,21, 0,12,30.00,40.00,Monday
250,9.364074145329566
251,32717727.57749263
336,0.0
385,18.23122839612518
386,24.403983938791566
387,4.6718006034576
388,0.0
425,0.0
450,0.0
451,0.0
452,13.42646988993962
453,0.0
490,0.0
515,0.0
516,0.0
542,0.0
592,7646583.592010485
632,24885785.01627087
686,1.0
687,1.0
688,2.0
2,21, 1,21, 0,12,40.00,50.00,Monday
250,9.626020307679992
251,32579839.945659183
336,0.0
385,18.23122839612518
386,24.403983938791566
387,4.926198120279382
388,0.0
425,0.0
450,0.0
451,0.0
452,13.868045991682044
453,0.0
490,0.0
515,0.0
516,0.0
542,0.0
592,7683540.190789654
632,24710890.050062217
686,1.0
687,1.0
688,2.0
2,21, 1,21, 0,12,50.00,60.00,Monday
250,9.88784404009092
251,32442017.609185584
336,0.0
385,18.23122839612518
386,24.403983938791566
387,5.175118427600381
388,0.0
425,0.0
450,0.0
451,0.0
452,14.236003341930166
453,0.0
490,0.0
515,0.0
516,0.0
542,0.0
592,7720278.951825121
632,24536294.641563874
686,1.0
687,1.0
688,2.0
2,21, 1,21, 0,13, 0.00,10.00,Monday
250,10.06905562160381
251,32344618.091328308
336,0.0
385,18.23122839612518
386,24.403983938791566
387,5.407468897958271
388,0.0
425,0.0
450,0.0
451,0.0
452,14.527298489485041
453,0.0
490,0.0
515,0.0
516,0.0
542,0.0
592,7745410.487127085
632,24429076.11275847
686,1.0
687,1.0
688,2.0
2,21, 1,21, 0,13,10.00,20.00,Monday
250,10.248258393576275
251,32251607.56926106
336,0.0
385,18.23122839612518
386,24.403983938791566
387,5.6261950409150385
388,0.0
425,0.0
450,0.0
451,0.0
452,14.756462508075199
453,0.0
490,0.0
515,0.0
516,0.0
542,0.0
592,7770439.060057999
632,24319003.59138422
686,1.0
687,1.0
688,2.0
2,21, 1,21, 0,13,20.00,30.00,Monday
250,10.430149028950224
251,32157516.32187829
336,0.0
385,18.23122839612518
386,24.403983938791566
387,5.831029198787846
388,0.0
425,0.0
450,0.0
451,0.0
452,14.939571739890747
453,0.0
490,0.0
515,0.0
516,0.0
542,0.0
592,7795364.67061786
632,24201450.011323478
686,1.0
687,1.0
688,2.0
2,21, 1,21, 0,13,30.00,40.00,Monday
250,10.61150058908105
251,32063744.99091571
336,0.0
385,18.23122839612518
386,24.403983938791566
387,6.025991831341567
388,0.0
425,0.0
450,0.0
451,0.0
452,15.088521493320949
453,0.0
490,0.0
515,0.0
516,0.0
542,0.0
592,7820187.318806678
632,24082577.627650976
686,1.0
687,1.0
688,2.0
2,21, 1,21, 0,13,40.00,50.00,Monday
250,10.792615507918029
251,31970133.70484468
336,0.0
385,18.23122839612518
386,24.403983938791566
387,6.214831297846651
388,0.0
425,0.0
450,0.0
451,0.0
452,15.20776045074267
453,0.0
490,0.0
515,0.0
516,0.0
542,0.0
592,7844907.00462445
632,23964131.656691525
686,1.0
687,1.0
688,2.0
2,21, 1,21, 0,13,50.00,60.00,Monday
250,10.973676316805168
251,31876584.539193295
336,0.0
385,18.23122839612518
386,24.403983938791566
387,6.398850093921205
388,0.0
425,0.0
450,0.0
451,0.0
452,15.30098940790072
453,0.0
490,0.0
515,0.0
516,0.0
542,0.0
592,7869523.728071173
632,23845949.48846077
686,1.0
687,1.0
688,2.0
2,21, 1,21, 0,14, 0.00,10.00,Monday
250,11.173021051632348
251,31773192.3088849
336,0.0
385,18.23122839612518
386,24.403983938791566
387,6.580877766867507
388,0.0
425,0.0
450,0.0
451,0.0
452,15.356842006610314
453,0.0
490,0.0
515,0.0
516,0.0
542,0.0
592,7896260.907308879
632,23725708.575211532
686,1.0
687,1.0
688,2.0
2,21, 1,21, 0,14,10.00,20.00,Monday
250,11.370366395403732
251,31670527.55869323
336,0.0
385,18.23122839612518
386,24.403983938791566
387,6.7610414713410325
388,0.0
425,0.0
450,0.0
451,0.0
452,15.35701719492227
453,0.0
490,0.0
515,0.0
516,0.0
542,0.0
592,7922875.552815756
632,23595362.49112052
686,1.0
687,1.0
688,2.0
2,21, 1,21, 0,14,20.00,30.00,Monday
250,11.566886120378847
251,31568280.482491553
336,0.0
385,18.23122839612518
386,24.403983938791566
387,6.93718830121036
388,0.0
425,0.0
450,0.0
451,0.0
452,15.301074208335423
453,0.0
490,0.0
515,0.0
516,0.0
542,0.0
592,7949367.664591794
632,23466190.46686777
686,1.0
687,1.0
688,2.0
2,21, 1,21, 0,14,30.00,40.00,Monday
250,11.76289371168685
251,31466340.885936532
336,0.0
385,18.23122839612518
386,24.403983938791566
387,7.103376492623386
388,0.0
425,0.0
450,0.0
451,0.0
452,15.178515463473559
453,0.0
490,0.0
515,0.0
516,0.0
542,0.0
592,7975737.242637001
632,23337617.917765528
686,1.0
687,1.0
688,2.0
2,21, 1,21, 0,14,40.00,50.00,Monday
250,11.958397635845236
251,31364694.952263653
336,0.0
385,18.23122839612518
386,24.403983938791566
387,7.255913656211877
388,0.0
425,0.0
450,0.0
451,0.0
452,14.969645608198006
453,0.0
490,0.0
515,0.0
516,0.0
542,0.0
592,8001984.286951372
632,23209466.232920013
686,1.0
687,1.0
688,2.0
2,21, 1,21, 0,14,50.00,60.00,Monday
250,12.153465879846209
251,31263305.626237754
336,0.0
385,18.23122839612518
386,24.403983938791566
387,7.395087522837682
388,0.0
425,0.0
450,0.0
451,0.0
452,14.677548267087948
453,0.0
490,0.0
515,0.0
516,0.0
542,0.0
592,8028108.797534915
632,23081730.52581844
686,1.0
687,1.0
688,2.0
2,21, 1,21, 0,15, 0.00,10.00,Monday
250,12.412443579518847
251,31128157.74403955
336,0.0
385,18.23122839612518
386,24.403983938791566
387,7.515910477429305
388,0.0
425,0.0
450,0.0
451,0.0
452,14.381763797873711