Program Version,EnergyPlus, Version 24.2.0-94a887817b, YMD=2025.02.04 15:38
1,5,Environment Title[],Latitude[deg],Longitude[deg],Time Zone[],Elevation[m]
2,8,Day of Simulation[],Month[],Day of Month[],DST Indicator[1=yes 0=no],Hour[],StartMinute[],EndMinute[],DayType
3,5,Cumulative Day of Simulation[],Month[],Day of Month[],DST Indicator[1=yes 0=no],DayType  ! When Daily Report Variables Requested
4,2,Cumulative Days of Simulation[],Month[]  ! When Monthly Report Variables Requested
5,1,Cumulative Days of Simulation[] ! When Run Period Report Variables Requested
6,1,Calendar Year of Simulation[] ! When Annual Report Variables Requested
250,1,LIVING ZONE,Zone Air Temperature [C] !TimeStep,REPORTSCH
251,1,LIVING ZONE,Zone Air System Sensible Heating Energy [J] !TimeStep,REPORTSCH
336,1,LIVING ZONE,Zone Air System Sensible Cooling Energy [J] !TimeStep,REPORTSCH
385,1,LIVING ZONE,Zone Thermostat Heating Setpoint Temperature [C] !TimeStep,REPORTSCH
386,1,LIVING ZONE,Zone Thermostat Cooling Setpoint Temperature [C] !TimeStep,REPORTSCH
387,1,GARAGE ZONE,Zone Air Temperature [C] !TimeStep,REPORTSCH
388,1,GARAGE ZONE,Zone Air System Sensible Heating Energy [J] !TimeStep,REPORTSCH
425,1,GARAGE ZONE,Zone Air System Sensible Cooling Energy [J] !TimeStep,REPORTSCH
450,1,GARAGE ZONE,Zone Thermostat Heating Setpoint Temperature [C] !TimeStep,REPORTSCH
451,1,GARAGE ZONE,Zone Thermostat Cooling Setpoint Temperature [C] !TimeStep,REPORTSCH
452,1,ATTIC ZONE,Zone Air Temperature [C] !TimeStep,REPORTSCH
453,1,ATTIC ZONE,Zone Air System Sensible Heating Energy [J] !TimeStep,REPORTSCH
490,1,ATTIC ZONE,Zone Air System Sensible Cooling Energy [J] !TimeStep,REPORTSCH
515,1,ATTIC ZONE,Zone Thermostat Heating Setpoint Temperature [C] !TimeStep,REPORTSCH
516,1,ATTIC ZONE,Zone Thermostat Cooling Setpoint Temperature [C] !TimeStep,REPORTSCH
542,1,ACDXCOIL 1,Cooling Coil Total Cooling Energy [J] !TimeStep,REPORTSCH
592,1,HEAT PUMP DX HEATING COIL 1,Heating Coil Heating Energy [J] !TimeStep,REPORTSCH
632,1,SUPP HEATING COIL 1,Heating Coil Heating Energy [J] !TimeStep,REPORTSCH
686,1,TWOSPEED HEAT PUMP 1,Unitary System DX Coil Cycling Ratio [] !TimeStep,REPORTSCH
687,1,TWOSPEED HEAT PUMP 1,Unitary System DX Coil Speed Ratio [] !TimeStep,REPORTSCH
688,1,TWOSPEED HEAT PUMP 1,Unitary System DX Coil Speed Level [] !TimeStep,REPORTSCH
End of Data Dictionary
1,RUN PERIOD 1,  41.98, -87.92,  -6.00, 201.00
2,21, 1,21, 0, 1, 0.00,10.00,Monday
250,-0.808141114576524
251,38098063.443028904
336,0.0
385,17.2784691914519
386,25.264101677444785
387,-0.9470971252410296
388,0.0
425,0.0
450,0.0
451,0.0
452,-1.974431658448622
453,0.0
490,0.0
515,0.0
516,0.0
542,0.0
592,4839743.9850796405
632,33000000.0
686,1.0
687,1.0
688,2.0
2,21, 1,21, 0, 1,10.00,20.00,Monday
250,-0.8083066862961671
251,38082782.23404365
336,0.0
385,17.2784691914519
386,25.264101677444785
387,-0.9554589411270115
388,0.0
425,0.0
450,0.0
451,0.0
452,-1.9562886362913812
453,0.0
490,0.0
515,0.0
516,0.0
542,0.0
592,4823801.676011796
632,33000000.0
686,1.0
687,1.0
688,2.0
2,21, 1,21, 0, 1,20.00,30.00,Monday
250,-0.80851822332714
251,38066863.4696438
336,0.0
385,17.2784691914519
386,25.264101677444785
387,-0.9650558807406919
388,0.0
425,0.0
450,0.0
451,0.0
452,-1.9532097204878327
453,0.0
490,0.0
515,0.0
516,0.0
542,0.0
592,4807858.16290522
632,33000000.0
686,1.0
687,1.0
688,2.0
2,21, 1,21, 0, 1,30.00,40.00,Monday
250,-0.8087240122342166
251,38050915.662739605
336,0.0
385,17.2784691914519
386,25.264101677444785
387,-0.9760926647598446
388,0.0
425,0.0
450,0.0
451,0.0
452,-1.9660828850908576
453,0.0
490,0.0
515,0.0
516,0.0
542,0.0
592,4791913.445623511
632,33000000.0
686,1.0
687,1.0
688,2.0
2,21, 1,21, 0, 1,40.00,50.00,Monday
250,-0.8089314453216536
251,38034970.63115618
336,0.0
385,17.2784691914519
386,25.264101677444785
387,-0.9887265907168777
388,0.0
425,0.0
450,0.0
451,0.0
452,-1.9932872681985823
453,0.0
490,0.0
515,0.0
516,0.0
542,0.0
592,4775967.524030239
632,33000000.0
686,1.0
687,1.0
688,2.0
2,21, 1,21, 0, 1,50.00,60.00,Monday
250,-0.8091395224671398
251,38019023.85672963
336,0.0
385,17.2784691914519
386,25.264101677444785
387,-1.0031464526889466
388,0.0
425,0.0
450,0.0
451,0.0
452,-2.0332937514829084
453,0.0
490,0.0
515,0.0
516,0.0
542,0.0
592,4760020.397988956
632,33000000.0
686,1.0
687,1.0
688,2.0
2,21, 1,21, 0, 2, 0.00,10.00,Monday
250,-0.8092254241097863
251,38018958.0786052
336,0.0
385,17.2784691914519
386,25.264101677444785
387,-1.0186699005828006
388,0.0
425,0.0
450,0.0
451,0.0
452,-2.080057202995117
453,0.0
490,0.0
515,0.0
516,0.0
542,0.0
592,4760020.397988958
632,33000000.0
686,1.0
687,1.0
688,2.0
2,21, 1,21, 0, 2,10.00,20.00,Monday
250,-0.8093082695075341
251,38018956.4330533
336,0.0
385,17.2784691914519
386,25.264101677444785
387,-1.0343541163958658
388,0.0
425,0.0
450,0.0
451,0.0
452,-2.122787934496321
453,0.0
490,0.0
515,0.0
516,0.0
542,0.0
592,4760020.397988958
632,33000000.0
686,1.0
687,1.0
688,2.0
2,21, 1,21, 0, 2,20.00,30.00,Monday
250,-0.8093909571556344
251,38018956.348106824
336,0.0
385,17.2784691914519
386,25.264101677444785
387,-1.0496454672745277
388,0.0
425,0.0
450,0.0
451,0.0
452,-2.154256196786885
453,0.0
490,0.0
515,0.0
516,0.0
542,0.0
592,4760020.397988958
632,33000000.0
686,1.0
687,1.0
688,2.0
2,21, 1,21, 0, 2,30.00,40.00,Monday
250,-0.8094720365153839
251,38018955.48215783
336,0.0
385,17.2784691914519
386,25.264101677444785
387,-1.0642225974735355
388,0.0
425,0.0
450,0.0
451,0.0
452,-2.173638867738164
453,0.0
490,0.0
515,0.0
516,0.0
542,0.0
592,4760020.397988958
632,33000000.0
686,1.0
687,1.0
688,2.0
2,21, 1,21, 0, 2,40.00,50.00,Monday
250,-0.8095519000469621
251,38018954.82751903
336,0.0
385,17.2784691914519
386,25.264101677444785
387,-1.0779450475614663
388,0.0
425,0.0
450,0.0
451,0.0
452,-2.1837796147753314
453,0.0
490,0.0
515,0.0
516,0.0
542,0.0
592,4760020.397988959
632,33000000.0
686,1.0
687,1.0
688,2.0
2,21, 1,21, 0, 2,50.00,60.00,Monday
250,-0.8096303459408986
251,38018954.0642197
336,0.0
385,17.2784691914519
386,25.264101677444785
387,-1.0907754085334238
388,0.0
425,0.0
450,0.0
451,0.0
452,-2.1878270778249145
453,0.0
490,0.0
515,0.0
516,0.0
542,0.0
592,4760020.397988958
632,33000000.0
686,1.0
687,1.0
688,2.0
2,21, 1,21, 0, 3, 0.00,10.00,Monday
250,-0.72740939989866
251,37977180.060295165
336,0.0
385,17.2784691914519
386,25.264101677444785
387,-1.0923248728961958
388,0.0
425,0.0
450,0.0
451,0.0
452,-2.1803494545746624
453,0.0
490,0.0
515,0.0
516,0.0
542,0.0
592,4762558.894114006
632,33000000.0
686,1.0
687,1.0
688,2.0
2,21, 1,21, 0, 3,10.00,20.00,Monday
250,-0.6438287029223049
251,37978875.63761619
336,0.0
385,17.2784691914519
386,25.264101677444785
387,-1.081281309375672
388,0.0
425,0.0
450,0.0
451,0.0
452,-2.1553706917852797
453,0.0
490,0.0
515,0.0
516,0.0
542,0.0
592,4764988.4357309695
632,33000000.0
686,1.0
687,1.0
688,2.0
2,21, 1,21, 0, 3,20.00,30.00,Monday
250,-0.5607228398780584
251,37981449.26295563
336,0.0
385,17.2784691914519
386,25.264101677444785
387,-1.062053292011057
388,0.0
425,0.0
450,0.0
451,0.0
452,-2.111442297139036
453,0.0
490,0.0
515,0.0
516,0.0
542,0.0
592,4767308.250738335
632,33000000.0
686,1.0
687,1.0
688,2.0
2,21, 1,21, 0, 3,30.00,40.00,Monday
250,-0.47773218834448367
251,37952068.26421372
336,0.0
385,17.2784691914519
386,25.264101677444785
387,-1.0384365691538957
388,0.0
425,0.0
450,0.0
451,0.0
452,-2.051696721842079
453,0.0
490,0.0
515,0.0
516,0.0
542,0.0
592,4769517.689516205
632,32968349.38763211
686,1.0
687,1.0
688,2.0
2,21, 1,21, 0, 3,40.00,50.00,Monday
250,-0.394822228640128
251,37909014.53050997
336,0.0
385,17.2784691914519
386,25.264101677444785
387,-1.011737738013712
388,0.0
425,0.0
450,0.0
451,0.0
452,-1.980618524273734
453,0.0
490,0.0
515,0.0
516,0.0
542,0.0
592,4771616.115684974
632,32923155.651704386
686,1.0
687,1.0
688,2.0
2,21, 1,21, 0, 3,50.00,60.00,Monday
250,-0.31189659062019676
251,37865959.177015625
336,0.0
385,17.2784691914519
386,25.264101677444785
387,-0.9817190902735007
388,0.0
425,0.0
450,0.0
451,0.0
452,-1.9018260781081437
453,0.0
490,0.0
515,0.0
516,0.0
542,0.0
592,4773602.736238396
632,32878124.009847026
686,1.0
687,1.0
688,2.0
2,21, 1,21, 0, 4, 0.00,10.00,Monday
250,-0.31123142867196835
251,37867213.186051495
336,0.0
385,17.2784691914519
386,25.264101677444785
387,-0.9589897639338261
388,0.0
425,0.0
450,0.0
451,0.0
452,-1.8256079520983406
453,0.0
490,0.0
515,0.0
516,0.0
542,0.0
592,4773428.982371633
632,32835251.008477204
686,1.0
687,1.0
688,2.0
2,21, 1,21, 0, 4,10.00,20.00,Monday
250,-0.31159752100493276
251,37867467.60310847
336,0.0
385,17.2784691914519
386,25.264101677444785
387,-0.9463820619459198
388,0.0
425,0.0
450,0.0
451,0.0
452,-1.7610040063326358
453,0.0
490,0.0
515,0.0
516,0.0
542,0.0
592,4773255.169447958
632,32835123.840040263
686,1.0
687,1.0
688,2.0
2,21, 1,21, 0, 4,20.00,30.00,Monday
250,-0.31145973324241105
251,37867424.48022169
336,0.0
385,17.2784691914519
386,25.264101677444785
387,-0.9403936904311918
388,0.0
425,0.0
450,0.0
451,0.0
452,-1.7116186565829026
453,0.0
490,0.0
515,0.0
516,0.0
542,0.0
592,4773081.297437258
632,32835525.962140296
686,1.0
687,1.0
688,2.0
2,21, 1,21, 0, 4,30.00,40.00,Monday
250,-0.31142781817772475
251,37867447.92232184
336,0.0
385,17.2784691914519
386,25.264101677444785
387,-0.9371525422677869
388,0.0
425,0.0
450,0.0
451,0.0
452,-1.6757924838250744
453,0.0
490,0.0
515,0.0
516,0.0
542,0.0
592,4772907.366309401
632,32835666.31585671
686,1.0
687,1.0
688,2.0
2,21, 1,21, 0, 4,40.00,50.00,Monday
250,-0.31140294582791295
251,37867473.285531804
336,0.0
385,17.2784691914519
386,25.264101677444785
387,-0.934868591777418
388,0.0
425,0.0
450,0.0
451,0.0
452,-1.6498549715575437
453,0.0
490,0.0
515,0.0
516,0.0
542,0.0
592,4772733.376034233
632,32835861.87637841
686,1.0
687,1.0
688,2.0
2,21, 1,21, 0, 4,50.00,60.00,Monday
250,-0.3113774341226978
251,37867498.18751204
336,0.0
385,17.2784691914519
386,25.264101677444785
387,-0.933361041440609
388,0.0
425,0.0
450,0.0
451,0.0
452,-1.6307480075675995
453,0.0
490,0.0
515,0.0
516,0.0
542,0.0
592,4772559.326581573
632,32836061.172161702
686,1.0
687,1.0
688,2.0
2,21, 1,21, 0, 5, 0.00,10.00,Monday
250,-0.31135347172948474
251,37867523.96043949
336,0.0
385,17.2784691914519
386,25.264101677444785
387,-0.9326853712289673
388,0.0
425,0.0
450,0.0
451,0.0
452,-1.615856144495707
453,0.0
490,0.0
515,0.0
516,0.0
542,0.0
592,4759720.85868958
632,32848924.57858358
686,1.0
687,1.0
688,2.0
2,21, 1,21, 0, 5,10.00,20.00,Monday
250,-0.3113203499518751
251,37868818.11248908
336,0.0
385,17.2784691914519
386,25.264101677444785
387,-0.9327062597230865
388,0.0
425,0.0
450,0.0
451,0.0
452,-1.6028685445433035
453,0.0
490,0.0
515,0.0
516,0.0
542,0.0
592,4746877.262331865
632,32863067.260570545
686,1.0
687,1.0
688,2.0
2,21, 1,21, 0, 5,20.00,30.00,Monday
250,-0.3112871249730516
251,37870134.129464015
336,0.0
385,17.2784691914519
386,25.264101677444785
387,-0.9331943928615205
388,0.0
425,0.0
450,0.0
451,0.0
452,-1.5903836569213547
453,0.0
490,0.0
515,0.0
516,0.0
542,0.0
592,4734028.534436013
632,32877232.061654568
686,1.0
687,1.0
688,2.0
2,21, 1,21, 0, 5,30.00,40.00,Monday
250,-0.31125407132784166
251,37871442.97501683
336,0.0
385,17.2784691914519
386,25.264101677444785
387,-0.9339459746135785
388,0.0
425,0.0
450,0.0
451,0.0
452,-1.5779684056676737
453,0.0
490,0.0
515,0.0
516,0.0
542,0.0
592,4721174.671927155
632,32891394.678058475
686,1.0
687,1.0
688,2.0
2,21, 1,21, 0, 5,40.00,50.00,Monday
250,-0.31122093536781764
251,37872753.847775996
336,0.0
385,17.2784691914519
386,25.264101677444785
387,-0.9348248385069663
388,0.0
425,0.0
450,0.0
451,0.0
452,-1.565691891622328
453,0.0
490,0.0
515,0.0
516,0.0
542,0.0
592,4708315.671727969
632,32905564.59597988
686,1.0
687,1.0
688,2.0
2,21, 1,21, 0, 5,50.00,60.00,Monday
250,-0.3111876339663852
251,37874065.26628488
336,0.0
385,17.2784691914519
386,25.264101677444785
387,-0.93575176224358
388,0.0
425,0.0
450,0.0
451,0.0
452,-1.5537052491154533
453,0.0
490,0.0
515,0.0
516,0.0
542,0.0
592,4695451.530758674
632,32919740.24520179
686,1.0
687,1.0
688,2.0
2,21, 1,21, 0, 6, 0.00,10.00,Monday
250,-0.311152788905573
251,37875376.36296632
336,0.0
385,17.2784691914519
386,25.264101677444785
387,-0.9368134979044821
388,0.0
425,0.0
450,0.0
451,0.0
452,-1.5427053761063398
453,0.0
490,0.0
515,0.0
516,0.0
542,0.0
592,4695264.082255858
632,32921239.622557957
686,1.0
687,1.0
688,2.0
2,21, 1,21, 0, 6,10.00,20.00,Monday
250,-0.31112726814942093
251,37875417.96484849
336,0.0
385,17.2784691914519
386,25.264101677444785
387,-0.9380934618344698
388,0.0
425,0.0
450,0.0
451,0.0
452,-1.5335062460189093
453,0.0
490,0.0
515,0.0
516,0.0
542,0.0
592,4695076.569900009
632,32921463.7139778
686,1.0
687,1.0
688,2.0
2,21, 1,21, 0, 6,20.00,30.00,Monday
250,-0.3111019420991671
251,37875438.25723668
336,0.0
385,17.2784691914519
386,25.264101677444785
387,-0.9395858231569215
388,0.0
425,0.0
450,0.0
451,0.0
452,-1.5264327926933903
453,0.0
490,0.0
515,0.0
516,0.0
542,0.0
592,4694888.993658494
632,32921671.477734953
686,1.0
687,1.0
688,2.0
2,21, 1,21, 0, 6,30.00,40.00,Monday
250,-0.31107628246774666
251,37875466.18541944
336,0.0
385,17.2784691914519
386,25.264101677444785
387,-0.9412483956590197
388,0.0
425,0.0
450,0.0
451,0.0
452,-1.521277174456709
453,0.0
490,0.0
515,0.0
516,0.0
542,0.0
592,4694701.353498661
632,32921887.225787487
686,1.0
687,1.0
688,2.0
2,21, 1,21, 0, 6,40.00,50.00,Monday
250,-0.31105052601741207
251,37875492.52978092
336,0.0
385,17.2784691914519
386,25.264101677444785
387,-0.9430491669433246
388,0.0
425,0.0
450,0.0
451,0.0
452,-1.517590403839369
453,0.0
490,0.0
515,0.0
516,0.0
542,0.0
592,4694513.649387832
632,32922101.32642935
686,1.0
687,1.0
688,2.0
2,21, 1,21, 0, 6,50.00,60.00,Monday
250,-0.31102451177259616
251,37875518.64245054
336,0.0
385,17.2784691914519
386,25.264101677444785
387,-0.9449709537396981
388,0.0
425,0.0
450,0.0
451,0.0
452,-1.5149528950766213
453,0.0
490,0.0
515,0.0
516,0.0
542,0.0
592,4694325.881293309
632,32922315.346078303
686,1.0
687,1.0
688,2.0
2,21, 1,21, 0, 7, 0.00,10.00,Monday
250,-0.31168644650269367
251,37875915.37636865
336,0.0
385,17.2784691914519
386,25.264101677444785
387,-0.9494354381739689
388,0.0
425,0.0
450,0.0
451,0.0
452,-1.5182324648372993
453,0.0
490,0.0
515,0.0
516,0.0
542,0.0
592,4723573.583255435
632,32893093.789623898
686,1.0
687,1.0
688,2.0
2,21, 1,21, 0, 7,10.00,20.00,Monday
250,-0.3116634799144398
251,37873004.473290786
336,0.0
385,17.2784691914519
386,25.264101677444785
387,-0.9586157546800868
388,0.0
425,0.0
450,0.0
451,0.0
452,-1.53690332669089
453,0.0
490,0.0
515,0.0
516,0.0
542,0.0
592,4752837.186047653
632,32861288.22950261
686,1.0
687,1.0
688,2.0
2,21, 1,21, 0, 7,20.00,30.00,Monday
250,-0.3116228001351137
251,37870033.07417326
336,0.0
385,17.2784691914519
386,25.264101677444785
387,-0.9727527837103612
388,0.0
425,0.0
450,0.0
451,0.0
452,-1.5763348077690804
453,0.0
490,0.0
515,0.0
516,0.0
542,0.0
592,4782116.702651944
632,32829046.853190716
686,1.0
687,1.0
688,2.0
2,21, 1,21, 0, 7,30.00,40.00,Monday
250,-0.3115860043803825
251,37867080.158211455
336,0.0
385,17.2784691914519
386,25.264101677444785
387,-0.9908918004399615
388,0.0
425,0.0
450,0.0
451,0.0
452,-1.634141739806344
453,0.0
490,0.0
515,0.0
516,0.0
542,0.0
592,4811412.146064443
632,32796796.40033514
686,1.0
687,1.0
688,2.0
2,21, 1,21, 0, 7,40.00,50.00,Monday
250,-0.3115477443738919
251,37864121.30422494
336,0.0
385,17.2784691914519
386,25.264101677444785
387,-1.0119542327151076
388,0.0
425,0.0
450,0.0
451,0.0
452,-1.7040693105263822
453,0.0
490,0.0
515,0.0
516,0.0
542,0.0
592,4840723.52929546
632,32764526.950107694
686,1.0
687,1.0
688,2.0
2,21, 1,21, 0, 7,50.00,60.00,Monday
250,-0.3115089312677564
251,37861160.3172461
336,0.0
385,17.2784691914519
386,25.264101677444785
387,-1.0351932033380633
388,0.0
425,0.0
450,0.0
451,0.0
452,-1.7804252736587816
453,0.0
490,0.0
515,0.0
516,0.0
542,0.0
592,4870050.865369484
632,32732238.92328666
686,1.0
687,1.0
688,2.0
2,21, 1,21, 0, 8, 0.00,10.00,Monday
250,-0.11122849865512593
251,37750380.5691388
336,0.0
385,17.2784691914519
386,25.264101677444785
387,-1.031310277896454
388,0.0
425,0.0
450,0.0
451,0.0
452,-1.839374803734298
453,0.0
490,0.0
515,0.0
516,0.0
542,0.0
592,4889730.300311495
632,32709596.95283187
686,1.0
687,1.0
688,2.0
2,21, 1,21, 0, 8,10.00,20.00,Monday
250,0.08914946443119631
251,37644800.49368498
336,0.0
385,17.2784691914519
386,25.264101677444785
387,-0.9897868637519659
388,0.0
425,0.0
450,0.0
451,0.0
452,-1.8305256971473192
453,0.0
490,0.0
515,0.0
516,0.0
542,0.0
592,4909380.719869503
632,32584425.594182212
686,1.0
687,1.0
688,2.0
2,21, 1,21, 0, 8,20.00,30.00,Monday
250,0.28812424841401785
251,37540063.172748044
336,0.0
385,17.2784691914519
386,25.264101677444785
387,-0.918788300913374
388,0.0
425,0.0
450,0.0
451,0.0
452,-1.7231042360386726
453,0.0
490,0.0
515,0.0
516,0.0
542,0.0
592,4929009.6156952735
632,32459310.672111362
686,1.0
687,1.0
688,2.0
2,21, 1,21, 0, 8,30.00,40.00,Monday
250,0.4874897863944785
251,37435082.34880648
336,0.0
385,17.2784691914519
386,25.264101677444785
387,-0.8285195998398572
388,0.0
425,0.0
450,0.0
451,0.0
452,-1.5274896264364262
453,0.0
490,0.0
515,0.0
516,0.0
542,0.0
592,4952863.646772657
632,32330693.059978783
686,1.0
687,1.0
688,2.0
2,21, 1,21, 0, 8,40.00,50.00,Monday
250,0.6869219163781967
251,37329658.7957969
336,0.0
385,17.2784691914519
386,25.264101677444785
387,-0.7269400374751841
388,0.0
425,0.0
450,0.0
451,0.0
452,-1.251987972890662
453,0.0
490,0.0
515,0.0
516,0.0
542,0.0
592,4977062.298687914
632,32201112.40884106
686,1.0
687,1.0
688,2.0
2,21, 1,21, 0, 8,50.00,60.00,Monday
250,0.8868864839213477
251,37224881.89337583
336,0.0
385,17.2784691914519
386,25.264101677444785
387,-0.631072538993416
388,0.0
425,0.0
450,0.0
451,0.0
452,-0.9390528154739703
453,0.0
490,0.0
515,0.0
516,0.0
542,0.0
592,5001395.306277512
632,32018991.085829582
686,1.0
687,1.0
688,2.0
2,21, 1,21, 0, 9, 0.00,10.00,Monday
250,1.1527297718141627
251,37085666.40288628
336,0.0
385,17.2784691914519
386,25.264101677444785
387,-0.4927030302621806
388,0.0
425,0.0
450,0.0
451,0.0
452,-0.4596597759357549
453,0.0
490,0.0
515,0.0
516,0.0
542,0.0
592,5029363.153609448
632,31868464.86229211
686,1.0
687,1.0
688,2.0
2,21, 1,21, 0, 9,10.00,20.00,Monday
250,1.4184628388729768
251,36945555.4107448
336,0.0
385,17.2784691914519
386,25.264101677444785
387,-0.3419356447747111
388,0.0
425,0.0
450,0.0
451,0.0
452,0.06456382182470673
453,0.0
490,0.0
515,0.0
516,0.0
542,0.0
592,5057356.862312016
632,31700336.511970807
686,1.0
687,1.0
688,2.0
2,21, 1,21, 0, 9,20.00,30.00,Monday
250,1.6842953245466936
251,36805386.49655755
336,0.0
385,17.2784691914519
386,25.264101677444785
387,-0.18203065471197355
388,0.0
425,0.0
450,0.0
451,0.0
452,0.6292636582130563
453,0.0
490,0.0
515,0.0
516,0.0
542,0.0
592,5085392.284952975
632,31532159.61570939
686,1.0
687,1.0
688,2.0
2,21, 1,21, 0, 9,30.00,40.00,Monday
250,1.9500814199632195
251,36665240.50314975
336,0.0
385,17.2784691914519
386,25.264101677444785
387,-0.01227138453601865
388,0.0
425,0.0
450,0.0
451,0.0
452,1.2238983292700414
453,0.0
490,0.0
515,0.0
516,0.0
542,0.0
592,5113485.892141593
632,31363908.596081875
686,1.0
687,1.0
688,2.0
2,21, 1,21, 0, 9,40.00,50.00,Monday
250,2.2160719420568133
251,36523990.29932067
336,0.0
385,17.278469191451915
386,25.264101677444806
387,0.13291410712904556
388,0.0
425,0.0
450,0.0
451,0.0
452,1.7256000435490817
453,0.0
490,0.0
515,0.0
516,0.0
542,0.0
592,5141654.529350725
632,31171223.523557957
686,1.0000000000000009
687,1.0000000000000009
688,2.0000000000000018
2,21, 1,21, 0, 9,50.00,60.00,Monday
250,2.4821844688345527
251,36383133.819961414
336,0.0
385,17.2784691914519
386,25.264101677444785
387,0.28507698660995895
388,0.0
425,0.0
450,0.0
451,0.0
452,2.266102681045562
453,0.0
490,0.0
515,0.0
516,0.0
542,0.0
592,5169915.672059796
632,31026750.47937326
686,1.0
687,1.0
688,2.0
2,21, 1,21, 0,10, 0.00,10.00,Monday
250,2.945730508233707
251,36137178.321542054
336,0.0
385,17.2784691914519
386,25.264101677444785
387,0.47556295682089833
388,0.0
425,0.0
450,0.0
451,0.0
452,2.825404450329592
453,0.0
490,0.0
515,0.0
516,0.0
542,0.0
592,5241404.10703412
632,30720190.915823624
686,1.0
687,1.0
688,2.0
2,21, 1,21, 0,10,10.00,20.00,Monday
250,3.4100986667199553
251,35891402.829425365
336,0.0
385,17.2784691914519
386,25.264101677444785
387,0.7666113169448852
388,0.0
425,0.0
450,0.0
451,0.0
452,3.5803005484578474
453,0.0
490,0.0
515,0.0
516,0.0
542,0.0
592,5315291.857316207
632,30399616.269917965
686,1.0
687,1.0
688,2.0
2,21, 1,21, 0,10,20.00,30.00,Monday
250,3.874692587039963
251,35644236.656584874
336,0.0
385,17.278469191451894
386,25.26410167744477
387,1.0469890045292043
388,0.0
425,0.0
450,0.0
451,0.0
452,4.2692188494412315
453,0.0
490,0.0
515,0.0
516,0.0
542,0.0
592,5391793.298050374
632,30076031.594252326
686,0.9999999999999996
687,0.9999999999999996
688,1.9999999999999991
2,21, 1,21, 0,10,30.00,40.00,Monday
250,4.339423045510793
251,35396863.104885705
336,0.0
385,17.278469191451908
386,25.264101677444792
387,1.3287459493263938
388,0.0
425,0.0
450,0.0
451,0.0
452,4.97112519026328
453,0.0
490,0.0
515,0.0
516,0.0
542,0.0
592,5471132.199313744
632,29749388.241009504
686,1.0000000000000004
687,1.0000000000000004
688,2.000000000000001
2,21, 1,21, 0,10,40.00,50.00,Monday
250,4.80434607149666
251,35149245.025285214
336,0.0
385,17.278469191451915
386,25.264101677444806
387,1.6188754441390096
388,0.0
425,0.0
450,0.0
451,0.0
452,5.735223916914486
453,0.0
490,0.0
515,0.0
516,0.0
542,0.0
592,5553542.375759332
632,29419441.408796214
686,1.0000000000000009
687,1.0000000000000009
688,2.0000000000000018
2,21, 1,21, 0,10,50.00,60.00,Monday
250,5.269279608006603
251,34901473.77710059
336,0.0
385,17.278469191451915
386,25.264101677444806
387,1.9190911131295523
388,0.0
425,0.0
450,0.0
451,0.0
452,6.56427321695255
453,0.0
490,0.0
515,0.0
516,0.0
542,0.0
592,5639267.778995938
632,29085995.70140982
686,1.0000000000000009
687,1.0000000000000009
688,2.0000000000000018
2,21, 1,21, 0,11, 0.00,10.00,Monday
250,5.552756349563349
251,34750627.3587943
336,0.0
385,17.2784691914519
386,25.264101677444785
387,2.205592482398157
388,0.0
425,0.0
450,0.0
451,0.0
452,7.419490246817135
453,0.0
490,0.0
515,0.0
516,0.0
542,0.0
592,5689519.861596227
632,28852557.55350897
686,1.0
687,1.0
688,2.0
2,21, 1,21, 0,11,10.00,20.00,Monday
250,5.835611306931469
251,34600058.05257814
336,0.0
385,17.2784691914519
386,25.264101677444785
387,2.475357735886989
388,0.0
425,0.0
450,0.0
451,0.0
452,8.270007653261017
453,0.0
490,0.0
515,0.0
516,0.0
542,0.0
592,5740969.350869594
632,28650442.40904787
686,1.0
687,1.0
688,2.0
2,21, 1,21, 0,11,20.00,30.00,Monday
250,6.118516861253776
251,34449412.05176133
336,0.0
385,17.278469191451894
386,25.26410167744477
387,2.747515953476912
388,0.0
425,0.0
450,0.0
451,0.0
452,9.11660820676251
453,0.0
490,0.0
515,0.0
516,0.0
542,0.0
592,5793671.095282218
632,28447120.364894588
686,0.9999999999999996
687,0.9999999999999996
688,1.9999999999999991
2,21, 1,21, 0,11,30.00,40.00,Monday
250,6.401199414863564
251,34298833.41414762
336,0.0
385,17.278469191451908
386,25.264101677444792
387,3.024849599519369
388,0.0
425,0.0
450,0.0
451,0.0
452,9.938435692234862
453,0.0
490,0.0
515,0.0
516,0.0
542,0.0
592,5847681.4279665835
632,28242508.74839353
686,1.0000000000000004
687,1.0000000000000004
688,2.000000000000001
2,21, 1,21, 0,11,40.00,50.00,Monday
250,6.683785834391438
251,34148252.653393246
336,0.0
385,17.278469191451915
386,25.264101677444806
387,3.3039572203052288
388,0.0
425,0.0
450,0.0
451,0.0
452,10.683988377572756
453,0.0
490,0.0
515,0.0
516,0.0
542,0.0
592,5903058.082199926
632,28036551.988715827
686,1.0000000000000009
687,1.0000000000000009
688,2.0000000000000018
2,21, 1,21, 0,11,50.00,60.00,Monday
250,6.966242232739273
251,33997686.56696472
336,0.0
385,17.278469191451915
386,25.264101677444806
387,3.5809864238271523
388,0.0
425,0.0
450,0.0
451,0.0
452,11.319805450538993
453,0.0
490,0.0
515,0.0
516,0.0
542,0.0
592,5959860.237244541
632,27829178.798464186
686,1.0000000000000009
687,1.0000000000000009
688,2.0000000000000018
2,21, 1,21, 0,12, 0.00,10.00,Monday
250,7.232913902804548
251,33855566.86541268
336,0.0
385,17.2784691914519
386,25.264101677444785
387,3.820992039827435
388,0.0
425,0.0
450,0.0
451,0.0
452,11.81891995585147
453,0.0
490,0.0
515,0.0
516,0.0
542,0.0
592,5991096.197635708
632,27678213.596804574
686,1.0
687,1.0
688,2.0
2,21, 1,21, 0,12,10.00,20.00,Monday
250,7.4982546495545535
251,33717642.29272565
336,0.0
385,17.2784691914519
386,25.264101677444785
387,4.113385665368546
388,0.0
425,0.0
450,0.0
451,0.0
452,12.382910277543587
453,0.0
490,0.0
515,0.0
516,0.0
542,0.0
592,7572016.881221028
632,25957538.03069388
686,1.0
687,1.0
688,2.0
2,21, 1,21, 0,12,20.00,30.00,Monday
250,7.764258942302442
251,33577640.43144065
336,0.0
385,17.2784691914519
386,25.264101677444785
387,4.3825091801094445
388,0.0
425,0.0
450,0.0
451,0.0
452,12.897940684048859
453,0.0
490,0.0
515,0.0
516,0.0
542,0.0
592,7609409.155487606
632,25780314.60561768
686,1.0
687,1.0
688,2.0
2,21, 1,21, 0,12,30.00,40.00,Monday
250,8.030182057514384
251,33437683.62427649
336,0.0
385,17.2784691914519
386,25.264101677444785
387,4.641329628108183
388,0.0
425,0.0
450,0.0
451,0.0
452,13.389730901813609
453,0.0
490,0.0
515,0.0
516,0.0
542,0.0
592,7646583.592010483
632,25603161.369402282
686,1.0
687,1.0
688,2.0
2,21, 1,21, 0,12,40.00,50.00,Monday
250,8.29607624014403
251,33297742.11388468
336,0.0
385,17.2784691914519
386,25.264101677444785
387,4.895761577330613
388,0.0
425,0.0
450,0.0
451,0.0
452,13.83177213361839
453,0.0
490,0.0
515,0.0
516,0.0
542,0.0
592,7683540.190789655
632,25426255.635104056
686,1.0
687,1.0
688,2.0
2,21, 1,21, 0,12,50.00,60.00,Monday
250,8.561961712869422
251,33157804.51691571
336,0.0
385,17.2784691914519
386,25.264101677444785
387,5.144713202916377
388,0.0
425,0.0
450,0.0
451,0.0
452,14.199552299069847
453,0.0
490,0.0
515,0.0
516,0.0
542,0.0
592,7720278.951825122
632,25249577.41369126
686,1.0
687,1.0
688,2.0
2,21, 1,21, 0,13, 0.00,10.00,Monday
250,8.74493322862831
251,33059141.5017014
336,0.0
385,17.2784691914519
386,25.264101677444785
387,5.377106423578746
388,0.0
425,0.0
450,0.0
451,0.0
452,14.490792086067147
453,0.0
490,0.0
515,0.0
516,0.0
542,0.0
592,7745410.487127085
632,25151646.714334596
686,1.0
687,1.0
688,2.0
2,21, 1,21, 0,13,10.00,20.00,Monday
250,8.927521972812077
251,32964661.660753038
336,0.0
385,17.2784691914519
386,25.264101677444785
387,5.595901605186227
388,0.0
425,0.0
450,0.0
451,0.0
452,14.72005220350202
453,0.0
490,0.0
515,0.0
516,0.0
542,0.0
592,7770439.060057994
632,25033885.813584212
686,1.0
687,1.0
688,2.0
2,21, 1,21, 0,13,20.00,30.00,Monday
250,9.11061639529119
251,32870013.74757304
336,0.0
385,17.2784691914519
386,25.264101677444785
387,5.80081176886615
388,0.0
425,0.0
450,0.0
451,0.0
452,14.903237122622578
453,0.0
490,0.0
515,0.0
516,0.0
542,0.0
592,7795364.670617863
632,24914597.804544024
686,1.0
687,1.0
688,2.0
2,21, 1,21, 0,13,30.00,40.00,Monday
250,9.293557143358301
251,32775478.561890885
336,0.0
385,17.2784691914519
386,25.264101677444785
387,5.995856678053694
388,0.0
425,0.0
450,0.0
451,0.0
452,15.052108697193173
453,0.0
490,0.0
515,0.0
516,0.0
542,0.0
592,7820187.318806681
632,24795169.735533006
686,1.0
687,1.0
688,2.0
2,21, 1,21, 0,13,40.00,50.00,Monday
250,9.476503680507417
251,32680973.772356123
336,0.0
385,17.2784691914519
386,25.264101677444785
387,6.184786669350394
388,0.0
425,0.0
450,0.0
451,0.0
452,15.17143979004073
453,0.0
490,0.0
515,0.0
516,0.0
542,0.0
592,7844907.0046244515
632,24675961.287525684
686,1.0
687,1.0
688,2.0
2,21, 1,21, 0,13,50.00,60.00,Monday
250,9.659443779997645
251,32586505.6161317
336,0.0
385,17.2784691914519
386,25.264101677444785
387,6.368901768516442
388,0.0
425,0.0
450,0.0
451,0.0
452,15.264862930210386
453,0.0
490,0.0
515,0.0
516,0.0
542,0.0
592,7869523.728071173
632,24556886.01181577
686,1.0
687,1.0
688,2.0
2,21, 1,21, 0,14, 0.00,10.00,Monday
250,9.85936385863468
251,32482899.613581207
336,0.0
385,17.2784691914519
386,25.264101677444785
387,6.55104091800667
388,0.0
425,0.0
450,0.0
451,0.0
452,15.320976331293819
453,0.0
490,0.0
515,0.0
516,0.0
542,0.0
592,7896260.907308882
632,24435727.243689973
686,1.0
687,1.0
688,2.0
2,21, 1,21, 0,14,10.00,20.00,Monday
250,10.058912387237548
251,32379097.511275843
336,0.0
385,17.2784691914519
386,25.264101677444785
387,6.731335855343557
388,0.0
425,0.0
450,0.0
451,0.0
452,15.321460186489116
453,0.0
490,0.0
515,0.0
516,0.0
542,0.0
592,7922875.552815756
632,24305123.05623728
686,1.0
687,1.0
688,2.0
2,21, 1,21, 0,14,20.00,30.00,Monday
250,10.25834482706752
251,32275371.6303821
336,0.0
385,17.2784691914519
386,25.264101677444785
387,6.9076288551524065
388,0.0
425,0.0
450,0.0
451,0.0
452,15.26584703901216
453,0.0
490,0.0
515,0.0
516,0.0
542,0.0
592,7949367.664591794
632,24174855.72063142
686,1.0
687,1.0
688,2.0
2,21, 1,21, 0,14,30.00,40.00,Monday
250,10.457699619496163
251,32171712.653912783
336,0.0
385,17.2784691914519
386,25.264101677444785
387,7.073967711366264
388,0.0
425,0.0
450,0.0
451,0.0
452,15.143611654571384
453,0.0
490,0.0
515,0.0
516,0.0
542,0.0
592,7975737.242637003
632,24044798.751149785
686,1.0
687,1.0
688,2.0
2,21, 1,21, 0,14,40.00,50.00,Monday
250,10.656985257025763
251,32068113.008133404
336,0.0
385,17.2784691914519
386,25.264101677444785
387,7.226658708711911
388,0.0
425,0.0
450,0.0
451,0.0
452,14.93503291905909
453,0.0
490,0.0
515,0.0
516,0.0
542,0.0
592,8001984.286951375
632,23914928.389412418
686,1.0
687,1.0
688,2.0
2,21, 1,21, 0,14,50.00,60.00,Monday
250,10.856222183873196
251,31964562.156958327
336,0.0
385,17.2784691914519
386,25.264101677444785
387,7.365992038351822
388,0.0
425,0.0
450,0.0
451,0.0
452,14.64314915351394
453,0.0
490,0.0
515,0.0
516,0.0
542,0.0
592,8028108.797534915
632,23785240.563623387
686,1.0
687,1.0
688,2.0
2,21, 1,21, 0,15, 0.00,10.00,Monday
250,11.121927094120412
251,31825837.557193294
336,0.0
385,17.2784691914519
386,25.264101677444785
387,7.486969968455038
388,0.0
425,0.0
450,0.0
451,0.0
452,14.34783029162983
453,0.0
490,0.0
515,0.0
516,0.0
542,0.0
592,8062750.870287225
632,23576775.81190622
686,1.0
687,1.0
688,2.0
2,21, 1,21, 0,15,10.00,20.00,Monday