Program Version,EnergyPlus, Version 24.2.0-94a887817b, YMD=2025.01.30 19:36
1,5,Environment Title[],Latitude[deg],Longitude[deg],Time Zone[],Elevation[m]
2,8,Day of Simulation[],Month[],Day of Month[],DST Indicator[1=yes 0=no],Hour[],StartMinute[],EndMinute[],DayType
3,5,Cumulative Day of Simulation[],Month[],Day of Month[],DST Indicator[1=yes 0=no],DayType  ! When Daily Meters Requested
4,2,Cumulative Days of Simulation[],Month[]  ! When Monthly Meters Requested
5,1,Cumulative Days of Simulation[] ! When Run Period Meters Requested
6,1,Calendar Year of Simulation[] ! When Annual Meters Requested
11,9,Electricity:Facility [J] !Monthly [Value,Min,Day,Hour,Minute,Max,Day,Hour,Minute]
23,9,Electricity:Building [J] !Monthly [Value,Min,Day,Hour,Minute,Max,Day,Hour,Minute]
59,9,InteriorLights:Electricity [J] !Monthly [Value,Min,Day,Hour,Minute,Max,Day,Hour,Minute]
521,9,Electricity:HVAC [J] !Monthly [Value,Min,Day,Hour,Minute,Max,Day,Hour,Minute]
637,9,NaturalGas:Facility [J] !Monthly [Value,Min,Day,Hour,Minute,Max,Day,Hour,Minute]
649,9,NaturalGas:HVAC [J] !Monthly [Value,Min,Day,Hour,Minute,Max,Day,Hour,Minute]
13,11,Electricity:Facility [J] !RunPeriod [Value,Min,Month,Day,Hour,Minute,Max,Month,Day,Hour,Minute]
25,11,Electricity:Building [J] !RunPeriod [Value,Min,Month,Day,Hour,Minute,Max,Month,Day,Hour,Minute]
61,11,InteriorLights:Electricity [J] !RunPeriod [Value,Min,Month,Day,Hour,Minute,Max,Month,Day,Hour,Minute]
523,11,Electricity:HVAC [J] !RunPeriod [Value,Min,Month,Day,Hour,Minute,Max,Month,Day,Hour,Minute]
639,11,NaturalGas:Facility [J] !RunPeriod [Value,Min,Month,Day,Hour,Minute,Max,Month,Day,Hour,Minute]
651,11,NaturalGas:HVAC [J] !RunPeriod [Value,Min,Month,Day,Hour,Minute,Max,Month,Day,Hour,Minute]
End of Data Dictionary
1,RUN PERIOD 1,  41.98, -87.92,  -6.00, 201.00
4,31, 1
11,9812658519.114307,408891.4285714286, 5, 6,50,2971943.1078128004,16,13,60
23,973608417.8833072,30000.0, 1, 1,10,602469.8680313758, 1, 9,10
59,970200000.0,30000.0, 1, 1,10,600000.0, 1, 8,10
521,8839050101.230986,378891.4285714286, 5, 6,50,2369473.239781425,16,13,60
637,178368636582.5482,27941130.432051975,21,16,10,41250000.0, 1, 1,20
649,178368636582.5482,27941130.432051975,21,16,10,41250000.0, 1, 1,20
4,59, 2
11,9347499962.701517,99999999999999.0, 5, 6,50,3013404.5480759228,22,15,30
23,851123841.6376585,99999999999999.0, 1, 1,10,-99999999999999.0, 1, 9,10
59,848160000.0,99999999999999.0, 1, 1,10,-99999999999999.0, 1, 8,10
521,8496376121.063895,99999999999999.0, 5, 6,50,2410934.680044547,22,15,30
637,157593320075.4172,26263184.692484796,23,12,10,-99999999999999.0, 1, 1,20
649,157593320075.4172,26263184.692484796,23,12,10,-99999999999999.0, 1, 1,20
4,90, 3
11,10798925818.455418,30000.0,10,16,10,3014956.9827470244,12,17,60
23,900592033.7195414,99999999999999.0, 1, 1,10,-99999999999999.0, 1, 9,10
59,897480000.0,99999999999999.0, 1, 1,10,-99999999999999.0, 1, 8,10
521,9898333784.735886,0.0,10,16,10,2412487.1147156483, 9,11,60
637,159489837514.6588,0.0,10,16,10,-99999999999999.0, 1, 1,20
649,159489837514.6588,0.0,10,16,10,-99999999999999.0, 1, 1,20
4,120, 4
11,8754721607.353619,99999999999999.0,10,16,10,-99999999999999.0,12,17,60
23,932780225.8014243,99999999999999.0, 1, 1,10,-99999999999999.0, 1, 9,10
59,929520000.0,99999999999999.0, 1, 1,10,-99999999999999.0, 1, 8,10
521,7821941381.552165,99999999999999.0,10,16,10,-99999999999999.0, 9,11,60
637,113256751104.66357,99999999999999.0,10,16,10,-99999999999999.0, 1, 1,20
649,113256751104.66357,99999999999999.0,10,16,10,-99999999999999.0, 1, 1,20
4,151, 5
11,7083322804.899232,99999999999999.0,10,16,10,-99999999999999.0,12,17,60
23,973870293.9091692,99999999999999.0, 1, 1,10,618316.4000706908,28,13,10
59,970200000.0,99999999999999.0, 1, 1,10,-99999999999999.0, 1, 8,10
521,6109452510.989983,99999999999999.0,10,16,10,-99999999999999.0, 9,11,60
637,76425729221.73051,99999999999999.0,10,16,10,-99999999999999.0, 1, 1,20
649,76425729221.73051,99999999999999.0,10,16,10,-99999999999999.0, 1, 1,20
4,181, 6
11,3933105199.344178,99999999999999.0,10,16,10,-99999999999999.0,12,17,60
23,859850335.0409193,99999999999999.0, 1, 1,10,-99999999999999.0,28,13,10
59,856800000.0,99999999999999.0, 1, 1,10,-99999999999999.0, 1, 8,10
521,3073254864.3032565,99999999999999.0,10,16,10,-99999999999999.0, 9,11,60
637,21549426006.837685,99999999999999.0,10,16,10,-99999999999999.0, 1, 1,20
649,21549426006.837685,99999999999999.0,10,16,10,-99999999999999.0, 1, 1,20
4,212, 7
11,3481833158.104006,99999999999999.0,10,16,10,-99999999999999.0,12,17,60
23,973881295.8628451,99999999999999.0, 1, 1,10,-99999999999999.0,28,13,10
59,970200000.0,99999999999999.0, 1, 1,10,-99999999999999.0, 1, 8,10
521,2507951862.241129,99999999999999.0,10,16,10,-99999999999999.0, 9,11,60
637,2561959011.457626,99999999999999.0,10,16,10,-99999999999999.0, 1, 1,20
649,2561959011.457626,99999999999999.0,10,16,10,-99999999999999.0, 1, 1,20
4,243, 8
11,2363454125.0390277,99999999999999.0,10,16,10,-99999999999999.0,12,17,60
23,937379307.4640152,99999999999999.0, 1, 1,10,618551.7362665196,12,14,10
59,933840000.0,99999999999999.0, 1, 1,10,-99999999999999.0, 1, 8,10
521,1426074817.5750692,99999999999999.0,10,16,10,-99999999999999.0, 9,11,60
637,8448255736.436766,99999999999999.0,10,16,10,-99999999999999.0, 1, 1,20
649,8448255736.436766,99999999999999.0,10,16,10,-99999999999999.0, 1, 1,20
4,273, 9
11,4340671314.946671,99999999999999.0,10,16,10,-99999999999999.0,12,17,60
23,896272033.7195413,99999999999999.0, 1, 1,10,-99999999999999.0,12,14,10
59,893160000.0,99999999999999.0, 1, 1,10,-99999999999999.0, 1, 8,10
521,3444399281.2271447,99999999999999.0,10,16,10,2418964.2958492446,22,11,10
637,39272708696.12877,99999999999999.0,10,16,10,-99999999999999.0, 1, 1,20
649,39272708696.12877,99999999999999.0,10,16,10,-99999999999999.0, 1, 1,20
4,304,10
11,9647834529.859589,99999999999999.0,10,16,10,-99999999999999.0,12,17,60
23,973608417.8833072,99999999999999.0, 1, 1,10,-99999999999999.0,12,14,10
59,970200000.0,99999999999999.0, 1, 1,10,-99999999999999.0, 1, 8,10
521,8674226111.976276,99999999999999.0,10,16,10,-99999999999999.0,22,11,10
637,118354052418.36679,99999999999999.0,10,16,10,-99999999999999.0, 1, 1,20
649,118354052418.36679,99999999999999.0,10,16,10,-99999999999999.0, 1, 1,20
4,334,11
11,9737357958.65184,99999999999999.0,10,16,10,-99999999999999.0,12,17,60
23,896272033.7195414,99999999999999.0, 1, 1,10,-99999999999999.0,12,14,10
59,893160000.0,99999999999999.0, 1, 1,10,-99999999999999.0, 1, 8,10
521,8841085924.932314,99999999999999.0,10,16,10,-99999999999999.0,22,11,10
637,139426116900.04144,99999999999999.0,10,16,10,-99999999999999.0, 1, 1,20
649,139426116900.04144,99999999999999.0,10,16,10,-99999999999999.0, 1, 1,20
4,365,12
11,10426050846.185234,99999999999999.0,10,16,10,-99999999999999.0,12,17,60
23,937100225.8014243,99999999999999.0, 1, 1,10,-99999999999999.0,12,14,10
59,933840000.0,99999999999999.0, 1, 1,10,-99999999999999.0, 1, 8,10
521,9488950620.383821,99999999999999.0,10,16,10,-99999999999999.0,22,11,10
637,179154104729.7835,99999999999999.0,10,16,10,-99999999999999.0, 1, 1,20
649,179154104729.7835,99999999999999.0,10,16,10,-99999999999999.0, 1, 1,20
5,365
13,89727435844.67133,30000.0, 3,10,16,10,3014956.9827470244, 3,12,17,60
25,11106338462.44064,30000.0, 1, 1, 1,10,618551.7362665196, 8,12,14,10
61,11066760000.0,30000.0, 1, 1, 1,10,600000.0, 1, 1, 8,10
523,78621097382.21494,0.0, 3,10,16,10,2418964.2958492446, 9,22,11,10
639,1193900897998.0635,0.0, 3,10,16,10,41250000.0, 1, 1, 1,20
651,1193900897998.0635,0.0, 3,10,16,10,41250000.0, 1, 1, 1,20
1,RUN PERIOD 2,  41.98, -87.92,  -6.00, 201.00
4,1, 7
11,64811455.648000106,99999999999999.0,10,16,10,-99999999999999.0,12,17,60
23,40828192.081882514,99999999999999.0, 1, 1,10,-99999999999999.0,12,14,10
59,40680000.0,99999999999999.0, 1, 1,10,-99999999999999.0, 1, 8,10
521,23983263.56611759,99999999999999.0,10,16,10,-99999999999999.0,22,11,10
637,0.0,99999999999999.0,10,16,10,-99999999999999.0, 1, 1,20
649,0.0,99999999999999.0,10,16,10,-99999999999999.0, 1, 1,20
5,1
13,64811455.648000106,99999999999999.0, 3,10,16,10,-99999999999999.0, 3,12,17,60
25,40828192.081882514,99999999999999.0, 1, 1, 1,10,-99999999999999.0, 8,12,14,10
61,40680000.0,99999999999999.0, 1, 1, 1,10,-99999999999999.0, 1, 1, 8,10
523,23983263.56611759,99999999999999.0, 3,10,16,10,-99999999999999.0, 9,22,11,10
639,0.0,99999999999999.0, 3,10,16,10,-99999999999999.0, 1, 1, 1,20
651,0.0,99999999999999.0, 3,10,16,10,-99999999999999.0, 1, 1, 1,20
End of Data
 Number of Records Written=          90
