Program Version,EnergyPlus, Version 24.2.0-94a887817b, YMD=2025.01.22 00:03
1,5,Environment Title[],Latitude[deg],Longitude[deg],Time Zone[],Elevation[m]
2,8,Day of Simulation[],Month[],Day of Month[],DST Indicator[1=yes 0=no],Hour[],StartMinute[],EndMinute[],DayType
3,5,Cumulative Day of Simulation[],Month[],Day of Month[],DST Indicator[1=yes 0=no],DayType  ! When Daily Meters Requested
4,2,Cumulative Days of Simulation[],Month[]  ! When Monthly Meters Requested
5,1,Cumulative Days of Simulation[] ! When Run Period Meters Requested
6,1,Calendar Year of Simulation[] ! When Annual Meters Requested
11,9,Electricity:Facility [J] !Monthly [Value,Min,Day,Hour,Minute,Max,Day,Hour,Minute]
23,9,Electricity:Building [J] !Monthly [Value,Min,Day,Hour,Minute,Max,Day,Hour,Minute]
59,9,InteriorLights:Electricity [J] !Monthly [Value,Min,Day,Hour,Minute,Max,Day,Hour,Minute]
521,9,Electricity:HVAC [J] !Monthly [Value,Min,Day,Hour,Minute,Max,Day,Hour,Minute]
637,9,NaturalGas:Facility [J] !Monthly [Value,Min,Day,Hour,Minute,Max,Day,Hour,Minute]
649,9,NaturalGas:HVAC [J] !Monthly [Value,Min,Day,Hour,Minute,Max,Day,Hour,Minute]
13,11,Electricity:Facility [J] !RunPeriod [Value,Min,Month,Day,Hour,Minute,Max,Month,Day,Hour,Minute]
25,11,Electricity:Building [J] !RunPeriod [Value,Min,Month,Day,Hour,Minute,Max,Month,Day,Hour,Minute]
61,11,InteriorLights:Electricity [J] !RunPeriod [Value,Min,Month,Day,Hour,Minute,Max,Month,Day,Hour,Minute]
523,11,Electricity:HVAC [J] !RunPeriod [Value,Min,Month,Day,Hour,Minute,Max,Month,Day,Hour,Minute]
639,11,NaturalGas:Facility [J] !RunPeriod [Value,Min,Month,Day,Hour,Minute,Max,Month,Day,Hour,Minute]
651,11,NaturalGas:HVAC [J] !RunPeriod [Value,Min,Month,Day,Hour,Minute,Max,Month,Day,Hour,Minute]
End of Data Dictionary
1,RUN PERIOD 1,  41.98, -87.92,  -6.00, 201.00
4,31, 1
11,9829259959.006151,408891.4285714286, 5, 6,50,2983973.136719936,16,13,60
23,990209857.7751738,30000.0, 1, 1,10,614499.8969385112, 1, 9,10
59,970200000.0,30000.0, 1, 1,10,600000.0, 1, 8,10
521,8839050101.230986,378891.4285714286, 5, 6,50,2369473.239781425,16,13,60
637,179212220421.16083,28354478.2306223,21,16,10,41250000.0, 1, 1,10
649,179212220421.16083,28354478.2306223,21,16,10,41250000.0, 1, 1,10
4,59, 2
11,9361935997.390074,99999999999999.0, 5, 6,50,3025434.5769830584,22,15,30
23,865559876.3262334,99999999999999.0, 1, 1,10,-99999999999999.0, 1, 9,10
59,848160000.0,99999999999999.0, 1, 1,10,-99999999999999.0, 1, 8,10
521,8496376121.063895,99999999999999.0, 5, 6,50,2410934.680044547,22,15,30
637,158647349837.29282,26662426.248730984,23,12,10,-99999999999999.0, 1, 1,10
649,158647349837.29282,26662426.248730984,23,12,10,-99999999999999.0, 1, 1,10
4,90, 3
11,11017808547.627958,99999999999999.0, 5, 6,50,3268912.6754439813,27,16,10
23,915749870.1425471,99999999999999.0, 1, 1,10,-99999999999999.0, 1, 9,10
59,897480000.0,99999999999999.0, 1, 1,10,-99999999999999.0, 1, 8,10
521,10102058677.485435,99999999999999.0, 5, 6,50,2654412.77850547,27,16,10
637,163310442324.7354,21142244.646286767,27,16,10,-99999999999999.0, 1, 1,10
649,163310442324.7354,21142244.646286767,27,16,10,-99999999999999.0, 1, 1,10
4,120, 4
11,9822429046.486599,30000.0,11,19,10,3296288.821984974,24,12,10
23,948659863.95886,99999999999999.0, 1, 1,10,-99999999999999.0, 1, 9,10
59,929520000.0,99999999999999.0, 1, 1,10,-99999999999999.0, 1, 8,10
521,8873769182.527811,0.0,11,14,40,2681788.925046463,24,12,10
637,124569120876.05717,0.0,11,14,40,-99999999999999.0, 1, 1,10
649,124569120876.05717,0.0,11,14,40,-99999999999999.0, 1, 1,10
4,151, 5
11,9545894363.309185,99999999999999.0,11,19,10,-99999999999999.0,24,12,10
23,990524374.9972541,99999999999999.0, 1, 1,10,630433.6392643566,28,13,10
59,970200000.0,99999999999999.0, 1, 1,10,-99999999999999.0, 1, 8,10
521,8555369988.312036,99999999999999.0,11,14,40,2683931.1722953226,28, 8,10
637,100367905951.8297,99999999999999.0,11,14,40,-99999999999999.0, 1, 1,10
649,100367905951.8297,99999999999999.0,11,14,40,-99999999999999.0, 1, 1,10
4,181, 6
11,7277359439.0100155,99999999999999.0,11,19,10,3298001.218542608,13,10,50
23,874286162.6342628,99999999999999.0, 1, 1,10,-99999999999999.0,28,13,10
59,856800000.0,99999999999999.0, 1, 1,10,-99999999999999.0, 1, 8,10
521,6403073276.375843,99999999999999.0,11,14,40,-99999999999999.0,28, 8,10
637,52870282912.16535,99999999999999.0,11,14,40,-99999999999999.0, 1, 1,10
649,52870282912.16535,99999999999999.0,11,14,40,-99999999999999.0, 1, 1,10
4,212, 7
11,6097490328.984221,99999999999999.0,11,19,10,3298878.3033357156, 9,13,10
23,990487528.95859,99999999999999.0, 1, 1,10,-99999999999999.0,28,13,10
59,970200000.0,99999999999999.0, 1, 1,10,-99999999999999.0, 1, 8,10
521,5107002800.025703,99999999999999.0,11,14,40,2684378.4063972044, 9,13,10
637,26686990372.592262,99999999999999.0,11,14,40,-99999999999999.0, 1, 1,10
649,26686990372.592262,99999999999999.0,11,14,40,-99999999999999.0, 1, 1,10
4,243, 8
11,6440469965.373973,99999999999999.0,11,19,10,-99999999999999.0, 9,13,10
23,953262485.2062944,99999999999999.0, 1, 1,10,630557.7568245528,12,14,10
59,933840000.0,99999999999999.0, 1, 1,10,-99999999999999.0, 1, 8,10
521,5487207480.167827,99999999999999.0,11,14,40,2684903.162103787,24,12,30
637,45686061727.69171,99999999999999.0,11,14,40,-99999999999999.0, 1, 1,10
649,45686061727.69171,99999999999999.0,11,14,40,-99999999999999.0, 1, 1,10
4,273, 9
11,8675517836.1461,99999999999999.0,11,19,10,3299653.372038256, 3,13,30
23,911429870.1425467,99999999999999.0, 1, 1,10,-99999999999999.0,12,14,10
59,893160000.0,99999999999999.0, 1, 1,10,-99999999999999.0, 1, 8,10
521,7764087966.003642,99999999999999.0,11,14,40,2685153.4750997447, 3,13,30
637,79714845818.49109,99999999999999.0,11,14,40,-99999999999999.0, 1, 1,10
649,79714845818.49109,99999999999999.0,11,14,40,-99999999999999.0, 1, 1,10
4,304,10
11,10817570416.342087,99999999999999.0,11,19,10,-99999999999999.0, 3,13,30
23,990245721.2950958,99999999999999.0, 1, 1,10,632586.3060200614,22,16,30
59,970200000.0,99999999999999.0, 1, 1,10,-99999999999999.0, 1, 8,10
521,9827324695.047018,99999999999999.0,11,14,40,-99999999999999.0, 3,13,30
637,131073618446.21791,99999999999999.0,11,14,40,-99999999999999.0, 1, 1,10
649,131073618446.21791,99999999999999.0,11,14,40,-99999999999999.0, 1, 1,10
4,334,11
11,10661345530.85346,99999999999999.0,11,19,10,-99999999999999.0, 3,13,30
23,911429870.1425471,99999999999999.0, 1, 1,10,-99999999999999.0,22,16,30
59,893160000.0,99999999999999.0, 1, 1,10,-99999999999999.0, 1, 8,10
521,9749915660.710947,99999999999999.0,11,14,40,-99999999999999.0, 3,13,30
637,149720264335.82202,99999999999999.0,11,14,40,-99999999999999.0, 1, 1,10
649,149720264335.82202,99999999999999.0,11,14,40,-99999999999999.0, 1, 1,10
4,365,12
11,10441930484.342636,99999999999999.0,11,19,10,-99999999999999.0, 3,13,30
23,952979863.9588604,99999999999999.0, 1, 1,10,-99999999999999.0,22,16,30
59,933840000.0,99999999999999.0, 1, 1,10,-99999999999999.0, 1, 8,10
521,9488950620.383821,99999999999999.0,11,14,40,-99999999999999.0, 3,13,30
637,180069267415.72766,99999999999999.0,11,14,40,-99999999999999.0, 1, 1,10
649,180069267415.72766,99999999999999.0,11,14,40,-99999999999999.0, 1, 1,10
5,365
13,109989011914.88968,30000.0, 4,11,19,10,3299653.372038256, 9, 3,13,30
25,11294825345.535706,30000.0, 1, 1, 1,10,632586.3060200614,10,22,16,30
61,11066760000.0,30000.0, 1, 1, 1,10,600000.0, 1, 1, 8,10
523,98694186569.34087,0.0, 4,11,14,40,2685153.4750997447, 9, 3,13,30
639,1391928370439.7986,0.0, 4,11,14,40,41250000.0, 1, 1, 1,10
651,1391928370439.7986,0.0, 4,11,14,40,41250000.0, 1, 1, 1,10
1,RUN PERIOD 2,  41.98, -87.92,  -6.00, 201.00
4,1, 7
11,63349131.28082374,99999999999999.0,11,19,10,-99999999999999.0, 3,13,30
23,41549993.81631062,99999999999999.0, 1, 1,10,-99999999999999.0,22,16,30
59,40680000.0,99999999999999.0, 1, 1,10,-99999999999999.0, 1, 8,10
521,21799137.464513104,99999999999999.0,11,14,40,-99999999999999.0, 3,13,30
637,0.0,99999999999999.0,11,14,40,-99999999999999.0, 1, 1,10
649,0.0,99999999999999.0,11,14,40,-99999999999999.0, 1, 1,10
5,1
13,63349131.28082374,99999999999999.0, 4,11,19,10,-99999999999999.0, 9, 3,13,30
25,41549993.81631062,99999999999999.0, 1, 1, 1,10,-99999999999999.0,10,22,16,30
61,40680000.0,99999999999999.0, 1, 1, 1,10,-99999999999999.0, 1, 1, 8,10
523,21799137.464513104,99999999999999.0, 4,11,14,40,-99999999999999.0, 9, 3,13,30
639,0.0,99999999999999.0, 4,11,14,40,-99999999999999.0, 1, 1, 1,10
651,0.0,99999999999999.0, 4,11,14,40,-99999999999999.0, 1, 1, 1,10
End of Data
 Number of Records Written=          90
