Program Version,EnergyPlus, Version 24.2.0-94a887817b, YMD=2025.02.04 15:38
1,5,Environment Title[],Latitude[deg],Longitude[deg],Time Zone[],Elevation[m]
2,8,Day of Simulation[],Month[],Day of Month[],DST Indicator[1=yes 0=no],Hour[],StartMinute[],EndMinute[],DayType
3,5,Cumulative Day of Simulation[],Month[],Day of Month[],DST Indicator[1=yes 0=no],DayType  ! When Daily Report Variables Requested
4,2,Cumulative Days of Simulation[],Month[]  ! When Monthly Report Variables Requested
5,1,Cumulative Days of Simulation[] ! When Run Period Report Variables Requested
6,1,Calendar Year of Simulation[] ! When Annual Report Variables Requested
250,1,LIVING ZONE,Zone Air Temperature [C] !TimeStep,REPORTSCH
251,1,LIVING ZONE,Zone Air System Sensible Heating Energy [J] !TimeStep,REPORTSCH
336,1,LIVING ZONE,Zone Air System Sensible Cooling Energy [J] !TimeStep,REPORTSCH
385,1,LIVING ZONE,Zone Thermostat Heating Setpoint Temperature [C] !TimeStep,REPORTSCH
386,1,LIVING ZONE,Zone Thermostat Cooling Setpoint Temperature [C] !TimeStep,REPORTSCH
387,1,GARAGE ZONE,Zone Air Temperature [C] !TimeStep,REPORTSCH
388,1,GARAGE ZONE,Zone Air System Sensible Heating Energy [J] !TimeStep,REPORTSCH
425,1,GARAGE ZONE,Zone Air System Sensible Cooling Energy [J] !TimeStep,REPORTSCH
450,1,GARAGE ZONE,Zone Thermostat Heating Setpoint Temperature [C] !TimeStep,REPORTSCH
451,1,GARAGE ZONE,Zone Thermostat Cooling Setpoint Temperature [C] !TimeStep,REPORTSCH
452,1,ATTIC ZONE,Zone Air Temperature [C] !TimeStep,REPORTSCH
453,1,ATTIC ZONE,Zone Air System Sensible Heating Energy [J] !TimeStep,REPORTSCH
490,1,ATTIC ZONE,Zone Air System Sensible Cooling Energy [J] !TimeStep,REPORTSCH
515,1,ATTIC ZONE,Zone Thermostat Heating Setpoint Temperature [C] !TimeStep,REPORTSCH
516,1,ATTIC ZONE,Zone Thermostat Cooling Setpoint Temperature [C] !TimeStep,REPORTSCH
542,1,ACDXCOIL 1,Cooling Coil Total Cooling Energy [J] !TimeStep,REPORTSCH
592,1,HEAT PUMP DX HEATING COIL 1,Heating Coil Heating Energy [J] !TimeStep,REPORTSCH
632,1,SUPP HEATING COIL 1,Heating Coil Heating Energy [J] !TimeStep,REPORTSCH
686,1,TWOSPEED HEAT PUMP 1,Unitary System DX Coil Cycling Ratio [] !TimeStep,REPORTSCH
687,1,TWOSPEED HEAT PUMP 1,Unitary System DX Coil Speed Ratio [] !TimeStep,REPORTSCH
688,1,TWOSPEED HEAT PUMP 1,Unitary System DX Coil Speed Level [] !TimeStep,REPORTSCH
End of Data Dictionary
1,RUN PERIOD 1,  41.98, -87.92,  -6.00, 201.00
2,21, 1,21, 0, 1, 0.00,10.00,Monday
250,4.9633047394739735
251,35008616.646476455
336,0.0
385,19.279947047502798
386,28.825837075554293
387,-0.8238061155295633
388,0.0
425,0.0
450,0.0
451,0.0
452,-1.8484217483691645
453,0.0
490,0.0
515,0.0
516,0.0
542,0.0
592,4839743.9850796405
632,29920795.64975691
686,1.0
687,1.0
688,2.0
2,21, 1,21, 0, 1,10.00,20.00,Monday
250,4.966958558391575
251,35007863.71654633
336,0.0
385,19.279947047502798
386,28.825837075554293
387,-0.8325040664809931
388,0.0
425,0.0
450,0.0
451,0.0
452,-1.831339015733405
453,0.0
490,0.0
515,0.0
516,0.0
542,0.0
592,4823801.676011793
632,29927137.49513321
686,1.0
687,1.0
688,2.0
2,21, 1,21, 0, 1,20.00,30.00,Monday
250,4.964568482929422
251,35010713.86315257
336,0.0
385,19.279947047502798
386,28.825837075554293
387,-0.8423023782631865
388,0.0
425,0.0
450,0.0
451,0.0
452,-1.8292162281635846
453,0.0
490,0.0
515,0.0
516,0.0
542,0.0
592,4807858.162905221
632,29942677.61536928
686,1.0
687,1.0
688,2.0
2,21, 1,21, 0, 1,30.00,40.00,Monday
250,4.963217461945132
251,35012970.93290147
336,0.0
385,19.279947047502798
386,28.825837075554293
387,-0.8534180143522816
388,0.0
425,0.0
450,0.0
451,0.0
452,-1.842687659647778
453,0.0
490,0.0
515,0.0
516,0.0
542,0.0
592,4791913.445623511
632,29961438.72785457
686,1.0
687,1.0
688,2.0
2,21, 1,21, 0, 1,40.00,50.00,Monday
250,4.962294355434704
251,35014978.23609612
336,0.0
385,19.279947047502798
386,28.825837075554293
387,-0.866039953090307
388,0.0
425,0.0
450,0.0
451,0.0
452,-1.8698885536477465
453,0.0
490,0.0
515,0.0
516,0.0
542,0.0
592,4775967.524030239
632,29979622.301719777
686,1.0
687,1.0
688,2.0
2,21, 1,21, 0, 1,50.00,60.00,Monday
250,4.961150800508491
251,35017111.32386329
336,0.0
385,19.279947047502798
386,28.825837075554293
387,-0.8803748783886662
388,0.0
425,0.0
450,0.0
451,0.0
452,-1.909148768378021
453,0.0
490,0.0
515,0.0
516,0.0
542,0.0
592,4760020.397988958
632,29997583.80390351
686,1.0
687,1.0
688,2.0
2,21, 1,21, 0, 2, 0.00,10.00,Monday
250,4.959866855199171
251,35019323.670041256
336,0.0
385,19.279947047502798
386,28.825837075554293
387,-0.8958011770014448
388,0.0
425,0.0
450,0.0
451,0.0
452,-1.9546459561111729
453,0.0
490,0.0
515,0.0
516,0.0
542,0.0
592,4760020.397988958
632,29999720.533451393
686,1.0
687,1.0
688,2.0
2,21, 1,21, 0, 2,10.00,20.00,Monday
250,4.958392726004667
251,35020443.55317021
336,0.0
385,19.279947047502798
386,28.825837075554293
387,-0.9114299379172852
388,0.0
425,0.0
450,0.0
451,0.0
452,-1.996521929591191
453,0.0
490,0.0
515,0.0
516,0.0
542,0.0
592,4760020.397988958
632,30000738.009166334
686,1.0
687,1.0
688,2.0
2,21, 1,21, 0, 2,20.00,30.00,Monday
250,4.956836284480628
251,35021244.145510346
336,0.0
385,19.279947047502798
386,28.825837075554293
387,-0.9267214266395416
388,0.0
425,0.0
450,0.0
451,0.0
452,-2.0278750459807826
453,0.0
490,0.0
515,0.0
516,0.0
542,0.0
592,4760020.397988958
632,30001494.28285981
686,1.0
687,1.0
688,2.0
2,21, 1,21, 0, 2,30.00,40.00,Monday
250,4.955304885842672
251,35022058.667684615
336,0.0
385,19.279947047502798
386,28.825837075554293
387,-0.9413488191158073
388,0.0
425,0.0
450,0.0
451,0.0
452,-2.047656262621834
453,0.0
490,0.0
515,0.0
516,0.0
542,0.0
592,4760020.397988958
632,30002322.28913197
686,1.0
687,1.0
688,2.0
2,21, 1,21, 0, 2,40.00,50.00,Monday
250,4.953837963534695
251,35022858.12926268
336,0.0
385,19.279947047502798
386,28.825837075554293
387,-0.9551659266099269
388,0.0
425,0.0
450,0.0
451,0.0
452,-2.058058999634496
453,0.0
490,0.0
515,0.0
516,0.0
542,0.0
592,4760020.397988958
632,30003156.466526408
686,1.0
687,1.0
688,2.0
2,21, 1,21, 0, 2,50.00,60.00,Monday
250,4.952334739580995
251,35023670.62501667
336,0.0
385,19.279947047502798
386,28.825837075554293
387,-0.9681318192392898
388,0.0
425,0.0
450,0.0
451,0.0
452,-2.0621550422016157
453,0.0
490,0.0
515,0.0
516,0.0
542,0.0
592,4760020.397988958
632,30003949.416283693
686,1.0
687,1.0
688,2.0
2,21, 1,21, 0, 3, 0.00,10.00,Monday
250,5.015863115598828
251,34989464.5554716
336,0.0
385,19.279947047502798
386,28.825837075554293
387,-0.9699101362460733
388,0.0
425,0.0
450,0.0
451,0.0
452,-2.0546940453731284
453,0.0
490,0.0
515,0.0
516,0.0
542,0.0
592,4762558.894114006
632,30002219.87076974
686,1.0
687,1.0
688,2.0
2,21, 1,21, 0, 3,10.00,20.00,Monday
250,5.0931492369159725
251,34948982.71950137
336,0.0
385,19.279947047502798
386,28.825837075554293
387,-0.9593088243286595
388,0.0
425,0.0
450,0.0
451,0.0
452,-2.0298474328038427
453,0.0
490,0.0
515,0.0
516,0.0
542,0.0
592,4764988.4357309695
632,29966717.434963893
686,1.0
687,1.0
688,2.0
2,21, 1,21, 0, 3,20.00,30.00,Monday
250,5.166323750868426
251,34911064.08130949
336,0.0
385,19.279947047502798
386,28.825837075554293
387,-0.9408093528836634
388,0.0
425,0.0
450,0.0
451,0.0
452,-1.986137761060097
453,0.0
490,0.0
515,0.0
516,0.0
542,0.0
592,4767308.250738333
632,29924266.766534735
686,1.0
687,1.0
688,2.0
2,21, 1,21, 0, 3,30.00,40.00,Monday
250,5.238863401249163
251,34873468.03994566
336,0.0
385,19.279947047502798
386,28.825837075554293
387,-0.9181847446985992
388,0.0
425,0.0
450,0.0
451,0.0
452,-1.9266975451983308
453,0.0
490,0.0
515,0.0
516,0.0
542,0.0
592,4769517.689516207
632,29884121.071042575
686,1.0
687,1.0
688,2.0
2,21, 1,21, 0, 3,40.00,50.00,Monday
250,5.312166824997296
251,34835448.46251076
336,0.0
385,19.279947047502798
386,28.825837075554293
387,-0.8926849798718349
388,0.0
425,0.0
450,0.0
451,0.0
452,-1.8560503510300521
453,0.0
490,0.0
515,0.0
516,0.0
542,0.0
592,4771616.115684973
632,29844416.00212671
686,1.0
687,1.0
688,2.0
2,21, 1,21, 0, 3,50.00,60.00,Monday
250,5.385703254072398
251,34797315.76123539
336,0.0
385,19.279947047502798
386,28.825837075554293
387,-0.8640376025284943
388,0.0
425,0.0
450,0.0
451,0.0
452,-1.7777909987060458
453,0.0
490,0.0
515,0.0
516,0.0
542,0.0
592,4773602.736238396
632,29804423.8279958
686,1.0
687,1.0
688,2.0
2,21, 1,21, 0, 4, 0.00,10.00,Monday
250,5.395534844742159
251,34793501.68710154
336,0.0
385,19.279947047502798
386,28.825837075554293
387,-0.843033293464316
388,0.0
425,0.0
450,0.0
451,0.0
452,-1.7022588504930791
453,0.0
490,0.0
515,0.0
516,0.0
542,0.0
592,4773428.982371633
632,29766476.196033347
686,1.0
687,1.0
688,2.0
2,21, 1,21, 0, 4,10.00,20.00,Monday
250,5.392004412225331
251,34795749.916456126
336,0.0
385,19.279947047502798
386,28.825837075554293
387,-0.8319036199851373
388,0.0
425,0.0
450,0.0
451,0.0
452,-1.6385052191116916
453,0.0
490,0.0
515,0.0
516,0.0
542,0.0
592,4773255.169447958
632,29761701.943137366
686,1.0
687,1.0
688,2.0
2,21, 1,21, 0, 4,20.00,30.00,Monday
250,5.39239070088436
251,34795542.15035278
336,0.0
385,19.279947047502798
386,28.825837075554293
387,-0.8268359275071462
388,0.0
425,0.0
450,0.0
451,0.0
452,-1.5898831228025478
453,0.0
490,0.0
515,0.0
516,0.0
542,0.0
592,4773081.297437258
632,29763777.466762993
686,1.0
687,1.0
688,2.0
2,21, 1,21, 0, 4,30.00,40.00,Monday
250,5.393342982173741
251,34795055.17118365
336,0.0
385,19.279947047502798
386,28.825837075554293
387,-0.8240576323758428
388,0.0
425,0.0
450,0.0
451,0.0
452,-1.5544995608710788
453,0.0
490,0.0
515,0.0
516,0.0
542,0.0
592,4772907.366309401
632,29763769.244194955
686,1.0
687,1.0
688,2.0
2,21, 1,21, 0, 4,40.00,50.00,Monday
250,5.393582502667919
251,34794970.81520447
336,0.0
385,19.279947047502798
386,28.825837075554293
387,-0.8220891345627099
388,0.0
425,0.0
450,0.0
451,0.0
452,-1.5288415216072584
453,0.0
490,0.0
515,0.0
516,0.0
542,0.0
592,4772733.376034233
632,29763475.008752976
686,1.0
687,1.0
688,2.0
2,21, 1,21, 0, 4,50.00,60.00,Monday
250,5.393650513905971
251,34794972.70608179
336,0.0
385,19.279947047502798
386,28.825837075554293
387,-0.8208519336431394
388,0.0
425,0.0
450,0.0
451,0.0
452,-1.5098241582649792
453,0.0
490,0.0
515,0.0
516,0.0
542,0.0
592,4772559.326581575
632,29763558.579668693
686,1.0
687,1.0
688,2.0
2,21, 1,21, 0, 5, 0.00,10.00,Monday
250,5.393702563593704
251,34794979.82678026
336,0.0
385,19.279947047502798
386,28.825837075554293
387,-0.8204035986126489
388,0.0
425,0.0
450,0.0
451,0.0
452,-1.4948621843267242
453,0.0
490,0.0
515,0.0
516,0.0
542,0.0
592,4759720.85868958
632,29776395.571892362
686,1.0
687,1.0
688,2.0
2,21, 1,21, 0, 5,10.00,20.00,Monday
250,5.393840379212284
251,34795870.80524431
336,0.0
385,19.279947047502798
386,28.825837075554293
387,-0.820621275101346
388,0.0
425,0.0
450,0.0
451,0.0
452,-1.481758887198196
453,0.0
490,0.0
515,0.0
516,0.0
542,0.0
592,4746877.262331866
632,29790176.33968558
686,1.0
687,1.0
688,2.0
2,21, 1,21, 0, 5,20.00,30.00,Monday
250,5.394010774587139
251,34797027.908605516
336,0.0
385,19.279947047502798
386,28.825837075554293
387,-0.821299459187369
388,0.0
425,0.0
450,0.0
451,0.0
452,-1.4691991555435235
453,0.0
490,0.0
515,0.0
516,0.0
542,0.0
592,4734028.534436013
632,29804199.721185528
686,1.0
687,1.0
688,2.0
2,21, 1,21, 0, 5,30.00,40.00,Monday
250,5.394164509018184
251,34798173.29647802
336,0.0
385,19.279947047502798
386,28.825837075554293
387,-0.8222540116007937
388,0.0
425,0.0
450,0.0
451,0.0
452,-1.4567834666543793
453,0.0
490,0.0
515,0.0
516,0.0
542,0.0
592,4721174.671927155
632,29818190.000842683
686,1.0
687,1.0
688,2.0
2,21, 1,21, 0, 5,40.00,50.00,Monday
250,5.394306491660693
251,34799310.21039171
336,0.0
385,19.279947047502798
386,28.825837075554293
387,-0.8233583588677895
388,0.0
425,0.0
450,0.0
451,0.0
452,-1.4445765518992706
453,0.0
490,0.0
515,0.0
516,0.0
542,0.0
592,4708315.671727969
632,29832179.587841447
686,1.0
687,1.0
688,2.0
2,21, 1,21, 0, 5,50.00,60.00,Monday
250,5.39444895768284
251,34800452.39707837
336,0.0
385,19.279947047502798
386,28.825837075554293
387,-0.8245350506540527
388,0.0
425,0.0
450,0.0
451,0.0
452,-1.432709791714229
453,0.0
490,0.0
515,0.0
516,0.0
542,0.0
592,4695451.530758674
632,29846186.178553697
686,1.0
687,1.0
688,2.0
2,21, 1,21, 0, 6, 0.00,10.00,Monday
250,5.394634719531091
251,34801574.50136992
336,0.0
385,19.279947047502798
386,28.825837075554293
387,-0.8258630646338947
388,0.0
425,0.0
450,0.0
451,0.0
452,-1.4218849140740704
453,0.0
490,0.0
515,0.0
516,0.0
542,0.0
592,4695264.08225586
632,29847519.056609496
686,1.0
687,1.0
688,2.0
2,21, 1,21, 0, 6,10.00,20.00,Monday
250,5.394715550108789
251,34801822.41041958
336,0.0
385,19.279947047502798
386,28.825837075554293
387,-0.8274143552276939
388,0.0
425,0.0
450,0.0
451,0.0
452,-1.4129020821627278
453,0.0
490,0.0
515,0.0
516,0.0
542,0.0
592,4695076.569900009
632,29847897.954073753
686,1.0
687,1.0
688,2.0
2,21, 1,21, 0, 6,20.00,30.00,Monday
250,5.39473810439337
251,34801818.16579728
336,0.0
385,19.279947047502798
386,28.825837075554293
387,-0.829174990561299
388,0.0
425,0.0
450,0.0
451,0.0
452,-1.4060518669767186
453,0.0
490,0.0
515,0.0
516,0.0
542,0.0
592,4694888.993658494
632,29848049.893198635
686,1.0
687,1.0
688,2.0
2,21, 1,21, 0, 6,30.00,40.00,Monday
250,5.394771123269553
251,34801829.44582167
336,0.0
385,19.279947047502798
386,28.825837075554293
387,-0.8310998171690444
388,0.0
425,0.0
450,0.0
451,0.0
452,-1.4010879308069615
453,0.0
490,0.0
515,0.0
516,0.0
542,0.0
592,4694701.35349866
632,29848254.45050534
686,1.0
687,1.0
688,2.0
2,21, 1,21, 0, 6,40.00,50.00,Monday
250,5.39482045691107
251,34801847.24083059
336,0.0
385,19.279947047502798
386,28.825837075554293
387,-0.8331570306009288
388,0.0
425,0.0
450,0.0
451,0.0
452,-1.3975481461569543
453,0.0
490,0.0
515,0.0
516,0.0
542,0.0
592,4694513.649387832
632,29848468.738168668
686,1.0
687,1.0
688,2.0
2,21, 1,21, 0, 6,50.00,60.00,Monday
250,5.394879231747722
251,34801854.9072876
336,0.0
385,19.279947047502798
386,28.825837075554293
387,-0.8353303411624208
388,0.0
425,0.0
450,0.0
451,0.0
452,-1.3950221225966417
453,0.0
490,0.0
515,0.0
516,0.0
542,0.0
592,4694325.881293308
632,29848669.258587066
686,1.0
687,1.0
688,2.0
2,21, 1,21, 0, 7, 0.00,10.00,Monday
250,5.3831076621175935
251,34808232.66946866
336,0.0
385,19.279947047502798
386,28.825837075554293
387,-0.8401182937536
388,0.0
425,0.0
450,0.0
451,0.0
452,-1.3986598442382676
453,0.0
490,0.0
515,0.0
516,0.0
542,0.0
592,4723573.583255435
632,29819426.474713534
686,1.0
687,1.0
688,2.0
2,21, 1,21, 0, 7,10.00,20.00,Monday
250,5.380521423012422
251,34807495.62951443
336,0.0
385,19.279947047502798
386,28.825837075554293
387,-0.8496511278343433
388,0.0
425,0.0
450,0.0
451,0.0
452,-1.4179589377352793
453,0.0
490,0.0
515,0.0
516,0.0
542,0.0
592,4752837.186047653
632,29794373.92865677
686,1.0
687,1.0
688,2.0
2,21, 1,21, 0, 7,20.00,30.00,Monday
250,5.381126207591962
251,34804399.76592805
336,0.0
385,19.279947047502798
386,28.825837075554293
387,-0.8640336850992657
388,0.0
425,0.0
450,0.0
451,0.0
452,-1.4569987426384212
453,0.0
490,0.0
515,0.0
516,0.0
542,0.0
592,4782116.702651945
632,29763717.37799055
686,1.0
687,1.0
688,2.0
2,21, 1,21, 0, 7,30.00,40.00,Monday
250,5.381168042109331
251,34801661.07455085
336,0.0
385,19.279947047502798
386,28.825837075554293
387,-0.8822291476469166
388,0.0
425,0.0
450,0.0
451,0.0
452,-1.514209528316581
453,0.0
490,0.0
515,0.0
516,0.0
542,0.0
592,4811412.146064445
632,29731380.030664146
686,1.0
687,1.0
688,2.0
2,21, 1,21, 0, 7,40.00,50.00,Monday
250,5.381015768006305
251,34799060.46818755
336,0.0
385,19.279947047502798
386,28.825837075554293
387,-0.9031754998817124
388,0.0
425,0.0
450,0.0
451,0.0
452,-1.583869962780783
453,0.0
490,0.0
515,0.0
516,0.0
542,0.0
592,4840723.5292954575
632,29699363.50662187
686,1.0
687,1.0
688,2.0
2,21, 1,21, 0, 7,50.00,60.00,Monday
250,5.380983775115112
251,34796381.51850169
336,0.0
385,19.279947047502798
386,28.825837075554293
387,-0.9261970230189064
388,0.0
425,0.0
450,0.0
451,0.0
452,-1.6602997925561196
453,0.0
490,0.0
515,0.0
516,0.0
542,0.0
592,4870050.865369482
632,29667421.996863533
686,1.0
687,1.0
688,2.0
2,21, 1,21, 0, 8, 0.00,10.00,Monday
250,5.582081541550619
251,34685397.82327261
336,0.0
385,19.279947047502798
386,28.825837075554293
387,-0.9224793578859644
388,0.0
425,0.0
450,0.0
451,0.0
452,-1.719606429252213
453,0.0
490,0.0
515,0.0
516,0.0
542,0.0
592,4889730.300311495
632,29645055.84320967
686,1.0
687,1.0
688,2.0
2,21, 1,21, 0, 8,10.00,20.00,Monday
250,5.784383626728761
251,34577612.68640235
336,0.0
385,19.279947047502798
386,28.825837075554293
387,-0.8820237418543713
388,0.0
425,0.0
450,0.0
451,0.0
452,-1.7131302634524679
453,0.0
490,0.0
515,0.0
516,0.0
542,0.0
592,4909380.719869504
632,29518272.345238324
686,1.0
687,1.0
688,2.0
2,21, 1,21, 0, 8,20.00,30.00,Monday
250,5.962883549355337
251,34483801.805811755
336,0.0
385,19.279947047502798
386,28.825837075554293
387,-0.8137847876280792
388,0.0
425,0.0
450,0.0
451,0.0
452,-1.6060688246368675
453,0.0
490,0.0
515,0.0
516,0.0
542,0.0
592,4929009.6156952735
632,29392022.453079235
686,1.0
687,1.0
688,2.0
2,21, 1,21, 0, 8,30.00,40.00,Monday
250,6.144971485539094
251,34387968.98168776
336,0.0
385,19.279947047502798
386,28.825837075554293
387,-0.7250012262128259
388,0.0
425,0.0
450,0.0
451,0.0
452,-1.4050110041529535
453,0.0
490,0.0
515,0.0
516,0.0
542,0.0
592,4952863.646772657
632,29274274.06616349
686,1.0
687,1.0
688,2.0
2,21, 1,21, 0, 8,40.00,50.00,Monday
250,6.3326304440694665
251,34288771.91237301
336,0.0
385,19.279947047502798
386,28.825837075554293
387,-0.6229521720586954
388,0.0
425,0.0
450,0.0
451,0.0
452,-1.1223997073325733
453,0.0
490,0.0
515,0.0
516,0.0
542,0.0
592,4977062.298687916
632,29153884.01006043
686,1.0
687,1.0
688,2.0
2,21, 1,21, 0, 8,50.00,60.00,Monday
250,6.5252668056904355
251,34187587.71911014
336,0.0
385,19.279947047502798
386,28.825837075554293
387,-0.5254248716190477
388,0.0
425,0.0
450,0.0
451,0.0
452,-0.8034811041418448
453,0.0
490,0.0
515,0.0
516,0.0
542,0.0
592,5001395.306277512
632,28985977.172575597
686,1.0
687,1.0
688,2.0
2,21, 1,21, 0, 9, 0.00,10.00,Monday
250,6.776312147276968
251,34055831.499677315
336,0.0
385,19.279947047502798
386,28.825837075554293
387,-0.3828268770320751
388,0.0
425,0.0
450,0.0
451,0.0
452,-0.32125064590633495
453,0.0
490,0.0
515,0.0
516,0.0
542,0.0
592,5029363.153609448
632,28843419.430709038
686,1.0
687,1.0
688,2.0
2,21, 1,21, 0, 9,10.00,20.00,Monday
250,7.02622004594701
251,33924027.33365291
336,0.0
385,19.279947047502798
386,28.825837075554293
387,-0.22706062841005792
388,0.0
425,0.0
450,0.0
451,0.0
452,0.2030134461801037
453,0.0
490,0.0
515,0.0
516,0.0
542,0.0
592,5057356.862312016
632,28682412.380950578
686,1.0
687,1.0
688,2.0
2,21, 1,21, 0, 9,20.00,30.00,Monday
250,7.274877764015068
251,33792858.31185682
336,0.0
385,19.279947047502798
386,28.825837075554293
387,-0.06412882191574294
388,0.0
425,0.0
450,0.0
451,0.0
452,0.7677748399973522
453,0.0
490,0.0
515,0.0
516,0.0
542,0.0
592,5085392.284952975
632,28523047.767312627
686,1.0
687,1.0
688,2.0
2,21, 1,21, 0, 9,30.00,40.00,Monday
250,7.522746738081212
251,33662114.22389217
336,0.0
385,19.279947047502798
386,28.825837075554293
387,0.10601844831052074
388,0.0
425,0.0
450,0.0
451,0.0
452,1.3626215837172087
453,0.0
490,0.0
515,0.0
516,0.0
542,0.0
592,5113485.892141593
632,28363918.52315266
686,1.0
687,1.0
688,2.0
2,21, 1,21, 0, 9,40.00,50.00,Monday
250,7.773251280875126
251,33529155.708533697
336,0.0
385,19.279947047502812
386,28.825837075554315
387,0.24977843384971873
388,0.0
425,0.0
450,0.0
451,0.0
452,1.8675572109225957
453,0.0
490,0.0
515,0.0
516,0.0
542,0.0
592,5141654.529350725
632,28178405.783454493
686,1.0000000000000009
687,1.0000000000000009
688,2.0000000000000018
2,21, 1,21, 0, 9,50.00,60.00,Monday
250,8.018962942043864
251,33399033.549953423
336,0.0
385,19.279947047502798
386,28.825837075554293
387,0.4014418390115284
388,0.0
425,0.0
450,0.0
451,0.0
452,2.4109603579758616
453,0.0
490,0.0
515,0.0
516,0.0
542,0.0
592,5169915.672059793
632,28045011.783395723
686,1.0
687,1.0
688,2.0
2,21, 1,21, 0,10, 0.00,10.00,Monday
250,8.426410277015325
251,33183015.99986296
336,0.0
385,19.279947047502798
386,28.825837075554297
387,0.5913078652604646
388,0.0
425,0.0
450,0.0
451,0.0
452,2.9737135333790397
453,0.0
490,0.0
515,0.0
516,0.0
542,0.0
592,5241404.10703412
632,27764443.52676358
686,1.0
687,1.0
688,2.0
2,21, 1,21, 0,10,10.00,20.00,Monday
250,8.841353593483422
251,32963470.406424988
336,0.0
385,19.279947047502798
386,28.825837075554293
387,0.8830900627407605
388,0.0
425,0.0
450,0.0
451,0.0
452,3.7289376145486757
453,0.0
490,0.0
515,0.0
516,0.0
542,0.0
592,5315291.857316207
632,27472363.37605584
686,1.0
687,1.0
688,2.0
2,21, 1,21, 0,10,20.00,30.00,Monday
250,9.263217775413633
251,32739094.221333392
336,0.0
385,19.27994704750279
386,28.825837075554283
387,1.1648517899711073
388,0.0
425,0.0
450,0.0
451,0.0
452,4.4206525647001635
453,0.0
490,0.0
515,0.0
516,0.0
542,0.0
592,5391793.298050374
632,27172640.961724684
686,0.9999999999999996
687,0.9999999999999996
688,1.9999999999999991
2,21, 1,21, 0,10,30.00,40.00,Monday
250,9.688215645663181
251,32512909.11684984
336,0.0
385,19.279947047502805
386,28.825837075554304
387,1.4476259900464492
388,0.0
425,0.0
450,0.0
451,0.0
452,5.122463406139378
453,0.0
490,0.0
515,0.0
516,0.0
542,0.0
592,5471132.199313744
632,26867802.00528168
686,1.0000000000000004
687,1.0000000000000004
688,2.000000000000001
2,21, 1,21, 0,10,40.00,50.00,Monday
250,10.117725047085735
251,32284162.515262973
336,0.0
385,19.279947047502812
386,28.825837075554315
387,1.7384718473444902
388,0.0
425,0.0
450,0.0
451,0.0
452,5.88391266577338
453,0.0
490,0.0
515,0.0
516,0.0
542,0.0
592,5553542.3757593315
632,26557593.822814718
686,1.0000000000000009
687,1.0000000000000009
688,2.0000000000000018
2,21, 1,21, 0,10,50.00,60.00,Monday
250,10.547883239649709
251,32054932.53465209
336,0.0
385,19.279947047502812
386,28.825837075554315
387,2.0392519786812566
388,0.0
425,0.0
450,0.0
451,0.0
452,6.712272534944636
453,0.0
490,0.0
515,0.0
516,0.0
542,0.0
592,5639267.778995938
632,26242804.00810991
686,1.0000000000000009
687,1.0000000000000009
688,2.0000000000000018
2,21, 1,21, 0,11, 0.00,10.00,Monday
250,10.832043863603644
251,31903725.30598652
336,0.0
385,19.279947047502798
386,28.825837075554297
387,2.3261858909039135
388,0.0
425,0.0
450,0.0
451,0.0
452,7.567757528633235
453,0.0
490,0.0
515,0.0
516,0.0
542,0.0
592,5689519.861596226
632,26011903.191301048
686,1.0
687,1.0
688,2.0
2,21, 1,21, 0,11,10.00,20.00,Monday
250,11.107130360522094
251,31757187.417244077
336,0.0
385,19.279947047502798
386,28.825837075554293
387,2.596111118376087
388,0.0
425,0.0
450,0.0
451,0.0
452,8.41852834786634
453,0.0
490,0.0
515,0.0
516,0.0
542,0.0
592,5740969.350869594
632,25812286.252797887
686,1.0
687,1.0
688,2.0
2,21, 1,21, 0,11,20.00,30.00,Monday
250,11.382547773356118
251,31610436.774866927
336,0.0
385,19.27994704750279
386,28.825837075554283
387,2.8682404722507338
388,0.0
425,0.0
450,0.0
451,0.0
452,9.265250748398838
453,0.0
490,0.0
515,0.0
516,0.0
542,0.0
592,5793671.095282218
632,25612969.921636403
686,0.9999999999999996
687,0.9999999999999996
688,1.9999999999999991
2,21, 1,21, 0,11,30.00,40.00,Monday
250,11.653543321326794
251,31466019.473597534
336,0.0
385,19.279947047502805
386,28.825837075554304
387,3.1454642631606142
388,0.0
425,0.0
450,0.0
451,0.0
452,10.091252474224602
453,0.0
490,0.0
515,0.0
516,0.0
542,0.0
592,5847681.4279665835
632,25413658.843274087
686,1.0000000000000004
687,1.0000000000000004
688,2.000000000000001
2,21, 1,21, 0,11,40.00,50.00,Monday
250,11.921929868333004
251,31322958.826853156
336,0.0
385,19.279947047502812
386,28.825837075554315
387,3.4244003014920352
388,0.0
425,0.0
450,0.0
451,0.0
452,10.833863198207702
453,0.0
490,0.0
515,0.0
516,0.0
542,0.0
592,5903058.082199925
632,25214713.819652077
686,1.0000000000000009
687,1.0000000000000009
688,2.0000000000000018
2,21, 1,21, 0,11,50.00,60.00,Monday
250,12.187096336438088
251,31181583.78675112
336,0.0
385,19.279947047502812
386,28.825837075554315
387,3.701214391812371
388,0.0
425,0.0
450,0.0
451,0.0
452,11.466303211690024
453,0.0
490,0.0
515,0.0
516,0.0
542,0.0
592,5959860.237244541
632,25015904.74990134
686,1.0000000000000009
687,1.0000000000000009
688,2.0000000000000018
2,21, 1,21, 0,12, 0.00,10.00,Monday
250,12.44388605176786
251,31044402.905172035
336,0.0
385,19.279947047502798
386,28.825837075554293
387,3.9407593582203377
388,0.0
425,0.0
450,0.0
451,0.0
452,11.965972140202897
453,0.0
490,0.0
515,0.0
516,0.0
542,0.0
592,5991096.197635707
632,24872596.8193799
686,1.0
687,1.0
688,2.0
2,21, 1,21, 0,12,10.00,20.00,Monday
250,12.691758189795518
251,30915333.82190716
336,0.0
385,19.279947047502798
386,28.825837075554293
387,4.232900094899592
388,0.0
425,0.0
450,0.0
451,0.0
452,12.529674184225641
453,0.0
490,0.0
515,0.0
516,0.0
542,0.0
592,7572016.881221028
632,23158657.5686266
686,1.0
687,1.0
688,2.0
2,21, 1,21, 0,12,20.00,30.00,Monday
250,12.945139996626704
251,30781837.64037187
336,0.0
385,19.279947047502798
386,28.825837075554293
387,4.501939093474367
388,0.0
425,0.0
450,0.0
451,0.0
452,13.046137092977915
453,0.0
490,0.0
515,0.0
516,0.0
542,0.0
592,7609409.155487608
632,22989289.314893305
686,1.0
687,1.0
688,2.0
2,21, 1,21, 0,12,30.00,40.00,Monday
250,13.195942103431406
251,30649745.836021014
336,0.0
385,19.279947047502798
386,28.825837075554293
387,4.760628995628349
388,0.0
425,0.0
450,0.0
451,0.0
452,13.537324564263617
453,0.0
490,0.0
515,0.0
516,0.0
542,0.0
592,7646583.592010483
632,22819233.837532975
686,1.0
687,1.0
688,2.0
2,21, 1,21, 0,12,40.00,50.00,Monday
250,13.445917918338878
251,30518099.88775506
336,0.0
385,19.279947047502798
386,28.825837075554293
387,5.0149096524703545
388,0.0
425,0.0
450,0.0
451,0.0
452,13.978273405231441
453,0.0
490,0.0
515,0.0
516,0.0
542,0.0
592,7683540.190789654
632,22650393.721451543
686,1.0
687,1.0
688,2.0
2,21, 1,21, 0,12,50.00,60.00,Monday
250,13.695519794630583
251,30386654.591940254
336,0.0
385,19.279947047502798
386,28.825837075554293
387,5.263728206739994
388,0.0
425,0.0
450,0.0
451,0.0
452,14.346710349440775
453,0.0
490,0.0
515,0.0
516,0.0
542,0.0
592,7720278.951825123
632,22482097.077471517
686,1.0
687,1.0
688,2.0
2,21, 1,21, 0,13, 0.00,10.00,Monday
250,13.871750997081786
251,30292324.696390826
336,0.0
385,19.279947047502798
386,28.825837075554293
387,5.49594859639386
388,0.0
425,0.0
450,0.0
451,0.0
452,14.638074488791814
453,0.0
490,0.0
515,0.0
516,0.0
542,0.0
592,7745410.487127085
632,22365420.02526046
686,1.0
687,1.0
688,2.0
2,21, 1,21, 0,13,10.00,20.00,Monday
250,14.043175210658632
251,30202857.095730323
336,0.0
385,19.279947047502798
386,28.825837075554293
387,5.714462496487646
388,0.0
425,0.0
450,0.0
451,0.0
452,14.866755461894257
453,0.0
490,0.0
515,0.0
516,0.0
542,0.0
592,7770439.060057996
632,22266053.31934558
686,1.0
687,1.0
688,2.0
2,21, 1,21, 0,13,20.00,30.00,Monday
250,14.220851273501653
251,30110710.0284854
336,0.0
385,19.279947047502798
386,28.825837075554293
387,5.9190748507759245
388,0.0
425,0.0
450,0.0
451,0.0
452,15.049620117533518
453,0.0
490,0.0
515,0.0
516,0.0
542,0.0
592,7795364.670617863
632,22152367.05327549
686,1.0
687,1.0
688,2.0
2,21, 1,21, 0,13,30.00,40.00,Monday
250,14.39816833863284
251,30018844.11940065
336,0.0
385,19.279947047502798
386,28.825837075554293
387,6.113813518711656
388,0.0
425,0.0
450,0.0
451,0.0
452,15.198838650659335
453,0.0
490,0.0
515,0.0
516,0.0
542,0.0
592,7820187.318806681
632,22035496.990547273
686,1.0
687,1.0
688,2.0
2,21, 1,21, 0,13,40.00,50.00,Monday
250,14.574345672906238
251,29927627.818472344
336,0.0
385,19.279947047502798
386,28.825837075554293
387,6.302419238131172
388,0.0
425,0.0
450,0.0
451,0.0
452,15.317785407652137
453,0.0
490,0.0
515,0.0
516,0.0
542,0.0
592,7844907.00462445
632,21918958.0716979
686,1.0
687,1.0
688,2.0
2,21, 1,21, 0,13,50.00,60.00,Monday
250,14.750251080904619
251,29836586.62755486
336,0.0
385,19.279947047502798
386,28.825837075554293
387,6.486202767127299
388,0.0
425,0.0
450,0.0
451,0.0
452,15.410495613766889
453,0.0
490,0.0
515,0.0
516,0.0
542,0.0
592,7869523.728071173
632,21803165.87444673
686,1.0
687,1.0
688,2.0
2,21, 1,21, 0,14, 0.00,10.00,Monday
250,14.946300693279484
251,29734695.333989963
336,0.0
385,19.279947047502798
386,28.825837075554293
387,6.6679724433916086
388,0.0
425,0.0
450,0.0
451,0.0
452,15.466042442834235
453,0.0
490,0.0
515,0.0
516,0.0
542,0.0
592,7896260.907308879
632,21685430.07868231
686,1.0
687,1.0
688,2.0
2,21, 1,21, 0,14,10.00,20.00,Monday
250,15.137482637508782
251,29635215.12583388
336,0.0
385,19.279947047502798
386,28.825837075554293
387,6.847851010858125
388,0.0
425,0.0
450,0.0
451,0.0
452,15.465734602788245
453,0.0
490,0.0
515,0.0
516,0.0
542,0.0
592,7922875.552815753
632,21556719.345218904
686,1.0
687,1.0
688,2.0
2,21, 1,21, 0,14,20.00,30.00,Monday
250,15.325565222715797
251,29537290.83075449
336,0.0
385,19.279947047502798
386,28.825837075554293
387,7.023700867639563
388,0.0
425,0.0
450,0.0
451,0.0
452,15.409266125049818
453,0.0
490,0.0
515,0.0
516,0.0
542,0.0
592,7949367.664591796
632,21430641.384624474
686,1.0
687,1.0
688,2.0
2,21, 1,21, 0,14,30.00,40.00,Monday
250,15.51142084663145
251,29440574.549602848
336,0.0
385,19.279947047502798
386,28.825837075554293
387,7.189600602426689
388,0.0
425,0.0
450,0.0
451,0.0
452,15.286245885152432
453,0.0
490,0.0
515,0.0
516,0.0
542,0.0
592,7975737.242637003
632,21306365.02010025
686,1.0
687,1.0
688,2.0
2,21, 1,21, 0,14,40.00,50.00,Monday
250,15.694985809001222
251,29345121.27394529
336,0.0
385,19.279947047502798
386,28.825837075554293
387,7.3418463356581505
388,0.0
425,0.0
450,0.0
451,0.0
452,15.077044454288858
453,0.0
490,0.0
515,0.0
516,0.0
542,0.0
592,8001984.286951375
632,21183439.641374797
686,1.0
687,1.0
688,2.0
2,21, 1,21, 0,14,50.00,60.00,Monday
250,15.876735267089341
251,29250669.34133538
336,0.0
385,19.279947047502798
386,28.825837075554293
387,7.4807053698825365
388,0.0
425,0.0
450,0.0
451,0.0
452,14.784962281783624
453,0.0
490,0.0
515,0.0
516,0.0
542,0.0
592,8028108.797534915
632,21061894.773413874
686,1.0
687,1.0
688,2.0
2,21, 1,21, 0,15, 0.00,10.00,Monday
250,16.10989170686101
251,29129266.87863107
336,0.0
385,19.279947047502798
386,28.825837075554293
387,7.601179839648701