Program Version,EnergyPlus, Version 24.2.0-94a887817b, YMD=2025.02.04 15:38
1,5,Environment Title[],Latitude[deg],Longitude[deg],Time Zone[],Elevation[m]
2,8,Day of Simulation[],Month[],Day of Month[],DST Indicator[1=yes 0=no],Hour[],StartMinute[],EndMinute[],DayType
3,5,Cumulative Day of Simulation[],Month[],Day of Month[],DST Indicator[1=yes 0=no],DayType  ! When Daily Meters Requested
4,2,Cumulative Days of Simulation[],Month[]  ! When Monthly Meters Requested
5,1,Cumulative Days of Simulation[] ! When Run Period Meters Requested
6,1,Calendar Year of Simulation[] ! When Annual Meters Requested
11,9,Electricity:Facility [J] !Monthly [Value,Min,Day,Hour,Minute,Max,Day,Hour,Minute]
23,9,Electricity:Building [J] !Monthly [Value,Min,Day,Hour,Minute,Max,Day,Hour,Minute]
59,9,InteriorLights:Electricity [J] !Monthly [Value,Min,Day,Hour,Minute,Max,Day,Hour,Minute]
521,9,Electricity:HVAC [J] !Monthly [Value,Min,Day,Hour,Minute,Max,Day,Hour,Minute]
637,9,NaturalGas:Facility [J] !Monthly [Value,Min,Day,Hour,Minute,Max,Day,Hour,Minute]
649,9,NaturalGas:HVAC [J] !Monthly [Value,Min,Day,Hour,Minute,Max,Day,Hour,Minute]
13,11,Electricity:Facility [J] !RunPeriod [Value,Min,Month,Day,Hour,Minute,Max,Month,Day,Hour,Minute]
25,11,Electricity:Building [J] !RunPeriod [Value,Min,Month,Day,Hour,Minute,Max,Month,Day,Hour,Minute]
61,11,InteriorLights:Electricity [J] !RunPeriod [Value,Min,Month,Day,Hour,Minute,Max,Month,Day,Hour,Minute]
523,11,Electricity:HVAC [J] !RunPeriod [Value,Min,Month,Day,Hour,Minute,Max,Month,Day,Hour,Minute]
639,11,NaturalGas:Facility [J] !RunPeriod [Value,Min,Month,Day,Hour,Minute,Max,Month,Day,Hour,Minute]
651,11,NaturalGas:HVAC [J] !RunPeriod [Value,Min,Month,Day,Hour,Minute,Max,Month,Day,Hour,Minute]
End of Data Dictionary
1,RUN PERIOD 1,  41.98, -87.92,  -6.00, 201.00
4,31, 1
11,9819428670.599825,408891.4285714286, 5, 6,60,2976849.0146863633,16,13,60
23,980378569.3688426,30000.0, 1, 1,10,607375.7749049385, 1, 9,10
59,970200000.0,30000.0, 1, 1,10,600000.0, 1, 8,10
521,8839050101.230986,378891.4285714286, 5, 6,60,2369473.239781425,16,13,60
637,170134298685.371,25038666.474751253,21,16,10,41250000.0, 1, 1,40
649,170134298685.371,25038666.474751253,21,16,10,41250000.0, 1, 1,40
4,59, 2
11,9360408555.746475,99999999999999.0, 5, 6,60,3018310.4549494856,22,15,30
23,862243389.6066563,99999999999999.0, 1, 1,10,680213.8013901932,11,16,10
59,848160000.0,99999999999999.0, 1, 1,10,-99999999999999.0, 1, 8,10
521,8498165166.139866,99999999999999.0, 5, 6,60,2410934.680044547,22,15,30
637,148217997811.22833,17045231.302076437,23,12,60,-99999999999999.0, 1, 1,40
649,148217997811.22833,17045231.302076437,23,12,60,-99999999999999.0, 1, 1,40
4,90, 3
11,10808479790.106457,307375.77490493853,26,18,10,3073495.4447945207,19,14,60
23,923211093.4366074,99999999999999.0, 1, 1,10,696195.0879247371,27, 9,10
59,897480000.0,99999999999999.0, 1, 1,10,-99999999999999.0, 1, 8,10
521,9885268696.66989,0.0,19,16,60,2412487.1147156483, 9,11,60
637,144413960972.35233,0.0,19,16,60,-99999999999999.0, 1, 1,40
649,144413960972.35233,0.0,19,16,60,-99999999999999.0, 1, 1,40
4,120, 4
11,8832372703.494986,30000.0,11,19,10,-99999999999999.0,19,14,60
23,958083170.9059664,99999999999999.0, 1, 1,10,697608.2113551936,19,13,60
59,929520000.0,99999999999999.0, 1, 1,10,-99999999999999.0, 1, 8,10
521,7874289532.588995,99999999999999.0,19,16,60,-99999999999999.0, 9,11,60
637,101686437373.1377,99999999999999.0,19,16,60,-99999999999999.0, 1, 1,40
649,101686437373.1377,99999999999999.0,19,16,60,-99999999999999.0, 1, 1,40
4,151, 5
11,7181639221.2577505,99999999999999.0,11,19,10,-99999999999999.0,19,14,60
23,1035691459.7730087,99999999999999.0, 1, 1,10,-99999999999999.0,19,13,60
59,970200000.0,99999999999999.0, 1, 1,10,-99999999999999.0, 1, 8,10
521,6145947761.484633,99999999999999.0,19,16,60,2415896.21347727,13,11,60
637,64208958400.30996,99999999999999.0,19,16,60,-99999999999999.0, 1, 1,40
649,64208958400.30996,99999999999999.0,19,16,60,-99999999999999.0, 1, 1,40
4,181, 6
11,4202221540.305899,99999999999999.0,11,19,10,-99999999999999.0,19,14,60
23,910291597.2789278,99999999999999.0, 1, 1,10,-99999999999999.0,19,13,60
59,856800000.0,99999999999999.0, 1, 1,10,-99999999999999.0, 1, 8,10
521,3291929943.027036,99999999999999.0,19,16,60,-99999999999999.0,13,11,60
637,18284755159.625397,99999999999999.0,19,16,60,-99999999999999.0, 1, 1,40
649,18284755159.625397,99999999999999.0,19,16,60,-99999999999999.0, 1, 1,40
4,212, 7
11,3532173875.2353377,99999999999999.0,11,19,10,-99999999999999.0,19,14,60
23,989706405.4775686,99999999999999.0, 1, 1,10,-99999999999999.0,19,13,60
59,970200000.0,99999999999999.0, 1, 1,10,-99999999999999.0, 1, 8,10
521,2542467469.7578316,99999999999999.0,19,16,60,-99999999999999.0,13,11,60
637,2522043293.576612,99999999999999.0,19,16,60,-99999999999999.0, 1, 1,40
649,2522043293.576612,99999999999999.0,19,16,60,-99999999999999.0, 1, 1,40
4,243, 8
11,2620073329.111058,99999999999999.0,11,19,10,-99999999999999.0,19,14,60
23,965028216.362444,99999999999999.0, 1, 1,10,-99999999999999.0,19,13,60
59,933840000.0,99999999999999.0, 1, 1,10,-99999999999999.0, 1, 8,10
521,1655045112.7487051,99999999999999.0,19,16,60,2425014.912217356,16, 7,20
637,7686864501.846221,99999999999999.0,19,16,60,-99999999999999.0, 1, 1,40
649,7686864501.846221,99999999999999.0,19,16,60,-99999999999999.0, 1, 1,40
4,273, 9
11,4602871885.782398,99999999999999.0,11,19,10,-99999999999999.0,19,14,60
23,950243187.8382457,99999999999999.0, 1, 1,10,-99999999999999.0,19,13,60
59,893160000.0,99999999999999.0, 1, 1,10,-99999999999999.0, 1, 8,10
521,3652628697.944197,99999999999999.0,19,16,60,-99999999999999.0,16, 7,20
637,32778362732.944794,99999999999999.0,19,16,60,-99999999999999.0, 1, 1,40
649,32778362732.944794,99999999999999.0,19,16,60,-99999999999999.0, 1, 1,40
4,304,10
11,9741704794.892654,99999999999999.0,11,19,10,3079694.7556545236,25,17,10
23,1044001141.116423,99999999999999.0, 1, 1,10,701979.4014675476,24,15,60
59,970200000.0,99999999999999.0, 1, 1,10,-99999999999999.0, 1, 8,10
521,8697703653.776257,99999999999999.0,19,16,60,-99999999999999.0,16, 7,20
637,101839320884.87881,99999999999999.0,19,16,60,-99999999999999.0, 1, 1,40
649,101839320884.87881,99999999999999.0,19,16,60,-99999999999999.0, 1, 1,40
4,334,11
11,9993271851.774427,99999999999999.0,11,19,10,3080071.8099257294,15,13,10
23,946829566.0977833,99999999999999.0, 1, 1,10,704573.9901437389,20,14,40
59,893160000.0,99999999999999.0, 1, 1,10,-99999999999999.0, 1, 8,10
521,9046442285.676693,99999999999999.0,19,16,60,-99999999999999.0,16, 7,20
637,127340403228.6777,99999999999999.0,19,16,60,-99999999999999.0, 1, 1,40
649,127340403228.6777,99999999999999.0,19,16,60,-99999999999999.0, 1, 1,40
4,365,12
11,10432526643.25833,99999999999999.0,11,19,10,-99999999999999.0,15,13,10
23,943576022.8745449,99999999999999.0, 1, 1,10,-99999999999999.0,20,14,40
59,933840000.0,99999999999999.0, 1, 1,10,-99999999999999.0, 1, 8,10
521,9488950620.383821,99999999999999.0,19,16,60,-99999999999999.0,16, 7,20
637,170456345892.88776,99999999999999.0,19,16,60,-99999999999999.0, 1, 1,40
649,170456345892.88776,99999999999999.0,19,16,60,-99999999999999.0, 1, 1,40
5,365
13,91127172861.55634,30000.0, 4,11,19,10,3080071.8099257294,11,15,13,10
25,11509283820.135624,30000.0, 1, 1, 1,10,704573.9901437389,11,20,14,40
61,11066760000.0,30000.0, 1, 1, 1,10,600000.0, 1, 1, 8,10
523,79617889041.43393,0.0, 3,19,16,60,2425014.912217356, 8,16, 7,20
639,1089569748936.8287,0.0, 3,19,16,60,41250000.0, 1, 1, 1,40
651,1089569748936.8287,0.0, 3,19,16,60,41250000.0, 1, 1, 1,40
1,RUN PERIOD 2,  41.98, -87.92,  -6.00, 201.00
4,1, 7
11,51528816.73873911,99999999999999.0,11,19,10,-99999999999999.0,15,13,10
23,41122546.494296335,99999999999999.0, 1, 1,10,-99999999999999.0,20,14,40
59,40680000.0,99999999999999.0, 1, 1,10,-99999999999999.0, 1, 8,10
521,10406270.244442852,99999999999999.0,19,16,60,-99999999999999.0,16, 7,20
637,0.0,99999999999999.0,19,16,60,-99999999999999.0, 1, 1,40
649,0.0,99999999999999.0,19,16,60,-99999999999999.0, 1, 1,40
5,1
13,51528816.73873911,99999999999999.0, 4,11,19,10,-99999999999999.0,11,15,13,10
25,41122546.494296335,99999999999999.0, 1, 1, 1,10,-99999999999999.0,11,20,14,40
61,40680000.0,99999999999999.0, 1, 1, 1,10,-99999999999999.0, 1, 1, 8,10
523,10406270.244442852,99999999999999.0, 3,19,16,60,-99999999999999.0, 8,16, 7,20
639,0.0,99999999999999.0, 3,19,16,60,-99999999999999.0, 1, 1, 1,40
651,0.0,99999999999999.0, 3,19,16,60,-99999999999999.0, 1, 1, 1,40
End of Data
 Number of Records Written=          90
