Program Version,EnergyPlus, Version 24.2.0-94a887817b, YMD=2025.02.04 15:37
1,5,Environment Title[],Latitude[deg],Longitude[deg],Time Zone[],Elevation[m]
2,8,Day of Simulation[],Month[],Day of Month[],DST Indicator[1=yes 0=no],Hour[],StartMinute[],EndMinute[],DayType
3,5,Cumulative Day of Simulation[],Month[],Day of Month[],DST Indicator[1=yes 0=no],DayType  ! When Daily Report Variables Requested
4,2,Cumulative Days of Simulation[],Month[]  ! When Monthly Report Variables Requested
5,1,Cumulative Days of Simulation[] ! When Run Period Report Variables Requested
6,1,Calendar Year of Simulation[] ! When Annual Report Variables Requested
250,1,LIVING ZONE,Zone Air Temperature [C] !TimeStep,REPORTSCH
251,1,LIVING ZONE,Zone Air System Sensible Heating Energy [J] !TimeStep,REPORTSCH
336,1,LIVING ZONE,Zone Air System Sensible Cooling Energy [J] !TimeStep,REPORTSCH
385,1,LIVING ZONE,Zone Thermostat Heating Setpoint Temperature [C] !TimeStep,REPORTSCH
386,1,LIVING ZONE,Zone Thermostat Cooling Setpoint Temperature [C] !TimeStep,REPORTSCH
387,1,GARAGE ZONE,Zone Air Temperature [C] !TimeStep,REPORTSCH
388,1,GARAGE ZONE,Zone Air System Sensible Heating Energy [J] !TimeStep,REPORTSCH
425,1,GARAGE ZONE,Zone Air System Sensible Cooling Energy [J] !TimeStep,REPORTSCH
450,1,GARAGE ZONE,Zone Thermostat Heating Setpoint Temperature [C] !TimeStep,REPORTSCH
451,1,GARAGE ZONE,Zone Thermostat Cooling Setpoint Temperature [C] !TimeStep,REPORTSCH
452,1,ATTIC ZONE,Zone Air Temperature [C] !TimeStep,REPORTSCH
453,1,ATTIC ZONE,Zone Air System Sensible Heating Energy [J] !TimeStep,REPORTSCH
490,1,ATTIC ZONE,Zone Air System Sensible Cooling Energy [J] !TimeStep,REPORTSCH
515,1,ATTIC ZONE,Zone Thermostat Heating Setpoint Temperature [C] !TimeStep,REPORTSCH
516,1,ATTIC ZONE,Zone Thermostat Cooling Setpoint Temperature [C] !TimeStep,REPORTSCH
542,1,ACDXCOIL 1,Cooling Coil Total Cooling Energy [J] !TimeStep,REPORTSCH
592,1,HEAT PUMP DX HEATING COIL 1,Heating Coil Heating Energy [J] !TimeStep,REPORTSCH
632,1,SUPP HEATING COIL 1,Heating Coil Heating Energy [J] !TimeStep,REPORTSCH
686,1,TWOSPEED HEAT PUMP 1,Unitary System DX Coil Cycling Ratio [] !TimeStep,REPORTSCH
687,1,TWOSPEED HEAT PUMP 1,Unitary System DX Coil Speed Ratio [] !TimeStep,REPORTSCH
688,1,TWOSPEED HEAT PUMP 1,Unitary System DX Coil Speed Level [] !TimeStep,REPORTSCH
End of Data Dictionary
1,RUN PERIOD 1,  41.98, -87.92,  -6.00, 201.00
2,21, 1,21, 0, 1, 0.00,10.00,Monday
250,-0.825408007749024
251,38098097.02318251
336,0.0
385,17.45020191639188
386,24.01831381906138
387,-0.9474675869533408
388,0.0
425,0.0
450,0.0
451,0.0
452,-1.9748336673214988
453,0.0
490,0.0
515,0.0
516,0.0
542,0.0
592,4839743.985079641
632,33000000.0
686,1.0
687,1.0
688,2.0
2,21, 1,21, 0, 1,10.00,20.00,Monday
250,-0.8255648152759496
251,38082777.5161646
336,0.0
385,17.45020191639188
386,24.01831381906138
387,-0.9558284560200677
388,0.0
425,0.0
450,0.0
451,0.0
452,-1.9566889144916157
453,0.0
490,0.0
515,0.0
516,0.0
542,0.0
592,4823801.676011796
632,33000000.0
686,1.0
687,1.0
688,2.0
2,21, 1,21, 0, 1,20.00,30.00,Monday
250,-0.8257633880132125
251,38066856.490489446
336,0.0
385,17.45020191639188
386,24.01831381906138
387,-0.9654247762282072
388,0.0
425,0.0
450,0.0
451,0.0
452,-1.953610388389833
453,0.0
490,0.0
515,0.0
516,0.0
542,0.0
592,4807858.162905219
632,33000000.0
686,1.0
687,1.0
688,2.0
2,21, 1,21, 0, 1,30.00,40.00,Monday
250,-0.8259569989171338
251,38050909.10659035
336,0.0
385,17.45020191639188
386,24.01831381906138
387,-0.9764612649750124
388,0.0
425,0.0
450,0.0
451,0.0
452,-1.9664845908854216
453,0.0
490,0.0
515,0.0
516,0.0
542,0.0
592,4791913.445623511
632,33000000.0
686,1.0
687,1.0
688,2.0
2,21, 1,21, 0, 1,40.00,50.00,Monday
250,-0.8261521142258174
251,38034963.99946944
336,0.0
385,17.45020191639188
386,24.01831381906138
387,-0.9890952052826709
388,0.0
425,0.0
450,0.0
451,0.0
452,-1.9936904409085365
453,0.0
490,0.0
515,0.0
516,0.0
542,0.0
592,4775967.524030239
632,33000000.0
686,1.0
687,1.0
688,2.0
2,21, 1,21, 0, 1,50.00,60.00,Monday
250,-0.8263478322671516
251,38019017.20250504
336,0.0
385,17.45020191639188
386,24.01831381906138
387,-1.0035153799026795
388,0.0
425,0.0
450,0.0
451,0.0
452,-2.0336990017035186
453,0.0
490,0.0
515,0.0
516,0.0
542,0.0
592,4760020.397988958
632,33000000.0
686,1.0
687,1.0
688,2.0
2,21, 1,21, 0, 2, 0.00,10.00,Monday
250,-0.8264285731642224
251,38018955.299904495
336,0.0
385,17.45020191639188
386,24.01831381906138
387,-1.019039248637443
388,0.0
425,0.0
450,0.0
451,0.0
452,-2.0804648005112236
453,0.0
490,0.0
515,0.0
516,0.0
542,0.0
592,4760020.397988958
632,33000000.0
686,1.0
687,1.0
688,2.0
2,21, 1,21, 0, 2,10.00,20.00,Monday
250,-0.8265065447184609
251,38018953.80882671
336,0.0
385,17.45020191639188
386,24.01831381906138
387,-1.034723777563704
388,0.0
425,0.0
450,0.0
451,0.0
452,-2.123197385859187
453,0.0
490,0.0
515,0.0
516,0.0
542,0.0
592,4760020.397988956
632,33000000.0
686,1.0
687,1.0
688,2.0
2,21, 1,21, 0, 2,20.00,30.00,Monday
250,-0.8265843302486546
251,38018953.70865747
336,0.0
385,17.45020191639188
386,24.01831381906138
387,-1.0500152240167202
388,0.0
425,0.0
450,0.0
451,0.0
452,-2.1546668370762965
453,0.0
490,0.0
515,0.0
516,0.0
542,0.0
592,4760020.397988958
632,33000000.0
686,1.0
687,1.0
688,2.0
2,21, 1,21, 0, 2,30.00,40.00,Monday
250,-0.8266606100930357
251,38018952.89795255
336,0.0
385,17.45020191639188
386,24.01831381906138
387,-1.064592213576377
388,0.0
425,0.0
450,0.0
451,0.0
452,-2.1740497798120053
453,0.0
490,0.0
515,0.0
516,0.0
542,0.0
592,4760020.397988958
632,33000000.0
686,1.0
687,1.0
688,2.0
2,21, 1,21, 0, 2,40.00,50.00,Monday
250,-0.8267357483825828
251,38018952.28330474
336,0.0
385,17.45020191639188
386,24.01831381906138
387,-1.0783143049953472
388,0.0
425,0.0
450,0.0
451,0.0
452,-2.1841904308191995
453,0.0
490,0.0
515,0.0
516,0.0
542,0.0
592,4760020.397988958
632,33000000.0
686,1.0
687,1.0
688,2.0
2,21, 1,21, 0, 2,50.00,60.00,Monday
250,-0.8268095534457348
251,38018951.56545502
336,0.0
385,17.45020191639188
386,24.01831381906138
387,-1.0911441141528038
388,0.0
425,0.0
450,0.0
451,0.0
452,-2.1882374921152397
453,0.0
490,0.0
515,0.0
516,0.0
542,0.0
592,4760020.397988959
632,33000000.0
686,1.0
687,1.0
688,2.0
2,21, 1,21, 0, 3, 0.00,10.00,Monday
250,-0.744523410999273
251,37977144.95656617
336,0.0
385,17.45020191639188
386,24.01831381906138
387,-1.0926924590189313
388,0.0
425,0.0
450,0.0
451,0.0
452,-2.1807587098784302
453,0.0
490,0.0
515,0.0
516,0.0
542,0.0
592,4762558.894114006
632,33000000.0
686,1.0
687,1.0
688,2.0
2,21, 1,21, 0, 3,10.00,20.00,Monday
250,-0.6609565504899921
251,37978883.08660666
336,0.0
385,17.45020191639188
386,24.01831381906138
387,-1.0816464452920536
388,0.0
425,0.0
450,0.0
451,0.0
452,-2.1557780984839807
453,0.0
490,0.0
515,0.0
516,0.0
542,0.0
592,4764988.4357309695
632,33000000.0
686,1.0
687,1.0
688,2.0
2,21, 1,21, 0, 3,20.00,30.00,Monday
250,-0.5778382164785694
251,37981442.546862446
336,0.0
385,17.45020191639188
386,24.01831381906138
387,-1.06241403918245
388,0.0
425,0.0
450,0.0
451,0.0
452,-2.111847509757749
453,0.0
490,0.0
515,0.0
516,0.0
542,0.0
592,4767308.250738334
632,33000000.0
686,1.0
687,1.0
688,2.0
2,21, 1,21, 0, 3,30.00,40.00,Monday
250,-0.494763244947836
251,37961240.22112206
336,0.0
385,17.45020191639188
386,24.01831381906138
387,-1.0387906402211198
388,0.0
425,0.0
450,0.0
451,0.0
452,-2.0520997691402982
453,0.0
490,0.0
515,0.0
516,0.0
542,0.0
592,4769517.689516207
632,32977566.751548953
686,1.0
687,1.0
688,2.0
2,21, 1,21, 0, 3,40.00,50.00,Monday
250,-0.4118278249448826
251,37918173.17822988
336,0.0
385,17.45020191639188
386,24.01831381906138
387,-1.0120819708271693
388,0.0
425,0.0
450,0.0
451,0.0
452,-1.9810195730733815
453,0.0
490,0.0
515,0.0
516,0.0
542,0.0
592,4771616.115684973
632,32932328.011239126
686,1.0
687,1.0
688,2.0
2,21, 1,21, 0, 3,50.00,60.00,Monday
250,-0.3288787865930406
251,37875105.61216123
336,0.0
385,17.45020191639188
386,24.01831381906138
387,-0.9820436500113912
388,0.0
425,0.0
450,0.0
451,0.0
452,-1.9022251914569903
453,0.0
490,0.0
515,0.0
516,0.0
542,0.0
592,4773602.736238394
632,32887283.04801116
686,1.0
687,1.0
688,2.0
2,21, 1,21, 0, 4, 0.00,10.00,Monday
250,-0.32825248199529944
251,37876380.94325005
336,0.0
385,17.45020191639188
386,24.01831381906138
387,-0.9593131504698712
388,0.0
425,0.0
450,0.0
451,0.0
452,-1.8260053452091118
453,0.0
490,0.0
515,0.0
516,0.0
542,0.0
592,4773428.982371633
632,32844397.83844916
686,1.0
687,1.0
688,2.0
2,21, 1,21, 0, 4,10.00,20.00,Monday
250,-0.328597520542835
251,37876622.937367074
336,0.0
385,17.45020191639188
386,24.01831381906138
387,-0.9467138613903116
388,0.0
425,0.0
450,0.0
451,0.0
452,-1.7614001594635735
453,0.0
490,0.0
515,0.0
516,0.0
542,0.0
592,4773255.169447958
632,32844290.513162833
686,1.0
687,1.0
688,2.0
2,21, 1,21, 0, 4,20.00,30.00,Monday
250,-0.32846725621491574
251,37876584.300380774
336,0.0
385,17.45020191639188
386,24.01831381906138
387,-0.9407318523059202
388,0.0
425,0.0
450,0.0
451,0.0
452,-1.7120138471558897
453,0.0
490,0.0
515,0.0
516,0.0
542,0.0
592,4773081.29743726
632,32844681.730426807
686,1.0
687,1.0
688,2.0
2,21, 1,21, 0, 4,30.00,40.00,Monday
250,-0.32843743623165794
251,37876608.7766713
336,0.0
385,17.45020191639188
386,24.01831381906138
387,-0.9374916666097187
388,0.0
425,0.0
450,0.0
451,0.0
452,-1.67618652453827
453,0.0
490,0.0
515,0.0
516,0.0
542,0.0
592,4772907.3663094025
632,32844826.04186347
686,1.0
687,1.0
688,2.0
2,21, 1,21, 0, 4,40.00,50.00,Monday
250,-0.32841394462298146
251,37876634.88082585
336,0.0
385,17.45020191639188
386,24.01831381906138
387,-0.935205346488419
388,0.0
425,0.0
450,0.0
451,0.0
452,-1.6502474885280922
453,0.0
490,0.0
515,0.0
516,0.0
542,0.0
592,4772733.376034233
632,32845022.72804943
686,1.0
687,1.0
688,2.0
2,21, 1,21, 0, 4,50.00,60.00,Monday
250,-0.32838992497709163
251,37876660.59802204
336,0.0
385,17.45020191639188
386,24.01831381906138
387,-0.9336947346216466
388,0.0
425,0.0
450,0.0
451,0.0
452,-1.631138797194931
453,0.0
490,0.0
515,0.0
516,0.0
542,0.0
592,4772559.326581575
632,32845222.779095452
686,1.0
687,1.0
688,2.0
2,21, 1,21, 0, 5, 0.00,10.00,Monday
250,-0.32836737125605625
251,37876687.138847955
336,0.0
385,17.45020191639188
386,24.01831381906138
387,-0.93301647502649
388,0.0
425,0.0
450,0.0
451,0.0
452,-1.61624509125013
453,0.0
490,0.0
515,0.0
516,0.0
542,0.0
592,4759720.858689581
632,32858086.998324707
686,1.0
687,1.0
688,2.0
2,21, 1,21, 0, 5,10.00,20.00,Monday
250,-0.3283361948029706
251,37877983.55359399
336,0.0
385,17.45020191639188
386,24.01831381906138
387,-0.9330352665473933
388,0.0
425,0.0
450,0.0
451,0.0
452,-1.603255500048354
453,0.0
490,0.0
515,0.0
516,0.0
542,0.0
592,4746877.262331868
632,32872231.653947838
686,1.0
687,1.0
688,2.0
2,21, 1,21, 0, 5,20.00,30.00,Monday
250,-0.3283049457518448
251,37879300.609476924
336,0.0
385,17.45020191639188
386,24.01831381906138
387,-0.9335215237627797
388,0.0
425,0.0
450,0.0
451,0.0
452,-1.5907684959092947
453,0.0
490,0.0
515,0.0
516,0.0
542,0.0
592,4734028.534436011
632,32886397.477419723
686,1.0
687,1.0
688,2.0
2,21, 1,21, 0, 5,30.00,40.00,Monday
250,-0.3282738614286005
251,37880610.92233781
336,0.0
385,17.45020191639188
386,24.01831381906138
387,-0.9342713114947881
388,0.0
425,0.0
450,0.0
451,0.0
452,-1.5783510996034398
453,0.0
490,0.0
515,0.0
516,0.0
542,0.0
592,4721174.671927156
632,32900561.564652454
686,1.0
687,1.0
688,2.0
2,21, 1,21, 0, 5,40.00,50.00,Monday
250,-0.3282427114506172
251,37881923.1966604
336,0.0
385,17.45020191639188
386,24.01831381906138
387,-0.9351484700443705
388,0.0
425,0.0
450,0.0
451,0.0
452,-1.5660724990686123
453,0.0
490,0.0
515,0.0
516,0.0
542,0.0
592,4708315.671727969
632,32914732.875126235
686,1.0
687,1.0
688,2.0
2,21, 1,21, 0, 5,50.00,60.00,Monday
250,-0.3282114202988319
251,37883236.01830346
336,0.0
385,17.45020191639188
386,24.01831381906138
387,-0.9360738195805097
388,0.0
425,0.0
450,0.0
451,0.0
452,-1.5540838631621976
453,0.0
490,0.0
515,0.0
516,0.0
542,0.0
592,4695451.530758676
632,32928909.914372697
686,1.0
687,1.0
688,2.0
2,21, 1,21, 0, 6, 0.00,10.00,Monday
250,-0.3281786994164059
251,37884548.5816689
336,0.0
385,17.45020191639188
386,24.01831381906138
387,-0.9371341565057519
388,0.0
425,0.0
450,0.0
451,0.0
452,-1.5430822515296327
453,0.0
490,0.0
515,0.0
516,0.0
542,0.0
592,4695264.08225586
632,32930410.697003454
686,1.0
687,1.0
688,2.0
2,21, 1,21, 0, 6,10.00,20.00,Monday
250,-0.3281548286914688
251,37884590.18704661
336,0.0
385,17.45020191639188
386,24.01831381906138
387,-0.9384128812825545
388,0.0
425,0.0
450,0.0
451,0.0
452,-1.5338817555573732
453,0.0
490,0.0
515,0.0
516,0.0
542,0.0
592,4695076.569900009
632,32930635.047331862
686,1.0
687,1.0
688,2.0
2,21, 1,21, 0, 6,20.00,30.00,Monday
250,-0.328130972785499
251,37884611.6285342
336,0.0
385,17.45020191639188
386,24.01831381906138
387,-0.9399041093155974
388,0.0
425,0.0
450,0.0
451,0.0
452,-1.5268070749854887
453,0.0
490,0.0
515,0.0
516,0.0
542,0.0
592,4694888.993658494
632,32930844.05708987
686,1.0
687,1.0
688,2.0
2,21, 1,21, 0, 6,30.00,40.00,Monday
250,-0.3281067895876267
251,37884640.276903205
336,0.0
385,17.45020191639188
386,24.01831381906138
387,-0.9415656127265931
388,0.0
425,0.0
450,0.0
451,0.0
452,-1.5216500542297053
453,0.0
490,0.0
515,0.0
516,0.0
542,0.0
592,4694701.353498662
632,32931060.52193983
686,1.0
687,1.0
688,2.0
2,21, 1,21, 0, 6,40.00,50.00,Monday
250,-0.32808237207489294
251,37884667.342402294
336,0.0
385,17.45020191639188
386,24.01831381906138
387,-0.9433653624876768
388,0.0
425,0.0
450,0.0
451,0.0
452,-1.5179618343598826
453,0.0
490,0.0
515,0.0
516,0.0
542,0.0
592,4694513.649387832
632,32931275.417785432
686,1.0
687,1.0
688,2.0
2,21, 1,21, 0, 6,50.00,60.00,Monday
250,-0.32805783760983676
251,37884694.26380549
336,0.0
385,17.45020191639188
386,24.01831381906138
387,-0.9452861703991822
388,0.0
425,0.0
450,0.0
451,0.0
452,-1.5153229750404744
453,0.0
490,0.0
515,0.0
516,0.0
542,0.0
592,4694325.88129331
632,32931490.170297578
686,1.0
687,1.0
688,2.0
2,21, 1,21, 0, 7, 0.00,10.00,Monday
250,-0.32868075278660436
251,37885069.98806573
336,0.0
385,17.45020191639188
386,24.01831381906138
387,-0.9497494589349261
388,0.0
425,0.0
450,0.0
451,0.0
452,-1.5186014093385578
453,0.0
490,0.0
515,0.0
516,0.0
542,0.0
592,4723573.583255435
632,32902269.42060472
686,1.0
687,1.0
688,2.0
2,21, 1,21, 0, 7,10.00,20.00,Monday
250,-0.3286586299190574
251,37882156.7675866
336,0.0
385,17.45020191639188
386,24.01831381906138
387,-0.9589282223141745
388,0.0
425,0.0
450,0.0
451,0.0
452,-1.5372717087448424
453,0.0
490,0.0
515,0.0
516,0.0
542,0.0
592,4752837.186047653
632,32870440.06933209
686,1.0
687,1.0
688,2.0
2,21, 1,21, 0, 7,20.00,30.00,Monday
250,-0.32862052867385616
251,37879186.84745303
336,0.0
385,17.45020191639188
386,24.01831381906138
387,-0.9730634497629533
388,0.0
425,0.0
450,0.0
451,0.0
452,-1.5767028486502865
453,0.0
490,0.0
515,0.0
516,0.0
542,0.0
592,4782116.702651945
632,32838199.23766424
686,1.0
687,1.0
688,2.0
2,21, 1,21, 0, 7,30.00,40.00,Monday
250,-0.3285858327890957
251,37876234.15586562
336,0.0
385,17.45020191639188
386,24.01831381906138
387,-0.9912005833421867
388,0.0
425,0.0
450,0.0
451,0.0
452,-1.6345087859311695
453,0.0
490,0.0
515,0.0
516,0.0
542,0.0
592,4811412.146064443
632,32805949.267080456
686,1.0
687,1.0
688,2.0
2,21, 1,21, 0, 7,40.00,50.00,Monday
250,-0.32854980670603284
251,37873275.77073794
336,0.0
385,17.45020191639188
386,24.01831381906138
387,-1.0122611600426166
388,0.0
425,0.0
450,0.0
451,0.0
452,-1.7044346907416748
453,0.0
490,0.0
515,0.0
516,0.0
542,0.0
592,4840723.52929546
632,32773680.213609193
686,1.0
687,1.0
688,2.0
2,21, 1,21, 0, 7,50.00,60.00,Monday
250,-0.3285132774779254
251,37870315.30595327
336,0.0
385,17.45020191639188
386,24.01831381906138
387,-1.0354983616457694
388,0.0
425,0.0
450,0.0
451,0.0
452,-1.7807887183704765
453,0.0
490,0.0
515,0.0
516,0.0
542,0.0
592,4870050.865369484
632,32741392.68217631
686,1.0
687,1.0
688,2.0
2,21, 1,21, 0, 8, 0.00,10.00,Monday
250,-0.12824996504942116
251,37759544.06748708
336,0.0
385,17.45020191639188
386,24.01831381906138
387,-1.03161724293113
388,0.0
425,0.0
450,0.0
451,0.0
452,-1.8397372651031298
453,0.0
490,0.0
515,0.0
516,0.0
542,0.0
592,4889730.300311495
632,32718751.228880383
686,1.0
687,1.0
688,2.0
2,21, 1,21, 0, 8,10.00,20.00,Monday
250,0.07210373909460034
251,37653981.316346146
336,0.0
385,17.45020191639188
386,24.01831381906138
387,-0.9901007346052912
388,0.0
425,0.0
450,0.0
451,0.0
452,-1.8308832092600875
453,0.0
490,0.0
515,0.0
516,0.0
542,0.0
592,4909380.719869504
632,32593593.36056492
686,1.0
687,1.0
688,2.0
2,21, 1,21, 0, 8,20.00,30.00,Monday
250,0.27114242034609437
251,37549208.74816675
336,0.0
385,17.45020191639188
386,24.01831381906138
387,-0.9191055959207686
388,0.0
425,0.0
450,0.0
451,0.0
452,-1.723454401095712
453,0.0
490,0.0
515,0.0
516,0.0
542,0.0
592,4929009.6156952735
632,32468490.658715192
686,1.0
687,1.0
688,2.0
2,21, 1,21, 0, 8,30.00,40.00,Monday
250,0.47054370551093805
251,37444209.60533078
336,0.0
385,17.45020191639188
386,24.01831381906138
387,-0.828846603066256
388,0.0
425,0.0
450,0.0
451,0.0
452,-1.527825148064337
453,0.0
490,0.0
515,0.0
516,0.0
542,0.0
592,4952863.646772657
632,32339839.57102112
686,1.0
687,1.0
688,2.0
2,21, 1,21, 0, 8,40.00,50.00,Monday
250,0.6700094235973078
251,37338768.19859817
336,0.0
385,17.45020191639188
386,24.01831381906138
387,-0.7272789778245774
388,0.0
425,0.0
450,0.0
451,0.0
452,-1.2523436943413875
453,0.0
490,0.0
515,0.0
516,0.0
542,0.0
592,4977062.298687914
632,32210239.90367011
686,1.0
687,1.0
688,2.0
2,21, 1,21, 0, 8,50.00,60.00,Monday
250,0.8699787755619303
251,37233989.95429784
336,0.0
385,17.45020191639188
386,24.01831381906138
387,-0.6314182007453163
388,0.0
425,0.0
450,0.0
451,0.0
452,-0.9394248777789252
453,0.0
490,0.0
515,0.0
516,0.0
542,0.0
592,5001395.306277513
632,32028068.9555332
686,1.0
687,1.0
688,2.0
2,21, 1,21, 0, 9, 0.00,10.00,Monday
250,1.1358365366277356
251,37094768.895613044
336,0.0
385,17.45020191639188
386,24.01831381906138
387,-0.4930558913443346
388,0.0
425,0.0
450,0.0
451,0.0
452,-0.4600436715333069
453,0.0
490,0.0
515,0.0
516,0.0
542,0.0
592,5029363.153609448
632,31877515.8591429
686,1.0
687,1.0
688,2.0
2,21, 1,21, 0, 9,10.00,20.00,Monday
250,1.4016237203982747
251,36954629.4024215
336,0.0
385,17.45020191639188
386,24.01831381906138
387,-0.3422962103780289
388,0.0
425,0.0
450,0.0
451,0.0
452,0.06417934284010617
453,0.0
490,0.0
515,0.0
516,0.0
542,0.0
592,5057356.862312016
632,31709370.193771772
686,1.0
687,1.0
688,2.0
2,21, 1,21, 0, 9,20.00,30.00,Monday
250,1.667507127739713
251,36814433.84745891
336,0.0
385,17.45020191639188
386,24.01831381906138
387,-0.1823920499350611
388,0.0
425,0.0
450,0.0
451,0.0
452,0.628879567969329
453,0.0
490,0.0
515,0.0
516,0.0
542,0.0
592,5085392.284952975
632,31541165.762367174
686,1.0
687,1.0
688,2.0
2,21, 1,21, 0, 9,30.00,40.00,Monday
250,1.933343175274345
251,36674261.698024005
336,0.0
385,17.45020191639188
386,24.01831381906138
387,-0.012631293670836
388,0.0
425,0.0
450,0.0
451,0.0
452,1.2235116113834175
453,0.0
490,0.0
515,0.0
516,0.0
542,0.0
592,5113485.892141593
632,31372888.431009218
686,1.0
687,1.0
688,2.0
2,21, 1,21, 0, 9,40.00,50.00,Monday
250,2.199372958061847
251,36532989.314477846
336,0.0
385,17.450201916391894
386,24.018313819061397
387,0.13255621634581485
388,0.0
425,0.0
450,0.0
451,0.0
452,1.7251988895784969
453,0.0
490,0.0
515,0.0
516,0.0
542,0.0
592,5141654.529350725
632,31180227.077984117
686,1.0000000000000009
687,1.0000000000000009
688,2.0000000000000018
2,21, 1,21, 0, 9,50.00,60.00,Monday
250,2.4655214752177175
251,36392114.83362935
336,0.0
385,17.45020191639188
386,24.01831381906138
387,0.2847183018321537
388,0.0
425,0.0
450,0.0
451,0.0
452,2.265686260934536
453,0.0
490,0.0
515,0.0
516,0.0
542,0.0
592,5169915.672059795
632,31035699.372914195
686,1.0
687,1.0
688,2.0
2,21, 1,21, 0,10, 0.00,10.00,Monday
250,2.9292490704434586
251,36146061.64902442
336,0.0
385,17.45020191639188
386,24.01831381906138
387,0.47520403334374994
388,0.0
425,0.0
450,0.0
451,0.0
452,2.824969757979102
453,0.0
490,0.0
515,0.0
516,0.0
542,0.0
592,5241404.10703412
632,30729100.626029614
686,1.0
687,1.0
688,2.0
2,21, 1,21, 0,10,10.00,20.00,Monday
250,3.393755963041075
251,35900212.91530978
336,0.0
385,17.450201916391876
386,24.01831381906138
387,0.7662483113408654
388,0.0
425,0.0
450,0.0
451,0.0
452,3.579854821121833
453,0.0
490,0.0
515,0.0
516,0.0
542,0.0
592,5315291.857316207
632,30408441.057307914
686,1.0
687,1.0
688,2.0
2,21, 1,21, 0,10,20.00,30.00,Monday
250,3.8584729637932345
251,35652981.16123037
336,0.0
385,17.450201916391872
386,24.018313819061373
387,1.046620603184552
388,0.0
425,0.0
450,0.0
451,0.0
452,4.268749861605316
453,0.0
490,0.0
515,0.0
516,0.0
542,0.0
592,5391793.298050373
632,30084787.98105131
686,0.9999999999999996
687,0.9999999999999996
688,1.9999999999999991
2,21, 1,21, 0,10,30.00,40.00,Monday
250,4.3233180467970715
251,35405546.53120575
336,0.0
385,17.450201916391887
386,24.01831381906139
387,1.3283729562932451
388,0.0
425,0.0
450,0.0
451,0.0
452,4.970668193217251
453,0.0
490,0.0
515,0.0
516,0.0
542,0.0
592,5471132.199313744
632,29758082.050413072
686,1.0000000000000004
687,1.0000000000000004
688,2.000000000000001
2,21, 1,21, 0,10,40.00,50.00,Monday
250,4.788344358762906
251,35157873.44787687
336,0.0
385,17.450201916391894
386,24.018313819061397
387,1.618498471591662
388,0.0
425,0.0
450,0.0
451,0.0
452,5.734765784087871
453,0.0
490,0.0
515,0.0
516,0.0
542,0.0
592,5553542.375759332
632,29428078.19280754
686,1.0000000000000009
687,1.0000000000000009
688,2.0000000000000018
2,21, 1,21, 0,10,50.00,60.00,Monday
250,5.253380503695768
251,34910047.52155798
336,0.0
385,17.450201916391894
386,24.018313819061397
387,1.9187106007021155
388,0.0
425,0.0
450,0.0
451,0.0
452,6.563805379123418
453,0.0
490,0.0
515,0.0
516,0.0
542,0.0
592,5639267.778995938
632,29094577.705572464
686,1.0000000000000009
687,1.0000000000000009
688,2.0000000000000018
2,21, 1,21, 0,11, 0.00,10.00,Monday
250,5.536849906130856
251,34759205.083441794
336,0.0
385,17.45020191639188
386,24.01831381906138
387,2.2052088648990487
388,0.0
425,0.0
450,0.0
451,0.0
452,7.419016510150718
453,0.0
490,0.0
515,0.0
516,0.0
542,0.0
592,5689519.861596228
632,28861127.40527074
686,1.0
687,1.0
688,2.0
2,21, 1,21, 0,11,10.00,20.00,Monday
250,5.8197320092346505
251,34608621.66198863
336,0.0
385,17.450201916391876
386,24.01831381906138
387,2.4749718483190697
388,0.0
425,0.0
450,0.0
451,0.0
452,8.269528035245362
453,0.0
490,0.0
515,0.0
516,0.0
542,0.0
592,5740969.350869596
632,28659004.640007213
686,1.0
687,1.0
688,2.0
2,21, 1,21, 0,11,20.00,30.00,Monday
250,6.102662751565063
251,34457962.50246439
336,0.0
385,17.450201916391872
386,24.018313819061373
387,2.7471284419810376
388,0.0
425,0.0
450,0.0
451,0.0
452,9.11612300307209
453,0.0
490,0.0
515,0.0
516,0.0
542,0.0
592,5793671.0952822175
632,28455669.111911822
686,0.9999999999999996
687,0.9999999999999996
688,1.9999999999999991
2,21, 1,21, 0,11,30.00,40.00,Monday
250,6.385383665371929
251,34307363.61355981
336,0.0
385,17.450201916391887
386,24.01831381906139
387,3.0244607663383194
388,0.0
425,0.0
450,0.0
451,0.0
452,9.937938390107304
453,0.0
490,0.0
515,0.0
516,0.0
542,0.0
592,5847681.4279665835
632,28251039.621719554
686,1.0000000000000004
687,1.0000000000000004
688,2.000000000000001
2,21, 1,21, 0,11,40.00,50.00,Monday
250,6.668014188853296
251,34156759.49133746
336,0.0
385,17.450201916391894
386,24.018313819061397
387,3.30356732134231
388,0.0
425,0.0
450,0.0
451,0.0
452,10.683489937052004
453,0.0
490,0.0
515,0.0
516,0.0
542,0.0
592,5903058.082199926
632,28045060.541738138
686,1.0000000000000009
687,1.0000000000000009
688,2.0000000000000018
2,21, 1,21, 0,11,50.00,60.00,Monday
250,6.950522426022669
251,34006165.858213045
336,0.0
385,17.450201916391894
386,24.018313819061397
387,3.580595706584727
388,0.0
425,0.0
450,0.0
451,0.0
452,11.319313308346993
453,0.0
490,0.0
515,0.0
516,0.0
542,0.0
592,5959860.237244541
632,27837661.204966094
686,1.0000000000000009
687,1.0000000000000009
688,2.0000000000000018
2,21, 1,21, 0,12, 0.00,10.00,Monday
250,7.217195896722302
251,33864046.910513595
336,0.0
385,17.45020191639188
386,24.01831381906138
387,3.820601473373773
388,0.0
425,0.0
450,0.0
451,0.0
452,11.818422368256861
453,0.0
490,0.0
515,0.0
516,0.0
542,0.0
592,5991096.197635708
632,27686652.700997222
686,1.0
687,1.0
688,2.0
2,21, 1,21, 0,12,10.00,20.00,Monday
250,7.482613838439153
251,33726082.86437466
336,0.0
385,17.45020191639188
386,24.01831381906138
387,4.1129944339640145
388,0.0
425,0.0
450,0.0
451,0.0
452,12.382410316584384
453,0.0
490,0.0
515,0.0
516,0.0
542,0.0
592,7572016.881221028
632,25965943.692625046
686,1.0
687,1.0
688,2.0
2,21, 1,21, 0,12,20.00,30.00,Monday
250,7.748656497588358
251,33586061.24499296
336,0.0
385,17.45020191639188
386,24.01831381906138
387,4.382117652799386
388,0.0
425,0.0
450,0.0
451,0.0
452,12.897371647313275
453,0.0
490,0.0
515,0.0
516,0.0
542,0.0
592,7609409.155487608
632,25788690.776340395
686,1.0
687,1.0
688,2.0
2,21, 1,21, 0,12,30.00,40.00,Monday
250,8.014623574445618
251,33446081.605828844
336,0.0
385,17.45020191639188
386,24.01831381906138
387,4.640938164549407
388,0.0
425,0.0
450,0.0
451,0.0
452,13.389205729925635
453,0.0
490,0.0
515,0.0
516,0.0
542,0.0
592,7646583.592010486
632,25611516.217442594
686,1.0
687,1.0
688,2.0
2,21, 1,21, 0,12,40.00,50.00,Monday
250,8.28056351341218
251,33306116.299227532
336,0.0
385,17.45020191639188
386,24.01831381906138
387,4.895369510146747
388,0.0
425,0.0
450,0.0
451,0.0
452,13.831282568049485
453,0.0
490,0.0
515,0.0
516,0.0
542,0.0
592,7683540.190789656
632,25434587.173572794
686,1.0
687,1.0
688,2.0
2,21, 1,21, 0,12,50.00,60.00,Monday
250,8.546495168097525
251,33166154.677436188
336,0.0
385,17.45020191639188
386,24.01831381906138
387,5.144320182537475
388,0.0
425,0.0
450,0.0
451,0.0
452,14.199054659501414
453,0.0
490,0.0
515,0.0
516,0.0
542,0.0
592,7720278.951825122
632,25257885.037808456
686,1.0
687,1.0
688,2.0
2,21, 1,21, 0,13, 0.00,10.00,Monday
250,8.729487985108591
251,33067475.357099947
336,0.0
385,17.45020191639188
386,24.01831381906138
387,5.376712616892691
388,0.0
425,0.0
450,0.0
451,0.0
452,14.490285290439536
453,0.0
490,0.0
515,0.0
516,0.0
542,0.0
592,7745410.487127085
632,25160100.765178014
686,1.0
687,1.0
688,2.0
2,21, 1,21, 0,13,10.00,20.00,Monday
250,8.912120319927931
251,32972976.997237056
336,0.0
385,17.45020191639188
386,24.01831381906138
387,5.595507369266885
388,0.0
425,0.0
450,0.0
451,0.0
452,14.719543004459965
453,0.0
490,0.0
515,0.0
516,0.0
542,0.0
592,7770439.060057999
632,25042224.684941262
686,1.0
687,1.0
688,2.0
2,21, 1,21, 0,13,20.00,30.00,Monday
250,9.095229021703073
251,32878322.34432552
336,0.0
385,17.45020191639188
386,24.01831381906138
387,5.8004171808992275
388,0.0
425,0.0
450,0.0
451,0.0
452,14.902727374358712
453,0.0
490,0.0
515,0.0
516,0.0
542,0.0
592,7795364.67061786
632,24922914.115743276
686,1.0
687,1.0
688,2.0
2,21, 1,21, 0,13,30.00,40.00,Monday
250,9.278192826703409
251,32783775.83220392
336,0.0
385,17.45020191639188
386,24.01831381906138
387,5.9954618168501375
388,0.0
425,0.0
450,0.0
451,0.0
452,15.051595836593664
453,0.0
490,0.0
515,0.0
516,0.0
542,0.0
592,7820187.318806681
632,24803479.46051202
686,1.0
687,1.0
688,2.0
2,21, 1,21, 0,13,40.00,50.00,Monday
250,9.461162329324791
251,32689259.75147858
336,0.0
385,17.45020191639188
386,24.01831381906138
387,6.1843916495880915
388,0.0
425,0.0
450,0.0
451,0.0
452,15.170925535955583
453,0.0
490,0.0
515,0.0
516,0.0
542,0.0
592,7844907.00462445
632,24684259.6736513
686,1.0
687,1.0
688,2.0
2,21, 1,21, 0,13,50.00,60.00,Monday
250,9.644125685560248
251,32594780.152925212
336,0.0
385,17.45020191639188
386,24.01831381906138
387,6.368506652011266
388,0.0
425,0.0
450,0.0
451,0.0
452,15.26434821726185
453,0.0
490,0.0
515,0.0
516,0.0
542,0.0
592,7869523.72807117
632,24565173.114635218
686,1.0
687,1.0
688,2.0
2,21, 1,21, 0,14, 0.00,10.00,Monday
250,9.844050737219723
251,32491172.595410638
336,0.0
385,17.45020191639188
386,24.01831381906138
387,6.550645856710642
388,0.0
425,0.0
450,0.0
451,0.0
452,15.320461626320975
453,0.0
490,0.0
515,0.0
516,0.0
542,0.0
592,7896260.907308879
632,24444002.918589346
686,1.0
687,1.0
688,2.0
2,21, 1,21, 0,14,10.00,20.00,Monday
250,10.043625740195491
251,32387356.81183929
336,0.0
385,17.45020191639188
386,24.01831381906138
387,6.730941043835133
388,0.0
425,0.0
450,0.0
451,0.0
452,15.320945837958554
453,0.0
490,0.0
515,0.0
516,0.0
542,0.0
592,7922875.552815756
632,24313396.6635353
686,1.0
687,1.0
688,2.0
2,21, 1,21, 0,14,20.00,30.00,Monday
250,10.243091823033577
251,32283613.90262262
336,0.0
385,17.45020191639188
386,24.01831381906138
387,6.9072344285981035
388,0.0
425,0.0
450,0.0
451,0.0
452,15.26533314609109
453,0.0
490,0.0
515,0.0
516,0.0
542,0.0
592,7949367.664591796
632,24183116.174654923
686,1.0
687,1.0
688,2.0
2,21, 1,21, 0,14,30.00,40.00,Monday
250,10.442484698247018
251,32179935.369640205
336,0.0
385,17.45020191639188
386,24.01831381906138
387,7.073573684308602
388,0.0
425,0.0
450,0.0
451,0.0
452,15.143098088501763
453,0.0
490,0.0
515,0.0
516,0.0
542,0.0
592,7975737.242637001
632,24053042.049798023
686,1.0
687,1.0
688,2.0
2,21, 1,21, 0,14,40.00,50.00,Monday
250,10.641812472320606
251,32076314.00718639
336,0.0
385,17.45020191639188
386,24.01831381906138
387,7.226265106399002
388,0.0
425,0.0
450,0.0
451,0.0
452,14.934519354327607
453,0.0
490,0.0
515,0.0
516,0.0
542,0.0
592,8001984.286951372
632,23923152.16464121
686,1.0
687,1.0
688,2.0
2,21, 1,21, 0,14,50.00,60.00,Monday
250,10.841094293011702
251,31972739.960189063
336,0.0
385,17.45020191639188
386,24.01831381906138
387,7.3655989505994475
388,0.0
425,0.0
450,0.0
451,0.0
452,14.642634733628276
453,0.0
490,0.0
515,0.0
516,0.0
542,0.0
592,8028108.797534915
632,23793442.63621732
686,1.0
687,1.0
688,2.0
2,21, 1,21, 0,15, 0.00,10.00,Monday
250,11.106858125203836
251,31833984.14983446
336,0.0
385,17.45020191639188
386,24.01831381906138
387,7.4865775485176815
388,0.0
425,0.0
450,0.0
451,0.0
452,14.34732085940615
453,0.0
490,0.0
515,0.0
516,0.0
542,0.0
592,8062750.870287225
632,23584894.076093547
686,1.0
687,1.0
688,2.0