Program Version,EnergyPlus, Version 24.2.0-94a887817b, YMD=2025.02.04 15:41
1,5,Environment Title[],Latitude[deg],Longitude[deg],Time Zone[],Elevation[m]
2,8,Day of Simulation[],Month[],Day of Month[],DST Indicator[1=yes 0=no],Hour[],StartMinute[],EndMinute[],DayType
3,5,Cumulative Day of Simulation[],Month[],Day of Month[],DST Indicator[1=yes 0=no],DayType  ! When Daily Report Variables Requested
4,2,Cumulative Days of Simulation[],Month[]  ! When Monthly Report Variables Requested
5,1,Cumulative Days of Simulation[] ! When Run Period Report Variables Requested
6,1,Calendar Year of Simulation[] ! When Annual Report Variables Requested
250,1,LIVING ZONE,Zone Air Temperature [C] !TimeStep,REPORTSCH
251,1,LIVING ZONE,Zone Air System Sensible Heating Energy [J] !TimeStep,REPORTSCH
336,1,LIVING ZONE,Zone Air System Sensible Cooling Energy [J] !TimeStep,REPORTSCH
385,1,LIVING ZONE,Zone Thermostat Heating Setpoint Temperature [C] !TimeStep,REPORTSCH
386,1,LIVING ZONE,Zone Thermostat Cooling Setpoint Temperature [C] !TimeStep,REPORTSCH
387,1,GARAGE ZONE,Zone Air Temperature [C] !TimeStep,REPORTSCH
388,1,GARAGE ZONE,Zone Air System Sensible Heating Energy [J] !TimeStep,REPORTSCH
425,1,GARAGE ZONE,Zone Air System Sensible Cooling Energy [J] !TimeStep,REPORTSCH
450,1,GARAGE ZONE,Zone Thermostat Heating Setpoint Temperature [C] !TimeStep,REPORTSCH
451,1,GARAGE ZONE,Zone Thermostat Cooling Setpoint Temperature [C] !TimeStep,REPORTSCH
452,1,ATTIC ZONE,Zone Air Temperature [C] !TimeStep,REPORTSCH
453,1,ATTIC ZONE,Zone Air System Sensible Heating Energy [J] !TimeStep,REPORTSCH
490,1,ATTIC ZONE,Zone Air System Sensible Cooling Energy [J] !TimeStep,REPORTSCH
515,1,ATTIC ZONE,Zone Thermostat Heating Setpoint Temperature [C] !TimeStep,REPORTSCH
516,1,ATTIC ZONE,Zone Thermostat Cooling Setpoint Temperature [C] !TimeStep,REPORTSCH
542,1,ACDXCOIL 1,Cooling Coil Total Cooling Energy [J] !TimeStep,REPORTSCH
592,1,HEAT PUMP DX HEATING COIL 1,Heating Coil Heating Energy [J] !TimeStep,REPORTSCH
632,1,SUPP HEATING COIL 1,Heating Coil Heating Energy [J] !TimeStep,REPORTSCH
686,1,TWOSPEED HEAT PUMP 1,Unitary System DX Coil Cycling Ratio [] !TimeStep,REPORTSCH
687,1,TWOSPEED HEAT PUMP 1,Unitary System DX Coil Speed Ratio [] !TimeStep,REPORTSCH
688,1,TWOSPEED HEAT PUMP 1,Unitary System DX Coil Speed Level [] !TimeStep,REPORTSCH
End of Data Dictionary
1,RUN PERIOD 1,  41.98, -87.92,  -6.00, 201.00
2,21, 1,21, 0, 1, 0.00,10.00,Monday
250,-0.8998061837088134
251,38098242.381302044
336,0.0
385,20.152402741066393
386,24.15748155251922
387,-0.9490632043529654
388,0.0
425,0.0
450,0.0
451,0.0
452,-1.976568893209834
453,0.0
490,0.0
515,0.0
516,0.0
542,0.0
592,4839743.985079641
632,33000000.0
686,1.0
687,1.0
688,2.0
2,21, 1,21, 0, 1,10.00,20.00,Monday
250,-0.8999236740934549
251,38082756.35123121
336,0.0
385,20.152402741066393
386,24.15748155251922
387,-0.9574199521752693
388,0.0
425,0.0
450,0.0
451,0.0
452,-1.9584162087316384
453,0.0
490,0.0
515,0.0
516,0.0
542,0.0
592,4823801.676011795
632,33000000.0
686,1.0
687,1.0
688,2.0
2,21, 1,21, 0, 1,20.00,30.00,Monday
250,-0.900066912099502
251,38066826.70177316
336,0.0
385,20.152402741066393
386,24.15748155251922
387,-0.9670135564674032
388,0.0
425,0.0
450,0.0
451,0.0
452,-1.9553389227926958
453,0.0
490,0.0
515,0.0
516,0.0
542,0.0
592,4807858.16290522
632,33000000.0
686,1.0
687,1.0
688,2.0
2,21, 1,21, 0, 1,30.00,40.00,Monday
250,-0.900207677393101
251,38050880.656626575
336,0.0
385,20.152402741066393
386,24.15748155251922
387,-0.9780487245756256
388,0.0
425,0.0
450,0.0
451,0.0
452,-1.9682172541018719
453,0.0
490,0.0
515,0.0
516,0.0
542,0.0
592,4791913.445623511
632,33000000.0
686,1.0
687,1.0
688,2.0
2,21, 1,21, 0, 1,40.00,50.00,Monday
250,-0.9003495974463447
251,38034935.36002739
336,0.0
385,20.152402741066393
386,24.15748155251922
387,-0.9906826820336045
388,0.0
425,0.0
450,0.0
451,0.0
452,-1.995429217072426
453,0.0
490,0.0
515,0.0
516,0.0
542,0.0
592,4775967.524030239
632,33000000.0
686,1.0
687,1.0
688,2.0
2,21, 1,21, 0, 1,50.00,60.00,Monday
250,-0.9004919871437198
251,38018988.49016361
336,0.0
385,20.152402741066393
386,24.15748155251922
387,-1.0051041669687872
388,0.0
425,0.0
450,0.0
451,0.0
452,-2.0354465668135724
453,0.0
490,0.0
515,0.0
516,0.0
542,0.0
592,4760020.397988958
632,33000000.0
686,1.0
687,1.0
688,2.0
2,21, 1,21, 0, 2, 0.00,10.00,Monday
250,-0.9005505510295528
251,38018943.359132975
336,0.0
385,20.152402741066393
386,24.15748155251922
387,-1.0206298216477252
388,0.0
425,0.0
450,0.0
451,0.0
452,-2.082222339324362
453,0.0
490,0.0
515,0.0
516,0.0
542,0.0
592,4760020.397988958
632,33000000.0
686,1.0
687,1.0
688,2.0
2,21, 1,21, 0, 2,10.00,20.00,Monday
250,-0.9006074326891637
251,38018942.45338213
336,0.0
385,20.152402741066393
386,24.15748155251922
387,-1.0363156787688184
388,0.0
425,0.0
450,0.0
451,0.0
452,-2.1249628227805584
453,0.0
490,0.0
515,0.0
516,0.0
542,0.0
592,4760020.397988958
632,33000000.0
686,1.0
687,1.0
688,2.0
2,21, 1,21, 0, 2,20.00,30.00,Monday
250,-0.9006640588270485
251,38018942.31579703
336,0.0
385,20.152402741066393
386,24.15748155251922
387,-1.051607516409893
388,0.0
425,0.0
450,0.0
451,0.0
452,-2.156437388867883
453,0.0
490,0.0
515,0.0
516,0.0
542,0.0
592,4760020.397988958
632,33000000.0
686,1.0
687,1.0
688,2.0
2,21, 1,21, 0, 2,30.00,40.00,Monday
250,-0.9007196130909422
251,38018941.73866861
336,0.0
385,20.152402741066393
386,24.15748155251922
387,-1.066183875403006
388,0.0
425,0.0
450,0.0
451,0.0
452,-2.1758215077991534
453,0.0
490,0.0
515,0.0
516,0.0
542,0.0
592,4760020.397988958
632,33000000.0
686,1.0
687,1.0
688,2.0
2,21, 1,21, 0, 2,40.00,50.00,Monday
250,-0.9007743428922199
251,38018941.29475286
336,0.0
385,20.152402741066393
386,24.15748155251922
387,-1.0799043910266495
388,0.0
425,0.0
450,0.0
451,0.0
452,-2.1859618007175254
453,0.0
490,0.0
515,0.0
516,0.0
542,0.0
592,4760020.397988958
632,33000000.0
686,1.0
687,1.0
688,2.0
2,21, 1,21, 0, 2,50.00,60.00,Monday
250,-0.9008281033904503
251,38018940.77285056
336,0.0
385,20.152402741066393
386,24.15748155251922
387,-1.0927317862872268
388,0.0
425,0.0
450,0.0
451,0.0
452,-2.190007185481708
453,0.0
490,0.0
515,0.0
516,0.0
542,0.0
592,4760020.397988958
632,33000000.0
686,1.0
687,1.0
688,2.0
2,21, 1,21, 0, 3, 0.00,10.00,Monday
250,-0.8182595062012629
251,37976992.874333516
336,0.0
385,20.152402741066393
386,24.15748155251922
387,-1.0942752257501358
388,0.0
425,0.0
450,0.0
451,0.0
452,-2.1825234301172527
453,0.0
490,0.0
515,0.0
516,0.0
542,0.0
592,4762558.894114006
632,33000000.0
686,1.0
687,1.0
688,2.0
2,21, 1,21, 0, 3,10.00,20.00,Monday
250,-0.734753508706637
251,37978915.8528764
336,0.0
385,20.152402741066393
386,24.15748155251922
387,-1.083218447172906
388,0.0
425,0.0
450,0.0
451,0.0
452,-2.157534852345448
453,0.0
490,0.0
515,0.0
516,0.0
542,0.0
592,4764988.4357309695
632,33000000.0
686,1.0
687,1.0
688,2.0
2,21, 1,21, 0, 3,20.00,30.00,Monday
250,-0.6515799037377717
251,37981412.781448066
336,0.0
385,20.152402741066393
386,24.15748155251922
387,-1.0639666863476878
388,0.0
425,0.0
450,0.0
451,0.0
452,-2.113594839227072
453,0.0
490,0.0
515,0.0
516,0.0
542,0.0
592,4767308.250738333
632,33000000.0
686,1.0
687,1.0
688,2.0
2,21, 1,21, 0, 3,30.00,40.00,Monday
250,-0.5683210399996975
251,37983574.44014333
336,0.0
385,20.152402741066393
386,24.15748155251922
387,-1.0403136241788555
388,0.0
425,0.0
450,0.0
451,0.0
452,-2.0538378324165047
453,0.0
490,0.0
515,0.0
516,0.0
542,0.0
592,4769517.689516207
632,33000000.0
686,1.0
687,1.0
688,2.0
2,21, 1,21, 0, 3,40.00,50.00,Monday
250,-0.48519005864221826
251,37957683.63243739
336,0.0
385,20.152402741066393
386,24.15748155251922
387,-1.013560396546383
388,0.0
425,0.0
450,0.0
451,0.0
452,-1.9827491003163502
453,0.0
490,0.0
515,0.0
516,0.0
542,0.0
592,4771616.115684973
632,32971943.783178985
686,1.0
687,1.0
688,2.0
2,21, 1,21, 0, 3,50.00,60.00,Monday
250,-0.40213739276280247
251,37914561.94018409
336,0.0
385,20.152402741066393
386,24.15748155251922
387,-0.9834171260583998
388,0.0
425,0.0
450,0.0
451,0.0
452,-1.9039464566897504
453,0.0
490,0.0
515,0.0
516,0.0
542,0.0
592,4773602.736238396
632,32926795.187941514
686,1.0
687,1.0
688,2.0
2,21, 1,21, 0, 4, 0.00,10.00,Monday
250,-0.40168007372282655
251,37915929.98445767
336,0.0
385,20.152402741066393
386,24.15748155251922
387,-0.9606854092279519
388,0.0
425,0.0
450,0.0
451,0.0
452,-1.8277192273337426
453,0.0
490,0.0
515,0.0
516,0.0
542,0.0
592,4773428.982371633
632,32883855.86986269
686,1.0
687,1.0
688,2.0
2,21, 1,21, 0, 4,10.00,20.00,Monday
250,-0.40193327873982654
251,37916117.825738035
336,0.0
385,20.152402741066393
386,24.15748155251922
387,-0.948136872157886
388,0.0
425,0.0
450,0.0
451,0.0
452,-1.7631086561551075
453,0.0
490,0.0
515,0.0
516,0.0
542,0.0
592,4773255.169447958
632,32883834.85999675
686,1.0
687,1.0
688,2.0
2,21, 1,21, 0, 4,20.00,30.00,Monday
250,-0.40183638079902484
251,37916099.06334616
336,0.0
385,20.152402741066393
386,24.15748155251922
387,-0.942192552812319
388,0.0
425,0.0
450,0.0
451,0.0
452,-1.7137181551724805
453,0.0
490,0.0
515,0.0
516,0.0
542,0.0
592,4773081.297437259
632,32884178.523361463
686,1.0
687,1.0
688,2.0
2,21, 1,21, 0, 4,30.00,40.00,Monday
250,-0.40181531378515434
251,37916127.82680699
336,0.0
385,20.152402741066393
386,24.15748155251922
387,-0.9389597703962005
388,0.0
425,0.0
450,0.0
451,0.0
452,-1.6778859260173182
453,0.0
490,0.0
515,0.0
516,0.0
542,0.0
592,4772907.3663094025
632,32884340.377934594
686,1.0
687,1.0
688,2.0
2,21, 1,21, 0, 4,40.00,50.00,Monday
250,-0.4017978958279563
251,37916157.198151305
336,0.0
385,20.152402741066393
386,24.15748155251922
387,-0.9366628900124729
388,0.0
425,0.0
450,0.0
451,0.0
452,-1.6519404796875594
453,0.0
490,0.0
515,0.0
516,0.0
542,0.0
592,4772733.376034233
632,32884541.774300437
686,1.0
687,1.0
688,2.0
2,21, 1,21, 0, 4,50.00,60.00,Monday
250,-0.40178033206486674
251,37916186.44128076
336,0.0
385,20.152402741066393
386,24.15748155251922
387,-0.935138290256931
388,0.0
425,0.0
450,0.0
451,0.0
452,-1.6328245629862612
453,0.0
490,0.0
515,0.0
516,0.0
542,0.0
592,4772559.326581575
632,32884745.1454186
686,1.0
687,1.0
688,2.0
2,21, 1,21, 0, 5, 0.00,10.00,Monday
250,-0.40176385534488945
251,37916216.294788264
336,0.0
385,20.152402741066393
386,24.15748155251922
387,-0.9344487071880787
388,0.0
425,0.0
450,0.0
451,0.0
452,-1.6179231492329724
453,0.0
490,0.0
515,0.0
516,0.0
542,0.0
592,4759720.85868958
632,32897612.881379902
686,1.0
687,1.0
688,2.0
2,21, 1,21, 0, 5,10.00,20.00,Monday
250,-0.401741076741596
251,37917522.48836757
336,0.0
385,20.152402741066393
386,24.15748155251922
387,-0.9344587461711641
388,0.0
425,0.0
450,0.0
451,0.0
452,-1.6049252043453728
453,0.0
490,0.0
515,0.0
516,0.0
542,0.0
592,4746877.262331866
632,32911766.065743286
686,1.0
687,1.0
688,2.0
2,21, 1,21, 0, 5,20.00,30.00,Monday
250,-0.40171831673509506
251,37918843.980896935
336,0.0
385,20.152402741066393
386,24.15748155251922
387,-0.9349372634514413
388,0.0
425,0.0
450,0.0
451,0.0
452,-1.5924292958389838
453,0.0
490,0.0
515,0.0
516,0.0
542,0.0
592,4734028.534436013
632,32925936.276583683
686,1.0
687,1.0
688,2.0
2,21, 1,21, 0, 5,30.00,40.00,Monday
250,-0.40169567895064845
251,37920160.6141698
336,0.0
385,20.152402741066393
386,24.15748155251922
387,-0.9356795463543351
388,0.0
425,0.0
450,0.0
451,0.0
452,-1.5800028621455071
453,0.0
490,0.0
515,0.0
516,0.0
542,0.0
592,4721174.671927155
632,32940106.706963066
686,1.0
687,1.0
688,2.0
2,21, 1,21, 0, 5,40.00,50.00,Monday
250,-0.4016730180041678
251,37921478.88625521
336,0.0
385,20.152402741066393
386,24.15748155251922
387,-0.936549467249061
388,0.0
425,0.0
450,0.0
451,0.0
452,-1.567715467193729
453,0.0
490,0.0
515,0.0
516,0.0
542,0.0
592,4708315.671727969
632,32954283.99215159
686,1.0
687,1.0
688,2.0
2,21, 1,21, 0, 5,50.00,60.00,Monday
250,-0.4016502778882145
251,37922797.69670746
336,0.0
385,20.152402741066393
386,24.15748155251922
387,-0.9374680824707301
388,0.0
425,0.0
450,0.0
451,0.0
452,-1.5557184286653993
453,0.0
490,0.0
515,0.0
516,0.0
542,0.0
592,4695451.530758674
632,32968466.98664727
686,1.0
687,1.0
688,2.0
2,21, 1,21, 0, 6, 0.00,10.00,Monday
250,-0.40162652225064216
251,37924116.48042881
336,0.0
385,20.152402741066393
386,24.15748155251922
387,-0.9385224113820909
388,0.0
425,0.0
450,0.0
451,0.0
452,-1.5447094941283526
453,0.0
490,0.0
515,0.0
516,0.0
542,0.0
592,4695264.08225586
632,32969973.76634516
686,1.0
687,1.0
688,2.0
2,21, 1,21, 0, 6,10.00,20.00,Monday
250,-0.40160929080555097
251,37924157.82834911
336,0.0
385,20.152402741066393
386,24.15748155251922
387,-0.9397957997619968
388,0.0
425,0.0
450,0.0
451,0.0
452,-1.535503220518237
453,0.0
490,0.0
515,0.0
516,0.0
542,0.0
592,4695076.569900009
632,32970199.112166103
686,1.0
687,1.0
688,2.0
2,21, 1,21, 0, 6,20.00,30.00,Monday
250,-0.4015920920392061
251,37924184.42301954
336,0.0
385,20.152402741066393
386,24.15748155251922
387,-0.9412821396059096
388,0.0
425,0.0
450,0.0
451,0.0
452,-1.5284237325660006
453,0.0
490,0.0
515,0.0
516,0.0
542,0.0
592,4694888.993658494
632,32970413.265483323
686,1.0
687,1.0
688,2.0
2,21, 1,21, 0, 6,30.00,40.00,Monday
250,-0.40157464481256133
251,37924216.35881654
336,0.0
385,20.152402741066393
386,24.15748155251922
387,-0.9429390288532613
388,0.0
425,0.0
450,0.0
451,0.0
452,-1.523260961880642
453,0.0
490,0.0
515,0.0
516,0.0
542,0.0
592,4694701.353498662
632,32970632.975291885
686,1.0
687,1.0
688,2.0
2,21, 1,21, 0, 6,40.00,50.00,Monday
250,-0.40155698800860357
251,37924247.071935974
336,0.0
385,20.152402741066393
386,24.15748155251922
387,-0.9447343676172316
388,0.0
425,0.0
450,0.0
451,0.0
452,-1.5195666194491577
453,0.0
490,0.0
515,0.0
516,0.0
542,0.0
592,4694513.649387832
632,32970851.505428225
686,1.0
687,1.0
688,2.0
2,21, 1,21, 0, 6,50.00,60.00,Monday
250,-0.40153909110374764
251,37924277.61793308
336,0.0
385,20.152402741066393
386,24.15748155251922
387,-0.9466509435871003
388,0.0
425,0.0
450,0.0
451,0.0
452,-1.5169220317669683
453,0.0
490,0.0
515,0.0
516,0.0
542,0.0
592,4694325.88129331
632,32971069.94886877
686,1.0
687,1.0
688,2.0
2,21, 1,21, 0, 7, 0.00,10.00,Monday
250,-0.40199347183905026
251,37924562.59656835
336,0.0
385,20.152402741066393
386,24.15748155251922
387,-0.9511090553158352
388,0.0
425,0.0
450,0.0
451,0.0
452,-1.5201956471985087
453,0.0
490,0.0
515,0.0
516,0.0
542,0.0
592,4723573.583255434
632,32941852.816237234
686,1.0
687,1.0
688,2.0
2,21, 1,21, 0, 7,10.00,20.00,Monday
250,-0.4019754639362168
251,37921639.60094564
336,0.0
385,20.152402741066393
386,24.15748155251922
387,-0.9602811366313722
388,0.0
425,0.0
450,0.0
451,0.0
452,-1.5388635817470178
453,0.0
490,0.0
515,0.0
516,0.0
542,0.0
592,4752837.186047653
632,32909920.686185077
686,1.0
687,1.0
688,2.0
2,21, 1,21, 0, 7,20.00,30.00,Monday
250,-0.40194806829360163
251,37918675.896528736
336,0.0
385,20.152402741066393
386,24.15748155251922
387,-0.9744087102720804
388,0.0
425,0.0
450,0.0
451,0.0
452,-1.5782932710630928
453,0.0
490,0.0
515,0.0
516,0.0
542,0.0
592,4782116.702651945
632,32877682.52067111
686,1.0
687,1.0
688,2.0
2,21, 1,21, 0, 7,30.00,40.00,Monday
250,-0.4019224854315997
251,37915724.16303398
336,0.0
385,20.152402741066393
386,24.15748155251922
387,-0.9925379755389895
388,0.0
425,0.0
450,0.0
451,0.0
452,-1.6360949404233063
453,0.0
490,0.0
515,0.0
516,0.0
542,0.0
592,4811412.146064443
632,32845434.366327807
686,1.0
687,1.0
688,2.0
2,21, 1,21, 0, 7,40.00,50.00,Monday
250,-0.40189609763729905
251,37912767.81567613
336,0.0
385,20.152402741066393
386,24.15748155251922
387,-1.0135909355030033
388,0.0
425,0.0
450,0.0
451,0.0
452,-1.7060136742336784
453,0.0
490,0.0
515,0.0
516,0.0
542,0.0
592,4840723.5292954575
632,32813167.06814126
686,1.0
687,1.0
688,2.0
2,21, 1,21, 0, 7,50.00,60.00,Monday
250,-0.40186940165917057
251,37909809.59092145
336,0.0
385,20.152402741066393
386,24.15748155251922
387,-1.0368209935548323
388,0.0
425,0.0
450,0.0
451,0.0
452,-1.7823593511269495
453,0.0
490,0.0
515,0.0
516,0.0
542,0.0
592,4870050.865369484
632,32780881.67215915
686,1.0
687,1.0
688,2.0
2,21, 1,21, 0, 8, 0.00,10.00,Monday
250,-0.20167875890452272
251,37799074.42397695
336,0.0
385,20.152402741066393
386,24.15748155251922
387,-1.0329471139091924
388,0.0
425,0.0
450,0.0
451,0.0
452,-1.8413039124604302
453,0.0
490,0.0
515,0.0
516,0.0
542,0.0
592,4889730.300311495
632,32758242.43941701
686,1.0
687,1.0
688,2.0
2,21, 1,21, 0, 8,10.00,20.00,Monday
250,-0.0014264730345982521
251,37693584.72807727
336,0.0
385,20.152402741066393
386,24.15748155251922
387,-0.9914588292435107
388,0.0
425,0.0
450,0.0
451,0.0
452,-1.8324285679067847
453,0.0
490,0.0
515,0.0
516,0.0
542,0.0
592,4909380.719869504
632,32633142.189470608
686,1.0
687,1.0
688,2.0
2,21, 1,21, 0, 8,20.00,30.00,Monday
250,0.19788366778070646
251,37588662.25334012
336,0.0
385,20.152402741066393
386,24.15748155251922
387,-0.9204766721354031
388,0.0
425,0.0
450,0.0
451,0.0
452,-1.7249681410250988
453,0.0
490,0.0
515,0.0
516,0.0
542,0.0
592,4929009.6156952735
632,32508090.355529595
686,1.0
687,1.0
688,2.0
2,21, 1,21, 0, 8,30.00,40.00,Monday
250,0.39743879737418036
251,37483584.35096405
336,0.0
385,20.152402741066393
386,24.15748155251922
387,-0.8302586823364088
388,0.0
425,0.0
450,0.0
451,0.0
452,-1.5292768356305384
453,0.0
490,0.0
515,0.0
516,0.0
542,0.0
592,4952863.6467726575
632,32379297.182023704
686,1.0
687,1.0
688,2.0
2,21, 1,21, 0, 8,40.00,50.00,Monday
250,0.5970505909907748
251,37378065.25952472
336,0.0
385,20.152402741066393
386,24.15748155251922
387,-0.72874221916816
388,0.0
425,0.0
450,0.0
451,0.0
452,-1.253881697127114
453,0.0
490,0.0
515,0.0
516,0.0
542,0.0
592,4977062.298687916
632,32249615.64717556
686,1.0
687,1.0
688,2.0
2,21, 1,21, 0, 8,50.00,60.00,Monday
250,0.7970360806029739
251,37273283.67367756
336,0.0
385,20.152402741066393
386,24.15748155251922
387,-0.6329101846554384
388,0.0
425,0.0
450,0.0
451,0.0
452,-0.9410300666760358
453,0.0
490,0.0
515,0.0
516,0.0
542,0.0
592,5001395.306277513
632,32067229.913946472
686,1.0
687,1.0
688,2.0
2,21, 1,21, 0, 9, 0.00,10.00,Monday
250,1.063128184372339
251,37133946.07480749
336,0.0
385,20.152402741066393
386,24.15748155251922
387,-0.49457840772861095
388,0.0
425,0.0
450,0.0
451,0.0
452,-0.46169711669370384
453,0.0
490,0.0
515,0.0
516,0.0
542,0.0
592,5029363.153609448
632,31916514.321640972
686,1.0
687,1.0
688,2.0
2,21, 1,21, 0, 9,10.00,20.00,Monday
250,1.329151344365285
251,36993682.2853284
336,0.0
385,20.152402741066393
386,24.15748155251922
387,-0.3438500818177672
388,0.0
425,0.0
450,0.0
451,0.0
452,0.06252592420032382
453,0.0
490,0.0
515,0.0
516,0.0
542,0.0
592,5057356.862312016
632,31748245.29172864
686,1.0
687,1.0
688,2.0
2,21, 1,21, 0, 9,20.00,30.00,Monday
250,1.5952490837327435
251,36853374.67825326
336,0.0
385,20.152402741066393
386,24.15748155251922
387,-0.18394470661827417
388,0.0
425,0.0
450,0.0
451,0.0
452,0.6272345637145943
453,0.0
490,0.0
515,0.0
516,0.0
542,0.0
592,5085392.284952975
632,31579923.197062254
686,1.0
687,1.0
688,2.0
2,21, 1,21, 0, 9,30.00,40.00,Monday
250,1.8613105230150464
251,36713084.351479545
336,0.0
385,20.152402741066393
386,24.15748155251922
387,-0.014169086394228224
388,0.0
425,0.0
450,0.0
451,0.0
452,1.221868909744202
453,0.0
490,0.0
515,0.0
516,0.0
542,0.0
592,5113485.892141593
632,31411530.808061153
686,1.0
687,1.0
688,2.0
2,21, 1,21, 0, 9,40.00,50.00,Monday
250,2.1275100059032312
251,36571715.923729226
336,0.0
385,20.15240274106641
386,24.157481552519236
387,0.13103662837365482
388,0.0
425,0.0
450,0.0
451,0.0
452,1.723513535699333
453,0.0
490,0.0
515,0.0
516,0.0
542,0.0
592,5141654.529350725
632,31218976.18290922
686,1.0000000000000009
687,1.0000000000000009
688,2.0000000000000018
2,21, 1,21, 0, 9,50.00,60.00,Monday
250,2.393814645441754
251,36430763.41335662
336,0.0
385,20.152402741066393
386,24.15748155251922
387,0.28320674622820574
388,0.0
425,0.0
450,0.0
451,0.0
452,2.2639622289241013
453,0.0
490,0.0
515,0.0
516,0.0
542,0.0
592,5169915.672059795
632,31074207.773705754
686,1.0
687,1.0
688,2.0
2,21, 1,21, 0,10, 0.00,10.00,Monday
250,2.8583340239058685
251,36184284.07741386
336,0.0
385,20.152402741066393
386,24.157481552519215
387,0.4737041432204689
388,0.0
425,0.0
450,0.0
451,0.0
452,2.8231998584486755
453,0.0
490,0.0
515,0.0
516,0.0
542,0.0
592,5241404.10703412
632,30767443.57483652
686,1.0
687,1.0
688,2.0
2,21, 1,21, 0,10,10.00,20.00,Monday
250,3.3234389563028475
251,35938119.60297841
336,0.0
385,20.152402741066393
386,24.157481552519215
387,0.7647495862572025
388,0.0
425,0.0
450,0.0
451,0.0
452,3.578078415491002
453,0.0
490,0.0
515,0.0
516,0.0
542,0.0
592,5315291.857316207
632,30446417.33582422
686,1.0
687,1.0
688,2.0
2,21, 1,21, 0,10,20.00,30.00,Monday
250,3.788689063470609
251,35690603.770902865
336,0.0
385,20.152402741066386
386,24.157481552519208
387,1.045114925062286
388,0.0
425,0.0
450,0.0
451,0.0
452,4.266914815792239
453,0.0
490,0.0
515,0.0
516,0.0
542,0.0
592,5391793.298050372
632,30122468.522569638
686,0.9999999999999996
687,0.9999999999999996
688,1.9999999999999991
2,21, 1,21, 0,10,30.00,40.00,Monday
250,4.25403066207809
251,35442904.55210869
336,0.0
385,20.152402741066403
386,24.15748155251923
387,1.3268617027982794
388,0.0
425,0.0
450,0.0
451,0.0
452,4.968911326722993
453,0.0
490,0.0
515,0.0
516,0.0
542,0.0
592,5471132.199313744
632,29795491.514234547
686,1.0000000000000004
687,1.0000000000000004
688,2.000000000000001
2,21, 1,21, 0,10,40.00,50.00,Monday
250,4.719503931280479
251,35194993.43281554
336,0.0
385,20.15240274106641
386,24.157481552519236
387,1.6169825269300904
388,0.0
425,0.0
450,0.0
451,0.0
452,5.733033348423602
453,0.0
490,0.0
515,0.0
516,0.0
542,0.0
592,5553542.375759331
632,29465240.786925115
686,1.0000000000000009
687,1.0000000000000009
688,2.0000000000000018
2,21, 1,21, 0,10,50.00,60.00,Monday
250,5.184984065147642
251,34946930.90005119
336,0.0
385,20.15240274106641
386,24.157481552519236
387,1.917190219339401
388,0.0
425,0.0
450,0.0
451,0.0
452,6.562058604532217
453,0.0
490,0.0
515,0.0
516,0.0
542,0.0
592,5639267.778995938
632,29131503.245685905
686,1.0000000000000009
687,1.0000000000000009
688,2.0000000000000018
2,21, 1,21, 0,11, 0.00,10.00,Monday
250,5.468420181241
251,34796106.518758945
336,0.0
385,20.152402741066393
386,24.157481552519215
387,2.2036844020755106
388,0.0
425,0.0
450,0.0
451,0.0
452,7.4172657346230695
453,0.0
490,0.0
515,0.0
516,0.0
542,0.0
592,5689519.861596227
632,28897998.74645648
686,1.0
687,1.0
688,2.0
2,21, 1,21, 0,11,10.00,20.00,Monday
250,5.751420624527378
251,34645461.54599434
336,0.0
385,20.152402741066393
386,24.157481552519215
387,2.473445359831747
388,0.0
425,0.0
450,0.0
451,0.0
452,8.26776973178686
453,0.0
490,0.0
515,0.0
516,0.0
542,0.0
592,5740969.350869596
632,28695842.64274251
686,1.0
687,1.0
688,2.0
2,21, 1,21, 0,11,20.00,30.00,Monday
250,6.034459766557502
251,34494745.75568738
336,0.0
385,20.152402741066386
386,24.157481552519208
387,2.7456015393566595
388,0.0
425,0.0
450,0.0
451,0.0
452,9.114355435487353
453,0.0
490,0.0
515,0.0
516,0.0
542,0.0
592,5793671.095282218
632,28492448.813463368
686,0.9999999999999996
687,0.9999999999999996
688,1.9999999999999991
2,21, 1,21, 0,11,30.00,40.00,Monday
250,6.317346277773088
251,34344059.4386731
336,0.0
385,20.152402741066403
386,24.15748155251923
387,3.022933982620613
388,0.0
425,0.0
450,0.0
451,0.0
452,9.936141723369555
453,0.0
490,0.0
515,0.0
516,0.0
542,0.0
592,5847681.427966583
632,28287742.21478703
686,1.0000000000000004
687,1.0000000000000004
688,2.000000000000001
2,21, 1,21, 0,11,40.00,50.00,Monday
250,6.600167395576614
251,34193354.35329002
336,0.0
385,20.15240274106641
386,24.157481552519236
387,3.3020412802743175
388,0.0
425,0.0
450,0.0
451,0.0
452,10.681691815075315
453,0.0
490,0.0
515,0.0
516,0.0
542,0.0
592,5903058.082199926
632,28081666.699926488
686,1.0000000000000009
687,1.0000000000000009
688,2.0000000000000018
2,21, 1,21, 0,11,50.00,60.00,Monday
250,6.882899946262148
251,34042641.51275642
336,0.0
385,20.15240274106641
386,24.157481552519236
387,3.5790712682935313
388,0.0
425,0.0
450,0.0
451,0.0
452,11.317542769628783
453,0.0
490,0.0
515,0.0
516,0.0
542,0.0
592,5959860.237244541
632,27874154.25591201
686,1.0000000000000009
687,1.0000000000000009
688,2.0000000000000018
2,21, 1,21, 0,12, 0.00,10.00,Monday
250,7.149578498410171
251,33900527.351194635
336,0.0
385,20.152402741066393
386,24.15748155251922
387,3.8190817371509933
388,0.0
425,0.0
450,0.0
451,0.0
452,11.816639266608806
453,0.0
490,0.0
515,0.0
516,0.0
542,0.0
592,5991096.197635708
632,27722954.088608168
686,1.0
687,1.0
688,2.0
2,21, 1,21, 0,12,10.00,20.00,Monday
250,7.41533172493004
251,33762391.863107026
336,0.0
385,20.152402741066393
386,24.15748155251922
387,4.111477465394548
388,0.0
425,0.0
450,0.0
451,0.0
452,12.380627950989679
453,0.0
490,0.0
515,0.0
516,0.0
542,0.0
592,7572016.881221028
632,26002098.541022148
686,1.0
687,1.0
688,2.0
2,21, 1,21, 0,12,20.00,30.00,Monday
250,7.6815412521724244
251,33622284.27458128
336,0.0
385,20.152402741066393
386,24.15748155251922
387,4.380602438494543
388,0.0
425,0.0
450,0.0
451,0.0
452,12.895542342398457
453,0.0
490,0.0
515,0.0
516,0.0
542,0.0
592,7609409.155487606
632,25824717.084288184
686,1.0
687,1.0
688,2.0
2,21, 1,21, 0,12,30.00,40.00,Monday
250,7.947698586285892
251,33482205.80160867
336,0.0
385,20.152402741066393
386,24.15748155251922
387,4.639425448475308
388,0.0
425,0.0
450,0.0
451,0.0
452,13.387416911732313
453,0.0
490,0.0
515,0.0
516,0.0
542,0.0
592,7646583.592010483
632,25647450.007058598
686,1.0
687,1.0
688,2.0
2,21, 1,21, 0,12,40.00,50.00,Monday
250,8.213836321988214
251,33342137.60965138
336,0.0
385,20.152402741066393
386,24.15748155251922
387,4.893859292069507
388,0.0
425,0.0
450,0.0
451,0.0
452,13.829525776515851
453,0.0
490,0.0
515,0.0
516,0.0
542,0.0
592,7683540.190789655
632,25470420.115602627
686,1.0
687,1.0
688,2.0
2,21, 1,21, 0,12,50.00,60.00,Monday
250,8.479968416807315
251,33202071.68084742
336,0.0
385,20.152402741066393
386,24.15748155251922
387,5.142812440847223
388,0.0
425,0.0
450,0.0
451,0.0
452,14.19729305944522
453,0.0
490,0.0
515,0.0
516,0.0
542,0.0
592,7720278.951825121
632,25293614.367092922
686,1.0
687,1.0
688,2.0
2,21, 1,21, 0,13, 0.00,10.00,Monday
250,8.663052745320499
251,33103321.823841732
336,0.0
385,20.152402741066393
386,24.15748155251922
387,5.37520806733
388,0.0
425,0.0
450,0.0
451,0.0
452,14.488523873579043
453,0.0
490,0.0
515,0.0
516,0.0
542,0.0
592,7745410.487127085
632,25196474.524210542
686,1.0
687,1.0
688,2.0
2,21, 1,21, 0,13,10.00,20.00,Monday
250,8.845872196907479
251,33008744.355144344
336,0.0
385,20.152402741066393
386,24.15748155251922
387,5.594007409349569
388,0.0
425,0.0
450,0.0
451,0.0
452,14.717790046203401
453,0.0
490,0.0
515,0.0
516,0.0
542,0.0
592,7770439.060057996
632,25078093.068677902
686,1.0
687,1.0
688,2.0
2,21, 1,21, 0,13,20.00,30.00,Monday
250,9.029037934729766
251,32914063.039066482
336,0.0
385,20.152402741066393
386,24.15748155251922
387,5.798922279075189
388,0.0
425,0.0
450,0.0
451,0.0
452,14.90098267657381
453,0.0
490,0.0
515,0.0
516,0.0
542,0.0
592,7795364.670617863
632,24958685.62633824
686,1.0
687,1.0
688,2.0
2,21, 1,21, 0,13,30.00,40.00,Monday
250,9.212104271957898
251,32819466.00716623
336,0.0
385,20.152402741066393
386,24.15748155251922
387,5.993972521435832
388,0.0
425,0.0
450,0.0
451,0.0
452,15.049852883473571
453,0.0
490,0.0
515,0.0
516,0.0
542,0.0
592,7820187.318806683
632,24839225.01950586
686,1.0
687,1.0
688,2.0
2,21, 1,21, 0,13,40.00,50.00,Monday
250,9.395173345318293
251,32724900.931045678
336,0.0
385,20.152402741066393
386,24.15748155251922
387,6.182908660896709
388,0.0
425,0.0
450,0.0
451,0.0
452,15.169194407614379
453,0.0
490,0.0
515,0.0
516,0.0
542,0.0
592,7844907.0046244515
632,24719954.64577182
686,1.0
687,1.0
688,2.0
2,21, 1,21, 0,13,50.00,60.00,Monday
250,9.578237664751029
251,32630371.614630397
336,0.0
385,20.152402741066393
386,24.15748155251922
387,6.367030426555172
388,0.0
425,0.0
450,0.0
451,0.0
452,15.262633790914855
453,0.0
490,0.0
515,0.0
516,0.0
542,0.0
592,7869523.728071173
632,24600819.12835027
686,1.0
687,1.0
688,2.0
2,21, 1,21, 0,14, 0.00,10.00,Monday
250,9.77818429241979
251,32526757.268978395
336,0.0
385,20.152402741066393
386,24.15748155251922
387,6.549177108106558
388,0.0
425,0.0
450,0.0
451,0.0
452,15.318764086602853
453,0.0
490,0.0
515,0.0
516,0.0
542,0.0
592,7896260.907308879
632,24479599.276153304
686,1.0
687,1.0
688,2.0
2,21, 1,21, 0,14,10.00,20.00,Monday
250,9.977874301514806
251,32422882.022284344
336,0.0
385,20.152402741066393
386,24.15748155251922
387,6.729480542120775
388,0.0
425,0.0
450,0.0
451,0.0
452,15.31926360472935
453,0.0
490,0.0
515,0.0
516,0.0
542,0.0
592,7922875.552815753
632,24348984.02305286
686,1.0
687,1.0
688,2.0
2,21, 1,21, 0,14,20.00,30.00,Monday
250,10.177485860058088
251,32319065.467921328
336,0.0
385,20.152402741066393
386,24.15748155251922
387,6.9057826120438435
388,0.0
425,0.0
450,0.0
451,0.0
452,15.263664038928354
453,0.0
490,0.0
515,0.0
516,0.0
542,0.0
592,7949367.664591794
632,24218646.359778173
686,1.0
687,1.0
688,2.0
2,21, 1,21, 0,14,30.00,40.00,Monday
250,10.377043600417881
251,32215302.237392668
336,0.0
385,20.152402741066393
386,24.15748155251922
387,7.072130438944463
388,0.0
425,0.0
450,0.0
451,0.0
452,15.141439827033064
453,0.0
490,0.0
515,0.0
516,0.0
542,0.0
592,7975737.242637003
632,24088498.023536142
686,1.0
687,1.0
688,2.0
2,21, 1,21, 0,14,40.00,50.00,Monday
250,10.576553557408996
251,32111586.958810937
336,0.0
385,20.152402741066393
386,24.15748155251922
387,7.22483025360175
388,0.0
425,0.0
450,0.0
451,0.0
452,14.932869522375636
453,0.0
490,0.0
515,0.0
516,0.0
542,0.0
592,8001984.286951375
632,23958523.59205956
686,1.0
687,1.0
688,2.0
2,21, 1,21, 0,14,50.00,60.00,Monday
250,10.776028866400141
251,32007912.930588774
336,0.0
385,20.152402741066393
386,24.15748155251922
387,7.364172464519212
388,0.0
425,0.0
450,0.0
451,0.0
452,14.640989631814952
453,0.0
490,0.0
515,0.0
516,0.0
542,0.0
592,8028108.797534912
632,23828720.205394316
686,1.0
687,1.0
688,2.0
2,21, 1,21, 0,15, 0.00,10.00,Monday
250,11.042043815284945
251,31869024.105720907
336,0.0
385,20.152402741066393
386,24.15748155251922
387,7.485158801667765
388,0.0
425,0.0
450,0.0
451,0.0
452,14.34569783865669
453,0.0
490,0.0
515,0.0
516,0.0
542,0.0