Program Version,EnergyPlus, Version 24.2.0-94a887817b, YMD=2025.02.04 15:41
1,5,Environment Title[],Latitude[deg],Longitude[deg],Time Zone[],Elevation[m]
2,8,Day of Simulation[],Month[],Day of Month[],DST Indicator[1=yes 0=no],Hour[],StartMinute[],EndMinute[],DayType
3,5,Cumulative Day of Simulation[],Month[],Day of Month[],DST Indicator[1=yes 0=no],DayType  ! When Daily Meters Requested
4,2,Cumulative Days of Simulation[],Month[]  ! When Monthly Meters Requested
5,1,Cumulative Days of Simulation[] ! When Run Period Meters Requested
6,1,Calendar Year of Simulation[] ! When Annual Meters Requested
11,9,Electricity:Facility [J] !Monthly [Value,Min,Day,Hour,Minute,Max,Day,Hour,Minute]
23,9,Electricity:Building [J] !Monthly [Value,Min,Day,Hour,Minute,Max,Day,Hour,Minute]
59,9,InteriorLights:Electricity [J] !Monthly [Value,Min,Day,Hour,Minute,Max,Day,Hour,Minute]
521,9,Electricity:HVAC [J] !Monthly [Value,Min,Day,Hour,Minute,Max,Day,Hour,Minute]
637,9,NaturalGas:Facility [J] !Monthly [Value,Min,Day,Hour,Minute,Max,Day,Hour,Minute]
649,9,NaturalGas:HVAC [J] !Monthly [Value,Min,Day,Hour,Minute,Max,Day,Hour,Minute]
13,11,Electricity:Facility [J] !RunPeriod [Value,Min,Month,Day,Hour,Minute,Max,Month,Day,Hour,Minute]
25,11,Electricity:Building [J] !RunPeriod [Value,Min,Month,Day,Hour,Minute,Max,Month,Day,Hour,Minute]
61,11,InteriorLights:Electricity [J] !RunPeriod [Value,Min,Month,Day,Hour,Minute,Max,Month,Day,Hour,Minute]
523,11,Electricity:HVAC [J] !RunPeriod [Value,Min,Month,Day,Hour,Minute,Max,Month,Day,Hour,Minute]
639,11,NaturalGas:Facility [J] !RunPeriod [Value,Min,Month,Day,Hour,Minute,Max,Month,Day,Hour,Minute]
651,11,NaturalGas:HVAC [J] !RunPeriod [Value,Min,Month,Day,Hour,Minute,Max,Month,Day,Hour,Minute]
End of Data Dictionary
1,RUN PERIOD 1,  41.98, -87.92,  -6.00, 201.00
4,31, 1
11,9823142465.128637,408891.4285714286, 5, 6,50,2979540.170142018,16,13,60
23,984092363.8976026,30000.0, 1, 1,10,610066.930360593, 1, 9,10
59,970200000.0,30000.0, 1, 1,10,600000.0, 1, 8,10
521,8839050101.230986,378891.4285714286, 5, 6,50,2369473.239781425,16,13,60
637,179225931939.37506,28361742.50328003,21,16,10,41250000.0, 1, 1,10
649,179225931939.37506,28361742.50328003,21,16,10,41250000.0, 1, 1,10
4,59, 2
11,9356616437.496555,99999999999999.0, 5, 6,50,3021001.61040514,22,15,30
23,860240316.4327021,99999999999999.0, 1, 1,10,-99999999999999.0, 1, 9,10
59,848160000.0,99999999999999.0, 1, 1,10,-99999999999999.0, 1, 8,10
521,8496376121.063895,99999999999999.0, 5, 6,50,2410934.680044547,22,15,30
637,158664658508.10245,26669423.659006514,23,12,10,-99999999999999.0, 1, 1,10
649,158664658508.10245,26669423.659006514,23,12,10,-99999999999999.0, 1, 1,10
4,90, 3
11,10965474603.472929,99999999999999.0, 5, 6,50,3218023.2930050422,27,14,60
23,910164332.2543354,99999999999999.0, 1, 1,10,-99999999999999.0, 1, 9,10
59,897480000.0,99999999999999.0, 1, 1,10,-99999999999999.0, 1, 8,10
521,10055310271.218561,0.0,27,15,10,2607956.3626444493,27,14,60
637,162943881166.20648,0.0,27,15,10,-99999999999999.0, 1, 1,10
649,162943881166.20648,0.0,27,15,10,-99999999999999.0, 1, 1,10
4,120, 4
11,9718865110.644712,30000.0,11,19,10,-99999999999999.0,27,14,60
23,942808348.0759692,99999999999999.0, 1, 1,10,-99999999999999.0, 1, 9,10
59,929520000.0,99999999999999.0, 1, 1,10,-99999999999999.0, 1, 8,10
521,8776056762.568747,99999999999999.0,27,15,10,-99999999999999.0,27,14,60
637,119843029118.71552,99999999999999.0,27,15,10,-99999999999999.0, 1, 1,10
649,119843029118.71552,99999999999999.0,27,15,10,-99999999999999.0, 1, 1,10
4,151, 5
11,9292543717.13442,99999999999999.0,11,19,10,3218216.2074157586, 3,10,20
23,984379790.8804832,99999999999999.0, 1, 1,10,626002.1652675791,28,13,10
59,970200000.0,99999999999999.0, 1, 1,10,-99999999999999.0, 1, 8,10
521,8308163926.253845,99999999999999.0,27,15,10,2608149.2770551657, 3,10,20
637,90865485064.41483,99999999999999.0,27,15,10,-99999999999999.0, 1, 1,10
649,90865485064.41483,99999999999999.0,27,15,10,-99999999999999.0, 1, 1,10
4,181, 6
11,8060531571.245563,99999999999999.0,11,19,10,3218239.8223596425,13, 9,20
23,868919495.8349234,99999999999999.0, 1, 1,10,-99999999999999.0,28,13,10
59,856800000.0,99999999999999.0, 1, 1,10,-99999999999999.0, 1, 8,10
521,7191612075.4105835,99999999999999.0,27,15,10,2608172.8919990496,13, 9,20
637,40811566110.88507,99999999999999.0,27,15,10,-99999999999999.0, 1, 1,10
649,40811566110.88507,99999999999999.0,27,15,10,-99999999999999.0, 1, 1,10
4,212, 7
11,7751997229.153643,99999999999999.0,11,19,10,-99999999999999.0,13, 9,20
23,984364517.7561424,99999999999999.0, 1, 1,10,-99999999999999.0,28,13,10
59,970200000.0,99999999999999.0, 1, 1,10,-99999999999999.0, 1, 8,10
521,6767632711.397447,99999999999999.0,27,15,10,-99999999999999.0,13, 9,20
637,13011804667.219013,99999999999999.0,27,15,10,-99999999999999.0, 1, 1,10
649,13011804667.219013,99999999999999.0,27,15,10,-99999999999999.0, 1, 1,10
4,243, 8
11,7110145450.351554,99999999999999.0,11,19,10,-99999999999999.0,13, 9,20
23,947406463.5049317,99999999999999.0, 1, 1,10,626099.3875672601,12,14,10
59,933840000.0,99999999999999.0, 1, 1,10,-99999999999999.0, 1, 8,10
521,6162738986.8465605,99999999999999.0,27,15,10,-99999999999999.0,13, 9,20
637,26299533669.917847,99999999999999.0,27,15,10,-99999999999999.0, 1, 1,10
649,26299533669.917847,99999999999999.0,27,15,10,-99999999999999.0, 1, 1,10
4,273, 9
11,7537493292.421777,99999999999999.0,11,19,10,-99999999999999.0,13, 9,20
23,905844332.2543356,99999999999999.0, 1, 1,10,-99999999999999.0,12,14,10
59,893160000.0,99999999999999.0, 1, 1,10,-99999999999999.0, 1, 8,10
521,6631648960.167371,99999999999999.0,27,15,10,-99999999999999.0,13, 9,20
637,60607165398.82288,99999999999999.0,27,15,10,-99999999999999.0, 1, 1,10
649,60607165398.82288,99999999999999.0,27,15,10,-99999999999999.0, 1, 1,10
4,304,10
11,10550254288.967974,99999999999999.0,11,19,10,-99999999999999.0,13, 9,20
23,984092363.8976026,99999999999999.0, 1, 1,10,-99999999999999.0,12,14,10
59,970200000.0,99999999999999.0, 1, 1,10,-99999999999999.0, 1, 8,10
521,9566161925.070341,99999999999999.0,27,15,10,-99999999999999.0,13, 9,20
637,128434452618.74146,99999999999999.0,27,15,10,-99999999999999.0, 1, 1,10
649,128434452618.74146,99999999999999.0,27,15,10,-99999999999999.0, 1, 1,10
4,334,11
11,10416905707.308666,99999999999999.0,11,19,10,-99999999999999.0,13, 9,20
23,905844332.2543354,99999999999999.0, 1, 1,10,-99999999999999.0,12,14,10
59,893160000.0,99999999999999.0, 1, 1,10,-99999999999999.0, 1, 8,10
521,9511061375.054329,99999999999999.0,27,15,10,-99999999999999.0,13, 9,20
637,147714298201.872,99999999999999.0,27,15,10,-99999999999999.0, 1, 1,10
649,147714298201.872,99999999999999.0,27,15,10,-99999999999999.0, 1, 1,10
4,365,12
11,10436078968.45982,99999999999999.0,11,19,10,-99999999999999.0,13, 9,20
23,947128348.075969,99999999999999.0, 1, 1,10,-99999999999999.0,12,14,10
59,933840000.0,99999999999999.0, 1, 1,10,-99999999999999.0, 1, 8,10
521,9488950620.383821,99999999999999.0,27,15,10,-99999999999999.0,13, 9,20
637,180084487252.61786,99999999999999.0,27,15,10,-99999999999999.0, 1, 1,10
649,180084487252.61786,99999999999999.0,27,15,10,-99999999999999.0, 1, 1,10
5,365
13,111020048841.78752,30000.0, 4,11,19,10,3218239.8223596425, 6,13, 9,20
25,11225285005.121962,30000.0, 1, 1, 1,10,626099.3875672601, 8,12,14,10
61,11066760000.0,30000.0, 1, 1, 1,10,600000.0, 1, 1, 8,10
523,99794763836.67218,0.0, 3,27,15,10,2608172.8919990496, 6,13, 9,20
639,1308506293716.8975,0.0, 3,27,15,10,41250000.0, 1, 1, 1,10
651,1308506293716.8975,0.0, 3,27,15,10,41250000.0, 1, 1, 1,10
1,RUN PERIOD 2,  41.98, -87.92,  -6.00, 201.00
4,1, 7
11,182582813.66302028,99999999999999.0,11,19,10,-99999999999999.0,13, 9,20
23,41284015.821635574,99999999999999.0, 1, 1,10,-99999999999999.0,12,14,10
59,40680000.0,99999999999999.0, 1, 1,10,-99999999999999.0, 1, 8,10
521,141298797.84138465,99999999999999.0,27,15,10,-99999999999999.0,13, 9,20
637,0.0,99999999999999.0,27,15,10,-99999999999999.0, 1, 1,10
649,0.0,99999999999999.0,27,15,10,-99999999999999.0, 1, 1,10
5,1
13,182582813.66302028,99999999999999.0, 4,11,19,10,-99999999999999.0, 6,13, 9,20
25,41284015.821635574,99999999999999.0, 1, 1, 1,10,-99999999999999.0, 8,12,14,10
61,40680000.0,99999999999999.0, 1, 1, 1,10,-99999999999999.0, 1, 1, 8,10
523,141298797.84138465,99999999999999.0, 3,27,15,10,-99999999999999.0, 6,13, 9,20
639,0.0,99999999999999.0, 3,27,15,10,-99999999999999.0, 1, 1, 1,10
651,0.0,99999999999999.0, 3,27,15,10,-99999999999999.0, 1, 1, 1,10
End of Data
 Number of Records Written=          90
