Program Version,EnergyPlus, Version 24.2.0-94a887817b, YMD=2025.02.04 15:52
1,5,Environment Title[],Latitude[deg],Longitude[deg],Time Zone[],Elevation[m]
2,8,Day of Simulation[],Month[],Day of Month[],DST Indicator[1=yes 0=no],Hour[],StartMinute[],EndMinute[],DayType
3,5,Cumulative Day of Simulation[],Month[],Day of Month[],DST Indicator[1=yes 0=no],DayType  ! When Daily Report Variables Requested
4,2,Cumulative Days of Simulation[],Month[]  ! When Monthly Report Variables Requested
5,1,Cumulative Days of Simulation[] ! When Run Period Report Variables Requested
6,1,Calendar Year of Simulation[] ! When Annual Report Variables Requested
250,1,LIVING ZONE,Zone Air Temperature [C] !TimeStep,REPORTSCH
251,1,LIVING ZONE,Zone Air System Sensible Heating Energy [J] !TimeStep,REPORTSCH
336,1,LIVING ZONE,Zone Air System Sensible Cooling Energy [J] !TimeStep,REPORTSCH
385,1,LIVING ZONE,Zone Thermostat Heating Setpoint Temperature [C] !TimeStep,REPORTSCH
386,1,LIVING ZONE,Zone Thermostat Cooling Setpoint Temperature [C] !TimeStep,REPORTSCH
387,1,GARAGE ZONE,Zone Air Temperature [C] !TimeStep,REPORTSCH
388,1,GARAGE ZONE,Zone Air System Sensible Heating Energy [J] !TimeStep,REPORTSCH
425,1,GARAGE ZONE,Zone Air System Sensible Cooling Energy [J] !TimeStep,REPORTSCH
450,1,GARAGE ZONE,Zone Thermostat Heating Setpoint Temperature [C] !TimeStep,REPORTSCH
451,1,GARAGE ZONE,Zone Thermostat Cooling Setpoint Temperature [C] !TimeStep,REPORTSCH
452,1,ATTIC ZONE,Zone Air Temperature [C] !TimeStep,REPORTSCH
453,1,ATTIC ZONE,Zone Air System Sensible Heating Energy [J] !TimeStep,REPORTSCH
490,1,ATTIC ZONE,Zone Air System Sensible Cooling Energy [J] !TimeStep,REPORTSCH
515,1,ATTIC ZONE,Zone Thermostat Heating Setpoint Temperature [C] !TimeStep,REPORTSCH
516,1,ATTIC ZONE,Zone Thermostat Cooling Setpoint Temperature [C] !TimeStep,REPORTSCH
542,1,ACDXCOIL 1,Cooling Coil Total Cooling Energy [J] !TimeStep,REPORTSCH
592,1,HEAT PUMP DX HEATING COIL 1,Heating Coil Heating Energy [J] !TimeStep,REPORTSCH
632,1,SUPP HEATING COIL 1,Heating Coil Heating Energy [J] !TimeStep,REPORTSCH
686,1,TWOSPEED HEAT PUMP 1,Unitary System DX Coil Cycling Ratio [] !TimeStep,REPORTSCH
687,1,TWOSPEED HEAT PUMP 1,Unitary System DX Coil Speed Ratio [] !TimeStep,REPORTSCH
688,1,TWOSPEED HEAT PUMP 1,Unitary System DX Coil Speed Level [] !TimeStep,REPORTSCH
End of Data Dictionary
1,RUN PERIOD 1,  41.98, -87.92,  -6.00, 201.00
2,21, 1,21, 0, 1, 0.00,10.00,Monday
250,26.54115066010441
251,0.0
336,6939772.095025375
385,22.433333333333337
386,24.706666666666667
387,0.8097217523912903
388,0.0
425,0.0
450,0.0
451,0.0
452,-1.6125917491307218
453,0.0
490,0.0
515,0.0
516,0.0
542,7506981.912109027
592,0.0
632,0.0
686,0.8333333333333334
687,0.8333333333333334
688,1.6666666666666667
2,21, 1,21, 0, 1,10.00,20.00,Monday
250,24.958520234114502
251,0.0
336,6571493.397085192
385,22.1
386,24.04
387,0.7810161352069329
388,0.0
425,0.0
450,0.0
451,0.0
452,-1.5995603776234346
453,0.0
490,0.0
515,0.0
516,0.0
542,9345157.013885714
592,0.0
632,0.0
686,1.0
687,1.0
688,2.0
2,21, 1,21, 0, 1,20.00,30.00,Monday
250,26.905108541658446
251,0.0
336,5420911.561072531
385,22.1
386,24.04
387,0.7567056455154682
388,0.0
425,0.0
450,0.0
451,0.0
452,-1.5868296431205904
453,0.0
490,0.0
515,0.0
516,0.0
542,10627078.761049548
592,0.0
632,0.0
686,1.0
687,1.0
688,2.0
2,21, 1,21, 0, 1,30.00,40.00,Monday
250,26.935698157637546
251,0.0
336,3862437.0437028194
385,22.1
386,24.04
387,0.7316311777842335
388,0.0
425,0.0
450,0.0
451,0.0
452,-1.5704585198002958
453,0.0
490,0.0
515,0.0
516,0.0
542,10801940.453041485
592,0.0
632,0.0
686,1.0
687,1.0
688,2.0
2,21, 1,21, 0, 1,40.00,50.00,Monday
250,27.65617588360706
251,0.0
336,3261353.100601975
385,22.1
386,24.04
387,0.711925432876674
388,0.0
425,0.0
450,0.0
451,0.0
452,-1.5532190498247123
453,0.0
490,0.0
515,0.0
516,0.0
542,10801940.453041479
592,0.0
632,0.0
686,1.0
687,1.0
688,2.0
2,21, 1,21, 0, 1,50.00,60.00,Monday
250,28.017673513471202
251,0.0
336,2664556.9149440043
385,22.1
386,24.04
387,0.6915376899116636
388,0.0
425,0.0
450,0.0
451,0.0
452,-1.5307708641748219
453,0.0
490,0.0
515,0.0
516,0.0
542,10801940.453041483
592,0.0
632,0.0
686,1.0
687,1.0
688,2.0
2,21, 1,21, 0, 2, 0.00,10.00,Monday
250,28.09633499922904
251,0.0
336,2589468.439918662
385,22.1
386,24.04
387,0.6747813092938434
388,0.0
425,0.0
450,0.0
451,0.0
452,-1.509584042621945
453,0.0
490,0.0
515,0.0
516,0.0
542,10801940.45304148
592,0.0
632,0.0
686,1.0
687,1.0
688,2.0
2,21, 1,21, 0, 2,10.00,20.00,Monday
250,28.11943067638728
251,0.0
336,2526680.375824497
385,22.1
386,24.04
387,0.6603052413026126
388,0.0
425,0.0
450,0.0
451,0.0
452,-1.4921908120252327
453,0.0
490,0.0
515,0.0
516,0.0
542,10801940.45304148
592,0.0
632,0.0
686,1.0
687,1.0
688,2.0
2,21, 1,21, 0, 2,20.00,30.00,Monday
250,28.195485491162373
251,0.0
336,2553682.9355207714
385,22.1
386,24.04
387,0.6463247088375341
388,0.0
425,0.0
450,0.0
451,0.0
452,-1.4797032071700573
453,0.0
490,0.0
515,0.0
516,0.0
542,10801940.45304148
592,0.0
632,0.0
686,1.0
687,1.0
688,2.0
2,21, 1,21, 0, 2,30.00,40.00,Monday
250,28.277518140869592
251,0.0
336,2548358.8257436217
385,22.1
386,24.04
387,0.6318340734887871
388,0.0
425,0.0
450,0.0
451,0.0
452,-1.471885910074508
453,0.0
490,0.0
515,0.0
516,0.0
542,10801940.453041486
592,0.0
632,0.0
686,1.0
687,1.0
688,2.0
2,21, 1,21, 0, 2,40.00,50.00,Monday
250,28.33255114676849
251,0.0
336,2523919.2404831746
385,22.1
386,24.04
387,0.6165262203433437
388,0.0
425,0.0
450,0.0
451,0.0
452,-1.4682316087595166
453,0.0
490,0.0
515,0.0
516,0.0
542,10801940.45304148
592,0.0
632,0.0
686,1.0
687,1.0
688,2.0
2,21, 1,21, 0, 2,50.00,60.00,Monday
250,28.37594690089366
251,0.0
336,2511164.213384656
385,22.1
386,24.04
387,0.6002629431006038
388,0.0
425,0.0
450,0.0
451,0.0
452,-1.4683766807650136
453,0.0
490,0.0
515,0.0
516,0.0
542,10801940.453041472
592,0.0
632,0.0
686,1.0
687,1.0
688,2.0
2,21, 1,21, 0, 3, 0.00,10.00,Monday
250,28.415103485682444
251,0.0
336,2503881.3096677475
385,22.1
386,24.04
387,0.583578074699118
388,0.0
425,0.0
450,0.0
451,0.0
452,-1.4695901145453116
453,0.0
490,0.0
515,0.0
516,0.0
542,10801940.453041472
592,0.0
632,0.0
686,1.0
687,1.0
688,2.0
2,21, 1,21, 0, 3,10.00,20.00,Monday
250,28.45143796047798
251,0.0
336,2497878.155930884
385,22.1
386,24.04
387,0.5670491075763253
388,0.0
425,0.0
450,0.0
451,0.0
452,-1.4674766930954426
453,0.0
490,0.0
515,0.0
516,0.0
542,10801940.453041496
592,0.0
632,0.0
686,1.0
687,1.0
688,2.0
2,21, 1,21, 0, 3,20.00,30.00,Monday
250,28.484851565378694
251,0.0
336,2492144.7107262895
385,22.1
386,24.04
387,0.5509599410852112
388,0.0
425,0.0
450,0.0
451,0.0
452,-1.4593445993548062
453,0.0
490,0.0
515,0.0
516,0.0
542,10801940.453041496
592,0.0
632,0.0
686,1.0
687,1.0
688,2.0
2,21, 1,21, 0, 3,30.00,40.00,Monday
250,28.515180784757334
251,0.0
336,2486654.495599618
385,22.1
386,24.04
387,0.5354082617506813
388,0.0
425,0.0
450,0.0
451,0.0
452,-1.4457690155894005
453,0.0
490,0.0
515,0.0
516,0.0
542,10801940.45304148
592,0.0
632,0.0
686,1.0
687,1.0
688,2.0
2,21, 1,21, 0, 3,40.00,50.00,Monday
250,28.543481113359807
251,0.0
336,2482107.106734349
385,22.1
386,24.04
387,0.5204731460613696
388,0.0
425,0.0
450,0.0
451,0.0
452,-1.428850709013277
453,0.0
490,0.0
515,0.0
516,0.0
542,10801940.453041486
592,0.0
632,0.0
686,1.0
687,1.0
688,2.0
2,21, 1,21, 0, 3,50.00,60.00,Monday
250,28.5702235280339
251,0.0
336,2478055.6711097364
385,22.1
386,24.04
387,0.5062286136161174
388,0.0
425,0.0
450,0.0
451,0.0
452,-1.4099078637200064
453,0.0
490,0.0
515,0.0
516,0.0
542,10801940.453041486
592,0.0
632,0.0
686,1.0
687,1.0
688,2.0
2,21, 1,21, 0, 4, 0.00,10.00,Monday
250,28.560473720488492
251,0.0
336,2454378.2364839534
385,22.1
386,24.04
387,0.49015186921113163
388,0.0
425,0.0
450,0.0
451,0.0
452,-1.3908506720031348
453,0.0
490,0.0
515,0.0
516,0.0
542,10801940.453041486
592,0.0
632,0.0
686,1.0
687,1.0
688,2.0
2,21, 1,21, 0, 4,10.00,20.00,Monday
250,28.537067976080557
251,0.0
336,2447889.181224004
385,22.1
386,24.04
387,0.4705090663857673
388,0.0
425,0.0
450,0.0
451,0.0
452,-1.3743724101966794
453,0.0
490,0.0
515,0.0
516,0.0
542,10801940.453041472
592,0.0
632,0.0
686,1.0
687,1.0
688,2.0
2,21, 1,21, 0, 4,20.00,30.00,Monday
250,28.520141606473228
251,0.0
336,2454218.525519738
385,22.1
386,24.04
387,0.4477080588437688
388,0.0
425,0.0
450,0.0
451,0.0
452,-1.3627824132230955
453,0.0
490,0.0
515,0.0
516,0.0
542,10801940.453041486
592,0.0
632,0.0
686,1.0
687,1.0
688,2.0
2,21, 1,21, 0, 4,30.00,40.00,Monday
250,28.50562991833846
251,0.0
336,2457543.699672262
385,22.1
386,24.04
387,0.4228853567934524
388,0.0
425,0.0
450,0.0
451,0.0
452,-1.3573242436398443
453,0.0
490,0.0
515,0.0
516,0.0
542,10801940.453041486
592,0.0
632,0.0
686,1.0
687,1.0
688,2.0
2,21, 1,21, 0, 4,40.00,50.00,Monday
250,28.487060282957476
251,0.0
336,2456972.3631349453
385,22.1
386,24.04
387,0.3967387195992367
388,0.0
425,0.0
450,0.0
451,0.0
452,-1.358371531121857
453,0.0
490,0.0
515,0.0
516,0.0
542,10801940.453041486
592,0.0
632,0.0
686,1.0
687,1.0
688,2.0
2,21, 1,21, 0, 4,50.00,60.00,Monday
250,28.4646807237447
251,0.0
336,2456998.050903645
385,22.1
386,24.04
387,0.3690558807267027
388,0.0
425,0.0
450,0.0
451,0.0
452,-1.3641487944959867
453,0.0
490,0.0
515,0.0
516,0.0
542,10801940.45304148
592,0.0
632,0.0
686,1.0
687,1.0
688,2.0
2,21, 1,21, 0, 5, 0.00,10.00,Monday
250,28.50095930417781
251,0.0
336,2492904.14720857
385,22.1
386,24.04
387,0.345205908436673
388,0.0
425,0.0
450,0.0
451,0.0
452,-1.3697988437277417
453,0.0
490,0.0
515,0.0
516,0.0
542,10801940.45304148
592,0.0
632,0.0
686,1.0
687,1.0
688,2.0
2,21, 1,21, 0, 5,10.00,20.00,Monday
250,28.557171226115834
251,0.0
336,2499920.983907841
385,22.1
386,24.04
387,0.32850888907575615
388,0.0
425,0.0
450,0.0
451,0.0
452,-1.3693628996722398
453,0.0
490,0.0
515,0.0
516,0.0
542,10801940.453041486
592,0.0
632,0.0
686,1.0
687,1.0
688,2.0
2,21, 1,21, 0, 5,20.00,30.00,Monday
250,28.59817953899617
251,0.0
336,2485019.7726436374
385,22.1
386,24.04
387,0.3177449479859602
388,0.0
425,0.0
450,0.0
451,0.0
452,-1.3590057011454875
453,0.0
490,0.0
515,0.0
516,0.0
542,10801940.453041486
592,0.0
632,0.0
686,1.0
687,1.0
688,2.0
2,21, 1,21, 0, 5,30.00,40.00,Monday
250,28.631163868986036
251,0.0
336,2475857.529440694
385,22.1
386,24.04
387,0.3104633855432277
388,0.0
425,0.0
450,0.0
451,0.0
452,-1.3386528398914248
453,0.0
490,0.0
515,0.0
516,0.0
542,10801940.453041486
592,0.0
632,0.0
686,1.0
687,1.0
688,2.0
2,21, 1,21, 0, 5,40.00,50.00,Monday
250,28.668054821813513
251,0.0
336,2474286.4770094496
385,22.1
386,24.04
387,0.30536050935523706
388,0.0
425,0.0
450,0.0
451,0.0
452,-1.3102189731312504
453,0.0
490,0.0
515,0.0
516,0.0
542,10801940.45304148
592,0.0
632,0.0
686,1.0
687,1.0
688,2.0
2,21, 1,21, 0, 5,50.00,60.00,Monday
250,28.707315664457223
251,0.0
336,2471423.3665851336
385,22.1
386,24.04
387,0.3020108172428688
388,0.0
425,0.0
450,0.0
451,0.0
452,-1.2760683589142143
453,0.0
490,0.0
515,0.0
516,0.0
542,10801940.453041496
592,0.0
632,0.0
686,1.0
687,1.0
688,2.0
2,21, 1,21, 0, 6, 0.00,10.00,Monday
250,28.70037752686108
251,0.0
336,2440619.1967044915
385,22.1
386,24.04
387,0.29576839547672384
388,0.0
425,0.0
450,0.0
451,0.0
452,-1.2436658380799563
453,0.0
490,0.0
515,0.0
516,0.0
542,10801940.45304148
592,0.0
632,0.0
686,1.0
687,1.0
688,2.0
2,21, 1,21, 0, 6,10.00,20.00,Monday
250,28.67620044281441
251,0.0
336,2431798.0180127425
385,22.1
386,24.04
387,0.2835238366121345
388,0.0
425,0.0
450,0.0
451,0.0
452,-1.222551554665032
453,0.0
490,0.0
515,0.0
516,0.0
542,10801940.453041486
592,0.0
632,0.0
686,1.0
687,1.0
688,2.0
2,21, 1,21, 0, 6,20.00,30.00,Monday
250,28.66218944437728
251,0.0
336,2440266.117829252
385,22.1
386,24.04
387,0.265851413007771
388,0.0
425,0.0
450,0.0
451,0.0
452,-1.2171495752379953
453,0.0
490,0.0
515,0.0
516,0.0
542,10801940.453041486
592,0.0
632,0.0
686,1.0
687,1.0
688,2.0
2,21, 1,21, 0, 6,30.00,40.00,Monday
250,28.653235198683074
251,0.0
336,2444735.876205282
385,22.1
386,24.04
387,0.2446070472003063
388,0.0
425,0.0
450,0.0
451,0.0
452,-1.2261096716933808
453,0.0
490,0.0
515,0.0
516,0.0
542,10801940.453041486
592,0.0
632,0.0
686,1.0
687,1.0
688,2.0
2,21, 1,21, 0, 6,40.00,50.00,Monday
250,28.640130695307782
251,0.0
336,2443479.8645748077
385,22.1
386,24.04
387,0.2210110859476027
388,0.0
425,0.0
450,0.0
451,0.0
452,-1.2460442471898865
453,0.0
490,0.0
515,0.0
516,0.0
542,10801940.453041496
592,0.0
632,0.0
686,1.0
687,1.0
688,2.0
2,21, 1,21, 0, 6,50.00,60.00,Monday
250,28.623930404857187
251,0.0
336,2443280.1069048266
385,22.1
386,24.04
387,0.19528534075249038
388,0.0
425,0.0
450,0.0
451,0.0
452,-1.2744915315412273
453,0.0
490,0.0
515,0.0
516,0.0
542,10801940.453041486
592,0.0
632,0.0
686,1.0
687,1.0
688,2.0
2,21, 1,21, 0, 7, 0.00,10.00,Monday
250,24.27169172096301
251,2467890.7379376115
336,669305.0747798018
385,22.500000000000004
386,25.039999999999996
387,0.16995990674364278
388,0.0
425,0.0
450,0.0
451,0.0
452,-1.3160489777166249
453,0.0
490,0.0
515,0.0
516,0.0
542,3700038.98191298
592,681948.3580761169
632,1846080.9038719772
686,0.5185503899548272
687,0.4
688,1.0
2,21, 1,21, 0, 7,10.00,20.00,Monday
250,23.460889155829612
251,2685813.233431294
336,0.0
385,22.76666666666667
386,26.04
387,0.13459862412812354
388,0.0
425,0.0
450,0.0
451,0.0
452,-1.3937580707406634
453,0.0
490,0.0
515,0.0
516,0.0
542,0.0
592,946907.8959085303
632,1843522.9067360123
686,0.21207563052303505
687,0.1666666666666666
688,0.4999999999999998
2,21, 1,21, 0, 7,20.00,30.00,Monday
250,23.409009759963308
251,2877642.8046639333
336,0.0
385,22.900000000000006
386,26.04
387,0.08734349486417049
388,0.0
425,0.0
450,0.0
451,0.0
452,-1.5153723185845194
453,0.0
490,0.0
515,0.0
516,0.0
542,0.0
592,1033446.9636650629
632,1979100.703447125
686,0.22326875539093008
687,0.2
688,0.6000000000000001
2,21, 1,21, 0, 7,30.00,40.00,Monday
250,23.214248256946675
251,3309848.3138128067
336,0.0
385,23.1
386,26.04
387,0.02843213071305884
388,0.0
425,0.0
450,0.0
451,0.0
452,-1.679804931512278
453,0.0
490,0.0
515,0.0
516,0.0
542,0.0
592,1633121.4187570058
632,1793665.548100063
686,0.3762100980411568
687,0.25
688,0.75
2,21, 1,21, 0, 7,40.00,50.00,Monday
250,22.71275278471305
251,4209074.371225314
336,0.0
385,22.766666666666687
386,26.04000000000002
387,-0.042257330999653744
388,0.0
425,0.0
450,0.0
451,0.0
452,-1.884476009640366
453,0.0
490,0.0
515,0.0
516,0.0
542,0.0
592,2955267.0050795367
632,1390402.1496454985
686,0.6666666666666672
687,0.4781464382383649
688,1.3333333333333344
2,21, 1,21, 0, 7,50.00,60.00,Monday
250,23.464772165028965
251,5278516.758960351
336,0.0
385,23.300000000000004
386,26.04
387,-0.1207437965429616
388,0.0
425,0.0
450,0.0
451,0.0
452,-2.1177836406686925
453,0.0
490,0.0
515,0.0
516,0.0
542,0.0
592,2054614.2974538226
632,3446838.9180457043
686,0.4360651361765536
687,0.4
688,1.2000000000000002
2,21, 1,21, 0, 8, 0.00,10.00,Monday
250,25.04082042695852
251,222116.84343000702
336,2452449.252436272
385,22.322222222222223
386,25.151111111111106
387,-0.19715842574643766
388,0.0
425,0.0
450,0.0
451,0.0
452,-2.350852102972819
453,0.0
490,0.0
515,0.0
516,0.0
542,4720665.3666794235
592,225419.7068035699
632,0.0
686,0.5454863377942472
687,0.41473698090212685
688,1.1111111111111107
2,21, 1,21, 0, 8,10.00,20.00,Monday
250,24.388897188344455
251,0.0
336,2921661.657543165
385,22.099999999999994
386,24.539999999999992
387,-0.2666504513586698
388,0.0
425,0.0
450,0.0
451,0.0
452,-2.5088220007870574
453,0.0
490,0.0
515,0.0
516,0.0
542,5531126.400957301
592,0.0
632,0.0
686,0.6586557520838255
687,0.2528609560415349
688,1.2499999999999998
2,21, 1,21, 0, 8,20.00,30.00,Monday
250,25.367389861878607
251,0.0
336,2770987.5902338144
385,22.1
386,25.04
387,-0.3493545348439781
388,0.0
425,0.0
450,0.0
451,0.0
452,-2.5895144745409726
453,0.0
490,0.0
515,0.0
516,0.0
542,6469093.375359948
592,0.0
632,0.0
686,0.6343645323314868
687,0.5
688,1.25
2,21, 1,21, 0, 8,30.00,40.00,Monday
250,24.67088647812716
251,0.0
336,1460477.0573985656
385,22.099999999999994
386,25.039999999999992
387,-0.3939273477955231
388,0.0
425,0.0
450,0.0
451,0.0
452,-2.4863785644463565
453,0.0
490,0.0
515,0.0
516,0.0
542,3532938.449229005
592,0.0
632,0.0
686,0.4285094444160531
687,0.05126739593817419
688,0.7499999999999997
2,21, 1,21, 0, 8,40.00,50.00,Monday
250,25.653290101787412
251,0.0
336,535211.4521494719
385,22.100000000000016
386,26.04000000000002
387,-0.4063910380106575
388,0.0
425,0.0
450,0.0
451,0.0
452,-2.276536763580802
453,0.0
490,0.0
515,0.0
516,0.0
542,1286838.9119151337
592,0.0
632,0.0
686,0.16091252977452378
687,0.0
688,0.3333333333333336
2,21, 1,21, 0, 8,50.00,60.00,Monday
250,24.510105603279246
251,0.0
336,2335559.642454233
385,22.1
386,24.54
387,-0.3985551957828091
388,0.0
425,0.0
450,0.0
451,0.0
452,-1.9620253190217949
453,0.0
490,0.0
515,0.0
516,0.0
542,6587519.670668244
592,0.0
632,0.0
686,0.6483718521350726
687,0.5
688,1.25
2,21, 1,21, 0, 9, 0.00,10.00,Monday
250,29.414112935701567
251,0.0
336,4483000.715519341
385,22.100000000000005
386,24.44
387,-0.37071053890685374
388,0.0
425,0.0
450,0.0
451,0.0
452,-1.5784642088048746
453,0.0
490,0.0
515,0.0
516,0.0
542,9721746.407737335
592,0.0
632,0.0
686,0.8999999999999999
687,0.8999999999999999
688,1.7999999999999998
2,21, 1,21, 0, 9,10.00,20.00,Monday
250,27.205583836483157
251,0.0
336,2979502.677399367
385,22.1
386,24.04
387,-0.3217310617595823
388,0.0
425,0.0
450,0.0
451,0.0
452,-1.078832498202015
453,0.0
490,0.0
515,0.0
516,0.0
542,10801940.453041486
592,0.0
632,0.0
686,1.0
687,1.0
688,2.0
2,21, 1,21, 0, 9,20.00,30.00,Monday
250,30.1723624619222
251,0.0
336,3827785.2924661133
385,22.100000000000005
386,24.04
387,-0.25551979769348643
388,0.0
425,0.0
450,0.0
451,0.0
452,-0.5218737236806621
453,0.0
490,0.0
515,0.0
516,0.0
542,10801940.453041483
592,0.0
632,0.0
686,1.0
687,1.0
688,2.0
2,21, 1,21, 0, 9,30.00,40.00,Monday
250,28.061778220136084
251,0.0
336,2369156.5734111355
385,22.1
386,24.04
387,-0.17533457425710008
388,0.0
425,0.0
450,0.0
451,0.0
452,0.07695027110520057
453,0.0
490,0.0
515,0.0
516,0.0
542,10801940.453041483
592,0.0
632,0.0
686,1.0
687,1.0
688,2.0
2,21, 1,21, 0, 9,40.00,50.00,Monday
250,29.860356297617148
251,0.0
336,3428413.2471219385
385,22.1
386,24.04
387,-0.05448636539724797
388,0.0
425,0.0
450,0.0
451,0.0
452,0.8707749504469566
453,0.0
490,0.0
515,0.0
516,0.0
542,10801940.453041485
592,0.0
632,0.0
686,1.0
687,1.0
688,2.0
2,21, 1,21, 0, 9,50.00,60.00,Monday
250,28.490874861954502
251,0.0
336,2309979.9322797055
385,22.100000000000016
386,24.040000000000017
387,0.024779432224553623
388,0.0
425,0.0
450,0.0
451,0.0
452,1.4096385617756866
453,0.0
490,0.0
515,0.0
516,0.0
542,10801940.453041483
592,0.0
632,0.0
686,1.0000000000000009
687,1.0000000000000009
688,2.0000000000000018
2,21, 1,21, 0,10, 0.00,10.00,Monday
250,30.31863612937047
251,0.0
336,3000965.6178715415
385,22.1
386,24.04
387,0.10970070225641576
388,0.0
425,0.0
450,0.0
451,0.0
452,1.9246971838009523
453,0.0
490,0.0
515,0.0
516,0.0
542,10801940.453041477
592,0.0
632,0.0
686,1.0
687,1.0
688,2.0
2,21, 1,21, 0,10,10.00,20.00,Monday
250,29.042170383326464
251,0.0
336,2093145.0502450713
385,22.1
386,24.04
387,0.21019745619058597
388,0.0
425,0.0
450,0.0
451,0.0
452,2.4719171299546634
453,0.0
490,0.0
515,0.0
516,0.0
542,10801940.453041479
592,0.0
632,0.0
686,1.0
687,1.0
688,2.0
2,21, 1,21, 0,10,20.00,30.00,Monday
250,29.9944021136617
251,0.0
336,2857967.6112042256
385,22.099999999999994
386,24.039999999999992
387,0.36910000416142763
388,0.0
425,0.0
450,0.0
451,0.0
452,3.198807005155559
453,0.0
490,0.0
515,0.0
516,0.0
542,10801940.453041486
592,0.0
632,0.0
686,0.9999999999999996
687,0.9999999999999996
688,1.9999999999999991
2,21, 1,21, 0,10,30.00,40.00,Monday
250,29.821871471486514
251,0.0
336,2243442.513280656
385,22.10000000000001
386,24.04000000000001
387,0.5292759100293785
388,0.0
425,0.0
450,0.0
451,0.0
452,3.857474659566276
453,0.0
490,0.0
515,0.0
516,0.0
542,10801940.453041486
592,0.0
632,0.0
686,1.0000000000000004
687,1.0000000000000004
688,2.000000000000001
2,21, 1,21, 0,10,40.00,50.00,Monday
250,30.12894056626646
251,0.0
336,2470214.229847189
385,22.100000000000016
386,24.040000000000017
387,0.696805139596753
388,0.0
425,0.0
450,0.0
451,0.0
452,4.561523720519748
453,0.0
490,0.0
515,0.0
516,0.0
542,10801940.453041486
592,0.0
632,0.0
686,1.0000000000000009
687,1.0000000000000009
688,2.0000000000000018
2,21, 1,21, 0,10,50.00,60.00,Monday
250,30.04528230409972
251,0.0
336,2200332.9886366474
385,22.100000000000016
386,24.040000000000017
387,0.8720037671766407
388,0.0
425,0.0
450,0.0
451,0.0
452,5.3445205230099475
453,0.0
490,0.0
515,0.0
516,0.0
542,10801940.453041488
592,0.0
632,0.0
686,1.0000000000000009
687,1.0000000000000009
688,2.0000000000000018
2,21, 1,21, 0,11, 0.00,10.00,Monday
250,30.23202335568933
251,0.0
336,2391545.3768432904
385,22.1
386,24.04
387,1.056750534971834
388,0.0
425,0.0
450,0.0
451,0.0
452,6.190799468362291
453,0.0
490,0.0
515,0.0
516,0.0
542,10801940.453041485
592,0.0
632,0.0
686,1.0
687,1.0
688,2.0
2,21, 1,21, 0,11,10.00,20.00,Monday
250,30.203938647337935
251,0.0
336,2229719.3685945785
385,22.1
386,24.04
387,1.2523421480240318
388,0.0
425,0.0
450,0.0
451,0.0
452,7.08249906261212
453,0.0
490,0.0
515,0.0
516,0.0
542,10801940.45304149
592,0.0
632,0.0
686,1.0
687,1.0
688,2.0
2,21, 1,21, 0,11,20.00,30.00,Monday
250,30.52907832075438
251,0.0
336,2333991.062749877
385,22.1
386,24.04
387,1.4147162548101022
388,0.0
425,0.0
450,0.0
451,0.0
452,7.8793856734532275
453,0.0
490,0.0
515,0.0
516,0.0
542,10801940.45304148
592,0.0
632,0.0
686,1.0
687,1.0
688,2.0
2,21, 1,21, 0,11,30.00,40.00,Monday
250,30.308590238041653
251,0.0
336,2195365.189551022
385,22.1
386,24.04
387,1.664473661385328
388,0.0
425,0.0
450,0.0
451,0.0
452,8.932238426657527
453,0.0
490,0.0
515,0.0
516,0.0
542,10801940.453041485
592,0.0
632,0.0
686,1.0
687,1.0
688,2.0
2,21, 1,21, 0,11,40.00,50.00,Monday
250,30.52987751089453
251,0.0
336,2330327.5445914073
385,22.1
386,24.04
387,1.9089872956700584
388,0.0
425,0.0
450,0.0
451,0.0
452,9.831562956434338
453,0.0
490,0.0
515,0.0
516,0.0
542,10801940.453041485
592,0.0
632,0.0
686,1.0
687,1.0
688,2.0
2,21, 1,21, 0,11,50.00,60.00,Monday
250,30.274097281220467
251,0.0
336,2186733.188742578
385,22.100000000000016
386,24.040000000000017
387,2.0999467331904764
388,0.0
425,0.0
450,0.0
451,0.0
452,10.508018673964145
453,0.0
490,0.0
515,0.0
516,0.0
542,10801940.45304149
592,0.0
632,0.0
686,1.0000000000000009
687,1.0000000000000009
688,2.0000000000000018
2,21, 1,21, 0,12, 0.00,10.00,Monday
250,30.572360887962823
251,0.0
336,2364844.6531781824
385,22.1
386,24.04
387,2.3608915471828507
388,0.0
425,0.0
450,0.0
451,0.0
452,11.24751285467849
453,0.0
490,0.0
515,0.0
516,0.0
542,10801940.453041488
592,0.0
632,0.0
686,1.0
687,1.0
688,2.0
2,21, 1,21, 0,12,10.00,20.00,Monday
250,30.38132324261893
251,0.0
336,2172128.9708449384
385,22.1
386,24.04
387,2.5600160855410588
388,0.0
425,0.0
450,0.0
451,0.0
452,11.733259601829058
453,0.0
490,0.0
515,0.0
516,0.0
542,10801940.453041483
592,0.0
632,0.0
686,1.0
687,1.0
688,2.0
2,21, 1,21, 0,12,20.00,30.00,Monday
250,30.564181276824545
251,0.0
336,2345876.785956005
385,22.1
386,24.04
387,2.7918592429922526
388,0.0
425,0.0
450,0.0
451,0.0
452,12.166118508759425
453,0.0
490,0.0
515,0.0
516,0.0
542,10801940.45304148
592,0.0
632,0.0
686,1.0
687,1.0
688,2.0
2,21, 1,21, 0,12,30.00,40.00,Monday
250,30.601360704954356
251,0.0
336,2189459.149415653
385,22.1
386,24.04
387,2.996429308423773
388,0.0
425,0.0
450,0.0
451,0.0
452,12.445977116323629
453,0.0
490,0.0
515,0.0
516,0.0
542,10801940.453041486
592,0.0
632,0.0
686,1.0
687,1.0
688,2.0
2,21, 1,21, 0,12,40.00,50.00,Monday
250,30.600053767534913
251,0.0
336,2241223.286204271
385,22.1
386,24.04
387,3.1639599665551104
388,0.0
425,0.0
450,0.0
451,0.0
452,12.551455605931771
453,0.0
490,0.0
515,0.0
516,0.0
542,10801940.453041486
592,0.0
632,0.0
686,1.0
687,1.0
688,2.0
2,21, 1,21, 0,12,50.00,60.00,Monday
250,30.616097297449507
251,0.0
336,2250975.2917250292
385,22.1
386,24.04
387,3.297768771058062
388,0.0
425,0.0
450,0.0
451,0.0
452,12.505585139508637
453,0.0
490,0.0
515,0.0
516,0.0
542,10801940.453041486
592,0.0
632,0.0
686,1.0
687,1.0
688,2.0
2,21, 1,21, 0,13, 0.00,10.00,Monday
250,28.42176643696433
251,0.0
336,2085186.1450760644
385,22.1
386,24.04
387,3.3786158752641557
388,0.0
425,0.0
450,0.0
451,0.0
452,12.404982393379463
453,0.0
490,0.0
515,0.0
516,0.0
542,10801940.453041483
592,0.0
632,0.0
686,1.0
687,1.0
688,2.0
2,21, 1,21, 0,13,10.00,20.00,Monday
250,28.311302339113862
251,0.0
336,2812806.1188939796
385,22.1
386,24.04
387,3.4582916426317416
388,0.0
425,0.0
450,0.0
451,0.0
452,12.313355491714997
453,0.0
490,0.0
515,0.0
516,0.0
542,10801940.45304148
592,0.0
632,0.0
686,1.0
687,1.0
688,2.0
2,21, 1,21, 0,13,20.00,30.00,Monday
250,27.64286346833131
251,0.0
336,3057235.751130988
385,22.1
386,24.04
387,3.5429865969308354
388,0.0
425,0.0
450,0.0
451,0.0
452,12.24469633013845
453,0.0
490,0.0
515,0.0
516,0.0
542,10801940.453041486
592,0.0
632,0.0
686,1.0
687,1.0
688,2.0
2,21, 1,21, 0,13,30.00,40.00,Monday
250,27.19738269648164
251,0.0
336,3507712.3817405375
385,22.1
386,24.04
387,3.650472934698915
388,0.0
425,0.0
450,0.0
451,0.0
452,12.19400372139224
453,0.0
490,0.0
515,0.0
516,0.0
542,10801940.453041486
592,0.0
632,0.0
686,1.0
687,1.0
688,2.0
2,21, 1,21, 0,13,40.00,50.00,Monday
250,26.955574834860112
251,0.0
336,3923045.4965760466
385,22.1
386,24.04
387,3.7447143658876914
388,0.0
425,0.0
450,0.0
451,0.0
452,12.171414723919227
453,0.0
490,0.0
515,0.0
516,0.0
542,10801940.453041492
592,0.0
632,0.0
686,1.0
687,1.0
688,2.0
2,21, 1,21, 0,13,50.00,60.00,Monday
250,26.790239840819257
251,0.0
336,4199848.794325246
385,22.1
386,24.04
387,3.8251173352344843
388,0.0
425,0.0
450,0.0
451,0.0
452,12.162272173581362
453,0.0
490,0.0
515,0.0
516,0.0
542,10801940.453041485
592,0.0
632,0.0
686,1.0
687,1.0
688,2.0
2,21, 1,21, 0,14, 0.00,10.00,Monday
250,30.2521398065426
251,0.0
336,4906151.202904158
385,22.100000000000005
386,24.04
387,3.8787563509064937
388,0.0
425,0.0
450,0.0
451,0.0
452,12.121216320154621
453,0.0
490,0.0
515,0.0
516,0.0
542,10801940.453041483
592,0.0
632,0.0
686,0.9999999999999999
687,0.9999999999999999
688,1.9999999999999998
2,21, 1,21, 0,14,10.00,20.00,Monday
250,28.297312975671147
251,0.0
336,2989170.97732572
385,22.1
386,24.04
387,3.937579368399955
388,0.0
425,0.0
450,0.0
451,0.0
452,12.015477207985473
453,0.0
490,0.0
515,0.0
516,0.0
542,10801940.453041486
592,0.0
632,0.0
686,1.0
687,1.0
688,2.0
2,21, 1,21, 0,14,20.00,30.00,Monday
250,31.50952788641031
251,0.0
336,3692696.4043057743
385,22.09999999999998
386,24.039999999999974
387,3.9950095377842647
388,0.0
425,0.0
450,0.0
451,0.0
452,11.847501916671472
453,0.0
490,0.0
515,0.0
516,0.0
542,10801940.453041483
592,0.0
632,0.0
686,0.9999999999999989
687,0.9999999999999989
688,1.9999999999999978
2,21, 1,21, 0,14,30.00,40.00,Monday
250,28.86603957768476
251,0.0
336,2230155.042139095
385,22.099999999999998
386,24.039999999999992
387,4.044301485320705
388,0.0
425,0.0
450,0.0
451,0.0
452,11.592228346412757
453,0.0
490,0.0
515,0.0
516,0.0
542,10801940.453041483
592,0.0
632,0.0
686,0.9999999999999996
687,0.9999999999999996
688,1.9999999999999991
2,21, 1,21, 0,14,40.00,50.00,Monday
250,31.154266085667384
251,0.0
336,3624265.344234937
385,22.100000000000005
386,24.04
387,4.099453257964136
388,0.0
425,0.0
450,0.0
451,0.0
452,11.136833657397126
453,0.0
490,0.0
515,0.0
516,0.0
542,10801940.453041479
592,0.0
632,0.0
686,1.0
687,1.0
688,2.0
2,21, 1,21, 0,14,50.00,60.00,Monday
250,28.772794016575475
251,0.0
336,2220750.335429558
385,22.1
386,24.04
387,4.113066137025479
388,0.0
425,0.0
450,0.0
451,0.0
452,10.67573501993878
453,0.0
490,0.0
515,0.0
516,0.0
542,10801940.45304148
592,0.0
632,0.0
686,1.0
687,1.0
688,2.0
2,21, 1,21, 0,15, 0.00,10.00,Monday
250,31.798398396031825
251,0.0
336,3460419.674616116
385,22.1
386,24.04
387,4.107193446193152
388,0.0
425,0.0
450,0.0
451,0.0
452,10.141419861175184
453,0.0
490,0.0
515,0.0
516,0.0
542,10801940.453041488
592,0.0
632,0.0
686,1.0
687,1.0
688,2.0
2,21, 1,21, 0,15,10.00,20.00,Monday
250,28.99530331483238
251,0.0
336,2100820.1259426554
385,22.100000000000005
386,24.04
387,4.086778780311485
388,0.0
425,0.0
450,0.0
451,0.0
452,9.536387029715172
453,0.0
490,0.0
515,0.0
516,0.0
542,10801940.453041483
592,0.0
632,0.0
686,1.0
687,1.0
688,2.0
2,21, 1,21, 0,15,20.00,30.00,Monday
250,31.134581336869033
251,0.0
336,3584864.2626608363
385,22.100000000000005
386,24.04
387,4.044547551482911
388,0.0
425,0.0
450,0.0
451,0.0
452,8.664950343429314
453,0.0
490,0.0
515,0.0
516,0.0
542,10801940.453041483
592,0.0
632,0.0
686,1.0
687,1.0
688,2.0
2,21, 1,21, 0,15,30.00,40.00,Monday
250,28.825525591416415
251,0.0
336,2232349.747505375
385,22.1
386,24.04
387,4.007459436805801
388,0.0
425,0.0
450,0.0
451,0.0
452,8.079269472824029
453,0.0
490,0.0
515,0.0
516,0.0
542,10801940.453041483
592,0.0
632,0.0
686,1.0
687,1.0
688,2.0
2,21, 1,21, 0,15,40.00,50.00,Monday
250,31.767355779818462
251,0.0
336,3410906.7639285466
385,22.099999999999973
386,24.039999999999964
387,3.9704543859568537
388,0.0
425,0.0
450,0.0
451,0.0
452,7.585890629685595
453,0.0
490,0.0
515,0.0
516,0.0
542,10801940.453041483
592,0.0
632,0.0
686,0.9999999999999986
687,0.9999999999999986
688,1.9999999999999971
2,21, 1,21, 0,15,50.00,60.00,Monday
250,29.090572726356594
251,0.0
336,2099005.391747807
385,22.100000000000005
386,24.04
387,3.9353496005696056
388,0.0
425,0.0
450,0.0
451,0.0
452,7.178709329750171
453,0.0
490,0.0
515,0.0
516,0.0
542,10801940.453041483
592,0.0
632,0.0
686,1.0
687,1.0
688,2.0
2,21, 1,21, 0,16, 0.00,10.00,Monday
250,31.17613462823167
251,0.0
336,3513575.560165935
385,22.100000000000005
386,24.04
387,3.88524438152777
388,0.0
425,0.0
450,0.0
451,0.0
452,6.728286881969864
453,0.0
490,0.0
515,0.0
516,0.0
542,10801940.453041483
592,0.0
632,0.0
686,1.0
687,1.0
688,2.0
2,21, 1,21, 0,16,10.00,20.00,Monday
250,28.94182943393935
251,0.0
336,2204496.438738727
385,22.1
386,24.04
387,3.8532869847010107
388,0.0
425,0.0
450,0.0
451,0.0
452,6.487737071182573
453,0.0
490,0.0
515,0.0
516,0.0
542,10801940.453041483
592,0.0
632,0.0
686,1.0
687,1.0
688,2.0
2,21, 1,21, 0,16,20.00,30.00,Monday
250,31.765712928782897
251,0.0