Program Version,EnergyPlus, Version 24.1.0-9d7789a3ac, YMD=2025.04.05 15:39
1,5,Environment Title[],Latitude[deg],Longitude[deg],Time Zone[],Elevation[m]
2,8,Day of Simulation[],Month[],Day of Month[],DST Indicator[1=yes 0=no],Hour[],StartMinute[],EndMinute[],DayType
3,5,Cumulative Day of Simulation[],Month[],Day of Month[],DST Indicator[1=yes 0=no],DayType  ! When Daily Meters Requested
4,2,Cumulative Days of Simulation[],Month[]  ! When Monthly Meters Requested
5,1,Cumulative Days of Simulation[] ! When Run Period Meters Requested
6,1,Calendar Year of Simulation[] ! When Annual Meters Requested
11,9,Electricity:Facility [J] !Monthly [Value,Min,Day,Hour,Minute,Max,Day,Hour,Minute]
23,9,Electricity:Building [J] !Monthly [Value,Min,Day,Hour,Minute,Max,Day,Hour,Minute]
59,9,InteriorLights:Electricity [J] !Monthly [Value,Min,Day,Hour,Minute,Max,Day,Hour,Minute]
521,9,Electricity:HVAC [J] !Monthly [Value,Min,Day,Hour,Minute,Max,Day,Hour,Minute]
637,9,NaturalGas:Facility [J] !Monthly [Value,Min,Day,Hour,Minute,Max,Day,Hour,Minute]
649,9,NaturalGas:HVAC [J] !Monthly [Value,Min,Day,Hour,Minute,Max,Day,Hour,Minute]
13,11,Electricity:Facility [J] !RunPeriod [Value,Min,Month,Day,Hour,Minute,Max,Month,Day,Hour,Minute]
25,11,Electricity:Building [J] !RunPeriod [Value,Min,Month,Day,Hour,Minute,Max,Month,Day,Hour,Minute]
61,11,InteriorLights:Electricity [J] !RunPeriod [Value,Min,Month,Day,Hour,Minute,Max,Month,Day,Hour,Minute]
523,11,Electricity:HVAC [J] !RunPeriod [Value,Min,Month,Day,Hour,Minute,Max,Month,Day,Hour,Minute]
639,11,NaturalGas:Facility [J] !RunPeriod [Value,Min,Month,Day,Hour,Minute,Max,Month,Day,Hour,Minute]
651,11,NaturalGas:HVAC [J] !RunPeriod [Value,Min,Month,Day,Hour,Minute,Max,Month,Day,Hour,Minute]
End of Data Dictionary
1,RUN PERIOD 1,  41.98, -87.92,  -6.00, 201.00
4,31, 1
11,6354352922.425828,213824.6064169818,11,20,30,3140251.545025582,24, 9,20
23,1819078186.2997084,93413.17318125063,11,20,40,1025041.1942727347,31,13,60
59,956067305.5428393,29562.99646081784, 1, 1,10,591259.9292163568, 1, 8,10
521,4535274736.12614,0.0,11,13,30,2203376.3224526, 7, 1,10
637,10581424501.738007,0.0, 1, 8,40,16699131.800280657,31, 7,40
649,10581424501.738007,0.0, 1, 8,40,16699131.800280657,31, 7,40
4,59, 2
11,5137272997.817898,112412.47735037562,14,19,20,-99999999999999.0,24, 9,20
23,1603168192.4788666,99999999999999.0,11,20,40,1025342.0376295684, 4, 9,60
59,835805035.9402382,99999999999999.0, 1, 1,10,-99999999999999.0, 1, 8,10
521,3534104805.339032,99999999999999.0,11,13,30,-99999999999999.0, 7, 1,10
637,8602470592.98618,99999999999999.0, 1, 8,40,17241523.935713846, 3, 8,20
649,8602470592.98618,99999999999999.0, 1, 8,40,17241523.935713846, 3, 8,20
4,90, 3
11,4898121119.508334,29562.99646081784,31,14,50,-99999999999999.0,24, 9,20
23,1690318176.1838784,29562.99646081784,31,14,50,1033111.0091640757,18, 9,60
59,884406602.1218166,99999999999999.0, 1, 1,10,-99999999999999.0, 1, 8,10
521,3207802943.3244777,99999999999999.0,11,13,30,-99999999999999.0, 7, 1,10
637,6125044775.907896,99999999999999.0, 1, 8,40,-99999999999999.0, 3, 8,20
649,6125044775.907896,99999999999999.0, 1, 8,40,-99999999999999.0, 3, 8,20
4,120, 4
11,3241889264.033182,99999999999999.0,31,14,50,-99999999999999.0,24, 9,20
23,1636922664.411106,99999999999999.0,31,14,50,-99999999999999.0,18, 9,60
59,915979882.34197,99999999999999.0, 1, 1,10,-99999999999999.0, 1, 8,10
521,1604966599.622086,99999999999999.0,11,13,30,-99999999999999.0, 7, 1,10
637,1811294042.8417976,99999999999999.0, 1, 8,40,-99999999999999.0, 3, 8,20
649,1811294042.8417976,99999999999999.0, 1, 8,40,-99999999999999.0, 3, 8,20
4,151, 5
11,2931435553.6678524,99999999999999.0,31,14,50,-99999999999999.0,24, 9,20
23,1633926401.300799,99999999999999.0,31,14,50,-99999999999999.0,18, 9,60
59,956067305.5428393,99999999999999.0, 1, 1,10,-99999999999999.0, 1, 8,10
521,1297509152.3670852,99999999999999.0,11,13,30,-99999999999999.0, 7, 1,10
637,277461510.96636546,99999999999999.0, 1, 8,40,-99999999999999.0, 3, 8,20
649,277461510.96636546,99999999999999.0, 1, 8,40,-99999999999999.0, 3, 8,20
4,181, 6
11,3222493407.54371,99999999999999.0,31,14,50,-99999999999999.0,24, 9,20
23,1384370515.4559612,99999999999999.0,31,14,50,-99999999999999.0,18, 9,60
59,844319178.9209473,99999999999999.0, 1, 1,10,-99999999999999.0, 1, 8,10
521,1838122892.0877674,99999999999999.0,11,13,30,-99999999999999.0, 7, 1,10
637,5058307.068340577,99999999999999.0, 1, 8,40,-99999999999999.0, 3, 8,20
649,5058307.068340577,99999999999999.0, 1, 8,40,-99999999999999.0, 3, 8,20
4,212, 7
11,4181748579.6379848,99999999999999.0,31,14,50,-99999999999999.0,24, 9,20
23,1492113173.3857076,99999999999999.0,31,14,50,-99999999999999.0,18, 9,60
59,956067305.5428393,99999999999999.0, 1, 1,10,-99999999999999.0, 1, 8,10
521,2689635406.252322,99999999999999.0,11,13,30,-99999999999999.0, 7, 1,10
637,0.0,99999999999999.0, 1, 8,40,-99999999999999.0, 3, 8,20
649,0.0,99999999999999.0, 1, 8,40,-99999999999999.0, 3, 8,20
4,243, 8
11,3692064826.831433,99999999999999.0,31,14,50,-99999999999999.0,24, 9,20
23,1462957832.4375362,99999999999999.0,31,14,50,-99999999999999.0,18, 9,60
59,920236953.8323245,99999999999999.0, 1, 1,10,-99999999999999.0, 1, 8,10
521,2229106994.393902,99999999999999.0,11,13,30,-99999999999999.0, 7, 1,10
637,0.0,99999999999999.0, 1, 8,40,-99999999999999.0, 3, 8,20
649,0.0,99999999999999.0, 1, 8,40,-99999999999999.0, 3, 8,20
4,273, 9
11,2888780243.858143,99999999999999.0,31,14,50,3184189.9656428504, 3,16,10
23,1461848678.102595,99999999999999.0,31,14,50,-99999999999999.0,18, 9,60
59,880149530.6314586,99999999999999.0, 1, 1,10,-99999999999999.0, 1, 8,10
521,1426931565.7555554,99999999999999.0,11,13,30,2294100.2560842214, 3,16,10
637,5979731.558265455,99999999999999.0, 1, 8,40,-99999999999999.0, 3, 8,20
649,5979731.558265455,99999999999999.0, 1, 8,40,-99999999999999.0, 3, 8,20
4,304,10
11,2759405385.1920657,99999999999999.0,31,14,50,-99999999999999.0, 3,16,10
23,1675788615.1003916,99999999999999.0,31,14,50,-99999999999999.0,18, 9,60
59,956067305.5428393,99999999999999.0, 1, 1,10,-99999999999999.0, 1, 8,10
521,1083616770.0916836,99999999999999.0,11,13,30,-99999999999999.0, 3,16,10
637,759100033.2583405,99999999999999.0, 1, 8,40,-99999999999999.0, 3, 8,20
649,759100033.2583405,99999999999999.0, 1, 8,40,-99999999999999.0, 3, 8,20
4,334,11
11,4282728133.816614,99999999999999.0,31,14,50,-99999999999999.0, 3,16,10
23,1633439801.5410411,99999999999999.0,31,14,50,-99999999999999.0,18, 9,60
59,880149530.6314621,99999999999999.0, 1, 1,10,-99999999999999.0, 1, 8,10
521,2649288332.27559,99999999999999.0,11,13,30,-99999999999999.0, 3,16,10
637,4783597072.012136,99999999999999.0, 1, 8,40,-99999999999999.0, 3, 8,20
649,4783597072.012136,99999999999999.0, 1, 8,40,-99999999999999.0, 3, 8,20
4,365,12
11,5185797751.583827,99999999999999.0,31,14,50,-99999999999999.0, 3,16,10
23,1720809994.7610207,99999999999999.0,31,14,50,-99999999999999.0,18, 9,60
59,920236953.832328,99999999999999.0, 1, 1,10,-99999999999999.0, 1, 8,10
521,3464987756.8227873,99999999999999.0,11,13,30,-99999999999999.0, 3,16,10
637,6714444352.637702,99999999999999.0, 1, 8,40,-99999999999999.0, 3, 8,20
649,6714444352.637702,99999999999999.0, 1, 8,40,-99999999999999.0, 3, 8,20
5,365
13,48776090185.91628,29562.99646081784, 3,31,14,50,3184189.9656428504, 9, 3,16,10
25,19214742231.45566,29562.99646081784, 3,31,14,50,1033111.0091640757, 3,18, 9,60
61,10905552890.42054,29562.99646081784, 1, 1, 1,10,591259.9292163568, 1, 1, 8,10
523,29561347954.458694,0.0, 1,11,13,30,2294100.2560842214, 9, 3,16,10
639,39665874920.974945,0.0, 1, 1, 8,40,17241523.935713846, 2, 3, 8,20
651,39665874920.974945,0.0, 1, 1, 8,40,17241523.935713846, 2, 3, 8,20
End of Data
 Number of Records Written=          78
