Program Version,EnergyPlus, Version 24.2.0-94a887817b, YMD=2025.02.12 11:47
1,5,Environment Title[],Latitude[deg],Longitude[deg],Time Zone[],Elevation[m]
2,8,Day of Simulation[],Month[],Day of Month[],DST Indicator[1=yes 0=no],Hour[],StartMinute[],EndMinute[],DayType
3,5,Cumulative Day of Simulation[],Month[],Day of Month[],DST Indicator[1=yes 0=no],DayType  ! When Daily Meters Requested
4,2,Cumulative Days of Simulation[],Month[]  ! When Monthly Meters Requested
5,1,Cumulative Days of Simulation[] ! When Run Period Meters Requested
6,1,Calendar Year of Simulation[] ! When Annual Meters Requested
11,9,Electricity:Facility [J] !Monthly [Value,Min,Day,Hour,Minute,Max,Day,Hour,Minute]
23,9,Electricity:Building [J] !Monthly [Value,Min,Day,Hour,Minute,Max,Day,Hour,Minute]
59,9,InteriorLights:Electricity [J] !Monthly [Value,Min,Day,Hour,Minute,Max,Day,Hour,Minute]
521,9,Electricity:HVAC [J] !Monthly [Value,Min,Day,Hour,Minute,Max,Day,Hour,Minute]
637,9,NaturalGas:Facility [J] !Monthly [Value,Min,Day,Hour,Minute,Max,Day,Hour,Minute]
649,9,NaturalGas:HVAC [J] !Monthly [Value,Min,Day,Hour,Minute,Max,Day,Hour,Minute]
13,11,Electricity:Facility [J] !RunPeriod [Value,Min,Month,Day,Hour,Minute,Max,Month,Day,Hour,Minute]
25,11,Electricity:Building [J] !RunPeriod [Value,Min,Month,Day,Hour,Minute,Max,Month,Day,Hour,Minute]
61,11,InteriorLights:Electricity [J] !RunPeriod [Value,Min,Month,Day,Hour,Minute,Max,Month,Day,Hour,Minute]
523,11,Electricity:HVAC [J] !RunPeriod [Value,Min,Month,Day,Hour,Minute,Max,Month,Day,Hour,Minute]
639,11,NaturalGas:Facility [J] !RunPeriod [Value,Min,Month,Day,Hour,Minute,Max,Month,Day,Hour,Minute]
651,11,NaturalGas:HVAC [J] !RunPeriod [Value,Min,Month,Day,Hour,Minute,Max,Month,Day,Hour,Minute]
End of Data Dictionary
1,RUN PERIOD 1,  41.98, -87.92,  -6.00, 201.00
4,31, 1
11,9121391171.989979,276299.4454224237,11,19,50,3508739.65558462,23,13,40
23,1862004411.8430648,107752.63616085603,11,20,60,1026189.6602879562,31,13,60
59,920178627.1709065,28453.26614628605, 1, 1,10,569065.322925721, 1, 8,10
521,7259386760.146933,0.0,11,13,60,2573870.3728012173,27,20,10
637,16362423130.734993,0.0, 1,10,40,20126826.041247196,31, 7,30
649,16362423130.734993,0.0, 1,10,40,20126826.041247196,31, 7,30
4,59, 2
11,7497231788.40251,267902.0284827951, 9,14,30,3515896.13522569,21,12,30
23,1642593374.2770553,99999999999999.0,11,20,60,-99999999999999.0,31,13,60
59,804430740.4878129,99999999999999.0, 1, 1,10,-99999999999999.0, 1, 8,10
521,5854638414.125483,99999999999999.0,11,13,60,-99999999999999.0,27,20,10
637,13416265571.132612,99999999999999.0, 1,10,40,21138650.063200824, 3, 7,60
649,13416265571.132612,99999999999999.0, 1,10,40,21138650.063200824, 3, 7,60
4,90, 3
11,7465869310.167417,91765.71006038136,31,16,60,-99999999999999.0,21,12,30
23,1732303957.938667,91765.71006038136,31,16,60,1035063.7746017748,18, 9,60
59,851207910.0323108,99999999999999.0, 1, 1,10,-99999999999999.0, 1, 8,10
521,5733565352.228745,99999999999999.0,11,13,60,-99999999999999.0,27,20,10
637,10009056317.27052,99999999999999.0, 1,10,40,-99999999999999.0, 3, 7,60
649,10009056317.27052,99999999999999.0, 1,10,40,-99999999999999.0, 3, 7,60
4,120, 4
11,4425506160.008678,28453.26614628605,12,19,10,-99999999999999.0,21,12,30
23,1663941349.91458,28453.26614628605,11,19,10,-99999999999999.0,18, 9,60
59,881595998.2765436,99999999999999.0, 1, 1,10,-99999999999999.0, 1, 8,10
521,2761564810.0941143,99999999999999.0,11,13,60,-99999999999999.0,27,20,10
637,4124551253.8354173,99999999999999.0, 1,10,40,-99999999999999.0, 3, 7,60
649,4124551253.8354173,99999999999999.0, 1,10,40,-99999999999999.0, 3, 7,60
4,151, 5
11,3244475123.0213037,99999999999999.0,12,19,10,-99999999999999.0,21,12,30
23,1640738904.0515878,99999999999999.0,11,19,10,-99999999999999.0,18, 9,60
59,920178627.1709099,99999999999999.0, 1, 1,10,-99999999999999.0, 1, 8,10
521,1603736218.9696863,99999999999999.0,11,13,60,-99999999999999.0,27,20,10
637,1029384622.0553164,99999999999999.0, 1,10,40,-99999999999999.0, 3, 7,60
649,1029384622.0553164,99999999999999.0, 1,10,40,-99999999999999.0, 3, 7,60
4,181, 6
11,3049916376.7124133,99999999999999.0,12,19,10,-99999999999999.0,21,12,30
23,1383545448.6509886,99999999999999.0,11,19,10,-99999999999999.0,18, 9,60
59,812625281.1379476,99999999999999.0, 1, 1,10,-99999999999999.0, 1, 8,10
521,1666370928.0614142,99999999999999.0,11,13,60,-99999999999999.0,27,20,10
637,58623653.66808794,99999999999999.0, 1,10,40,-99999999999999.0, 3, 7,60
649,58623653.66808794,99999999999999.0, 1,10,40,-99999999999999.0, 3, 7,60
4,212, 7
11,3870314642.5500674,99999999999999.0,12,19,10,-99999999999999.0,21,12,30
23,1483706560.9581647,99999999999999.0,11,19,10,-99999999999999.0,18, 9,60
59,920178627.1709065,99999999999999.0, 1, 1,10,-99999999999999.0, 1, 8,10
521,2386608081.5918536,99999999999999.0,11,13,60,-99999999999999.0,27,20,10
637,1336880.0101627894,99999999999999.0, 1,10,40,-99999999999999.0, 3, 7,60
649,1336880.0101627894,99999999999999.0, 1,10,40,-99999999999999.0, 3, 7,60
4,243, 8
11,3427328067.9751987,99999999999999.0,12,19,10,-99999999999999.0,21,12,30
23,1460163055.8518243,99999999999999.0,11,19,10,-99999999999999.0,18, 9,60
59,885693268.6016145,99999999999999.0, 1, 1,10,-99999999999999.0, 1, 8,10
521,1967165012.1233666,99999999999999.0,11,13,60,-99999999999999.0,27,20,10
637,15775858.706740871,99999999999999.0, 1,10,40,-99999999999999.0, 3, 7,60
649,15775858.706740871,99999999999999.0, 1,10,40,-99999999999999.0, 3, 7,60
4,273, 9
11,2775955896.9038386,99999999999999.0,12,19,10,-99999999999999.0,21,12,30
23,1461428226.5582726,99999999999999.0,11,19,10,-99999999999999.0,18, 9,60
59,847110639.7072456,99999999999999.0, 1, 1,10,-99999999999999.0, 1, 8,10
521,1314527670.3455591,99999999999999.0,11,13,60,-99999999999999.0,27,20,10
637,78853604.0260919,99999999999999.0, 1,10,40,-99999999999999.0, 3, 7,60
649,78853604.0260919,99999999999999.0, 1,10,40,-99999999999999.0, 3, 7,60
4,304,10
11,3525932478.8949404,99999999999999.0,12,19,10,-99999999999999.0,21,12,30
23,1691438242.7745583,99999999999999.0,11,19,10,-99999999999999.0,18, 9,60
59,920178627.1709065,99999999999999.0, 1, 1,10,-99999999999999.0, 1, 8,10
521,1834494236.120368,99999999999999.0,11,13,60,-99999999999999.0,27,20,10
637,2190368011.374551,99999999999999.0, 1,10,40,-99999999999999.0, 3, 7,60
649,2190368011.374551,99999999999999.0, 1,10,40,-99999999999999.0, 3, 7,60
4,334,11
11,6169961014.810027,99999999999999.0,12,19,10,-99999999999999.0,21,12,30
23,1669044345.5918818,99999999999999.0,11,19,10,-99999999999999.0,18, 9,60
59,847110639.7072433,99999999999999.0, 1, 1,10,-99999999999999.0, 1, 8,10
521,4500916669.218152,99999999999999.0,11,13,60,-99999999999999.0,27,20,10
637,8397398304.357989,99999999999999.0, 1,10,40,-99999999999999.0, 3, 7,60
649,8397398304.357989,99999999999999.0, 1,10,40,-99999999999999.0, 3, 7,60
4,365,12
11,7875370561.732154,99999999999999.0,12,19,10,-99999999999999.0,21,12,30
23,1760350782.7608278,99999999999999.0,11,19,10,-99999999999999.0,18, 9,60
59,885693268.6016085,99999999999999.0, 1, 1,10,-99999999999999.0, 1, 8,10
521,6115019778.971328,99999999999999.0,11,13,60,-99999999999999.0,27,20,10
637,10351117450.447458,99999999999999.0, 1,10,40,-99999999999999.0, 3, 7,60
649,10351117450.447458,99999999999999.0, 1,10,40,-99999999999999.0, 3, 7,60
5,365
13,62449252593.16733,28453.26614628605, 4,12,19,10,3515896.13522569, 2,21,12,30
25,19451258661.167984,28453.26614628605, 4,11,19,10,1035063.7746017748, 3,18, 9,60
61,10496182255.23396,28453.26614628605, 1, 1, 1,10,569065.322925721, 1, 1, 8,10
523,42997993931.99683,0.0, 1,11,13,60,2573870.3728012173, 1,27,20,10
639,66035154657.620224,0.0, 1, 1,10,40,21138650.063200824, 2, 3, 7,60
651,66035154657.620224,0.0, 1, 1,10,40,21138650.063200824, 2, 3, 7,60
1,RUN PERIOD 2,  41.98, -87.92,  -6.00, 201.00
4,1, 7
11,115025396.11888911,99999999999999.0,12,19,10,-99999999999999.0,21,12,30
23,62452739.72542716,99999999999999.0,11,19,10,-99999999999999.0,18, 9,60
59,38582628.8943639,99999999999999.0, 1, 1,10,-99999999999999.0, 1, 8,10
521,52572656.39346201,99999999999999.0,11,13,60,-99999999999999.0,27,20,10
637,0.0,99999999999999.0, 1,10,40,-99999999999999.0, 3, 7,60
649,0.0,99999999999999.0, 1,10,40,-99999999999999.0, 3, 7,60
5,1
13,115025396.11888911,99999999999999.0, 4,12,19,10,-99999999999999.0, 2,21,12,30
25,62452739.72542716,99999999999999.0, 4,11,19,10,-99999999999999.0, 3,18, 9,60
61,38582628.8943639,99999999999999.0, 1, 1, 1,10,-99999999999999.0, 1, 1, 8,10
523,52572656.39346201,99999999999999.0, 1,11,13,60,-99999999999999.0, 1,27,20,10
639,0.0,99999999999999.0, 1, 1,10,40,-99999999999999.0, 2, 3, 7,60
651,0.0,99999999999999.0, 1, 1,10,40,-99999999999999.0, 2, 3, 7,60
End of Data
 Number of Records Written=          90
