Program Version,EnergyPlus, Version 24.2.0-94a887817b, YMD=2025.02.04 17:10
1,5,Environment Title[],Latitude[deg],Longitude[deg],Time Zone[],Elevation[m]
2,8,Day of Simulation[],Month[],Day of Month[],DST Indicator[1=yes 0=no],Hour[],StartMinute[],EndMinute[],DayType
3,5,Cumulative Day of Simulation[],Month[],Day of Month[],DST Indicator[1=yes 0=no],DayType  ! When Daily Report Variables Requested
4,2,Cumulative Days of Simulation[],Month[]  ! When Monthly Report Variables Requested
5,1,Cumulative Days of Simulation[] ! When Run Period Report Variables Requested
6,1,Calendar Year of Simulation[] ! When Annual Report Variables Requested
250,1,LIVING ZONE,Zone Air Temperature [C] !TimeStep,REPORTSCH
251,1,LIVING ZONE,Zone Air System Sensible Heating Energy [J] !TimeStep,REPORTSCH
336,1,LIVING ZONE,Zone Air System Sensible Cooling Energy [J] !TimeStep,REPORTSCH
385,1,LIVING ZONE,Zone Thermostat Heating Setpoint Temperature [C] !TimeStep,REPORTSCH
386,1,LIVING ZONE,Zone Thermostat Cooling Setpoint Temperature [C] !TimeStep,REPORTSCH
387,1,GARAGE ZONE,Zone Air Temperature [C] !TimeStep,REPORTSCH
388,1,GARAGE ZONE,Zone Air System Sensible Heating Energy [J] !TimeStep,REPORTSCH
425,1,GARAGE ZONE,Zone Air System Sensible Cooling Energy [J] !TimeStep,REPORTSCH
450,1,GARAGE ZONE,Zone Thermostat Heating Setpoint Temperature [C] !TimeStep,REPORTSCH
451,1,GARAGE ZONE,Zone Thermostat Cooling Setpoint Temperature [C] !TimeStep,REPORTSCH
452,1,ATTIC ZONE,Zone Air Temperature [C] !TimeStep,REPORTSCH
453,1,ATTIC ZONE,Zone Air System Sensible Heating Energy [J] !TimeStep,REPORTSCH
490,1,ATTIC ZONE,Zone Air System Sensible Cooling Energy [J] !TimeStep,REPORTSCH
515,1,ATTIC ZONE,Zone Thermostat Heating Setpoint Temperature [C] !TimeStep,REPORTSCH
516,1,ATTIC ZONE,Zone Thermostat Cooling Setpoint Temperature [C] !TimeStep,REPORTSCH
542,1,ACDXCOIL 1,Cooling Coil Total Cooling Energy [J] !TimeStep,REPORTSCH
592,1,HEAT PUMP DX HEATING COIL 1,Heating Coil Heating Energy [J] !TimeStep,REPORTSCH
632,1,SUPP HEATING COIL 1,Heating Coil Heating Energy [J] !TimeStep,REPORTSCH
686,1,TWOSPEED HEAT PUMP 1,Unitary System DX Coil Cycling Ratio [] !TimeStep,REPORTSCH
687,1,TWOSPEED HEAT PUMP 1,Unitary System DX Coil Speed Ratio [] !TimeStep,REPORTSCH
688,1,TWOSPEED HEAT PUMP 1,Unitary System DX Coil Speed Level [] !TimeStep,REPORTSCH
End of Data Dictionary
1,YEARSIMULATION,  41.98, -87.92,  -6.00, 201.00
2,21, 1,21, 0, 1, 0.00,10.00,Sunday
250,23.095236020764705
251,6093880.550356558
336,0.0
385,22.87666666666667
386,26.57
387,0.6415961274652042
388,0.0
425,0.0
450,0.0
451,0.0
452,-1.6096300167778683
453,0.0
490,0.0
515,0.0
516,0.0
542,0.0
592,2662270.2178554926
632,3339881.9868706367
686,0.5634327563959955
687,0.5
688,1.1666666666666667
2,21, 1,21, 0, 1,10.00,20.00,Sunday
250,23.50626308958459
251,5978483.531193297
336,0.0
385,23.543333333333337
386,26.57
387,0.6153484524426981
388,0.0
425,0.0
450,0.0
451,0.0
452,-1.599264861036894
453,0.0
490,0.0
515,0.0
516,0.0
542,0.0
592,3495272.978074095
632,2428712.161239308
686,0.7392934765756141
687,0.6666666666666667
688,1.6666666666666667
2,21, 1,21, 0, 1,20.00,30.00,Sunday
250,23.74311254641013
251,7210571.947235585
336,0.0
385,24.21
386,26.57
387,0.5845772241325311
388,0.0
425,0.0
450,0.0
451,0.0
452,-1.5889416496766529
453,0.0
490,0.0
515,0.0
516,0.0
542,0.0
592,4847197.582317379
632,2902586.1472910843
686,1.0
687,1.0
688,2.0
2,21, 1,21, 0, 1,30.00,40.00,Sunday
250,24.165709044561865
251,8316236.676910467
336,0.0
385,24.21
386,26.57
387,0.5578910246491768
388,0.0
425,0.0
450,0.0
451,0.0
452,-1.5826108775970011
453,0.0
490,0.0
515,0.0
516,0.0
542,0.0
592,4828658.377228091
632,3351004.926264447
686,1.0
687,1.0
688,2.0
2,21, 1,21, 0, 1,40.00,50.00,Sunday
250,23.091414314909297
251,6168350.570360135
336,0.0
385,22.876666666666637
386,26.569999999999965
387,0.5356989795324518
388,0.0
425,0.0
450,0.0
451,0.0
452,-1.579872578124232
453,0.0
490,0.0
515,0.0
516,0.0
542,0.0
592,2643120.010607144
632,3434632.8669871185
686,0.5678645770924724
687,0.49999999999999933
688,1.166666666666665
2,21, 1,21, 0, 1,50.00,60.00,Sunday
250,23.507665945488895
251,6057852.633091534
336,0.0
385,23.543333333333354
386,26.57000000000002
387,0.5121548170744956
388,0.0
425,0.0
450,0.0
451,0.0
452,-1.578230856573291
453,0.0
490,0.0
515,0.0
516,0.0
542,0.0
592,3473376.3012091033
632,2523507.8999477886
686,0.7461125608517438
687,0.6666666666666672
688,1.6666666666666679
2,21, 1,21, 0, 2, 0.00,10.00,Sunday
250,23.74506496234373
251,7269525.373835212
336,0.0
385,24.21
386,26.57
387,0.48369782630471214
388,0.0
425,0.0
450,0.0
451,0.0
452,-1.57832645585209
453,0.0
490,0.0
515,0.0
516,0.0
542,0.0
592,4799717.255176813
632,3007693.5020819143
686,1.0
687,1.0
688,2.0
2,21, 1,21, 0, 2,10.00,20.00,Sunday
250,24.165931836736167
251,8361118.760918174
336,0.0
385,24.21
386,26.57
387,0.45840179753430016
388,0.0
425,0.0
450,0.0
451,0.0
452,-1.5819167109214902
453,0.0
490,0.0
515,0.0
516,0.0
542,0.0
592,4797025.276005209
632,3427023.244502686
686,1.0
687,1.0
688,2.0
2,21, 1,21, 0, 2,20.00,30.00,Sunday
250,23.089938921237998
251,6197073.831642043
336,0.0
385,22.876666666666686
386,26.570000000000025
387,0.43676150272970177
388,0.0
425,0.0
450,0.0
451,0.0
452,-1.5894585955237193
453,0.0
490,0.0
515,0.0
516,0.0
542,0.0
592,2640136.7102714134
632,3466791.4775370522
686,0.569511208649597
687,0.5000000000000004
688,1.1666666666666674
2,21, 1,21, 0, 2,30.00,40.00,Sunday
250,23.507868058897063
251,6074462.342694281
336,0.0
385,23.543333333333354
386,26.57000000000002
387,0.41338259688084555
388,0.0
425,0.0
450,0.0
451,0.0
452,-1.600527269816976
453,0.0
490,0.0
515,0.0
516,0.0
542,0.0
592,3477338.4605929027
632,2535231.1224701754
686,0.7472568868022875
687,0.6666666666666672
688,1.6666666666666679
2,21, 1,21, 0, 2,40.00,50.00,Sunday
250,23.745588371820066
251,7283535.999289277
336,0.0
385,24.21
386,26.57
387,0.38464584490680753
388,0.0
425,0.0
450,0.0
451,0.0
452,-1.6164785112750046
453,0.0
490,0.0
515,0.0
516,0.0
542,0.0
592,4799716.945647066
632,3021634.5974150836
686,1.0
687,1.0
688,2.0
2,21, 1,21, 0, 2,50.00,60.00,Sunday
250,24.165993002685816
251,8373377.564138262
336,0.0
385,24.21
386,26.57
387,0.35883045108311284
388,0.0
425,0.0
450,0.0
451,0.0
452,-1.6330742378347245
453,0.0
490,0.0
515,0.0
516,0.0
542,0.0
592,4797025.276005209
632,3439152.989828119
686,1.0
687,1.0
688,2.0
2,21, 1,21, 0, 3, 0.00,10.00,Sunday
250,23.088824892339968
251,6218338.358498568
336,0.0
385,22.87666666666667
386,26.57
387,0.33708882618398267
388,0.0
425,0.0
450,0.0
451,0.0
452,-1.6476990568788985
453,0.0
490,0.0
515,0.0
516,0.0
542,0.0
592,2643889.2535860464
632,3484669.7122930214
686,0.5705946946040577
687,0.5
688,1.1666666666666667
2,21, 1,21, 0, 3,10.00,20.00,Sunday
250,23.508419165810746
251,6108820.106672367
336,0.0
385,23.543333333333337
386,26.57
387,0.31432415085755977
388,0.0
425,0.0
450,0.0
451,0.0
452,-1.6595863348743067
453,0.0
490,0.0
515,0.0
516,0.0
542,0.0
592,3486358.6784718633
632,2558049.9501350163
686,0.7498627640243515
687,0.6666666666666667
688,1.6666666666666667
2,21, 1,21, 0, 3,20.00,30.00,Sunday
250,23.74655849589978
251,7326969.449092652
336,0.0
385,24.21
386,26.57
387,0.28731294892419434
388,0.0
425,0.0
450,0.0
451,0.0
452,-1.6674228340038333
453,0.0
490,0.0
515,0.0
516,0.0
542,0.0
592,4799716.20154642
632,3064692.6656987714
686,1.0
687,1.0
688,2.0
2,21, 1,21, 0, 3,30.00,40.00,Sunday
250,24.166121074656584
251,8427524.802134262
336,0.0
385,24.21
386,26.57
387,0.26428161614188983
388,0.0
425,0.0
450,0.0
451,0.0
452,-1.6679754588296007
453,0.0
490,0.0
515,0.0
516,0.0
542,0.0
592,4797025.2760052085
632,3493054.1677645845
686,1.0
687,1.0
688,2.0
2,21, 1,21, 0, 3,40.00,50.00,Sunday
250,23.08611424889848
251,6269945.308114555
336,0.0
385,22.876666666666637
386,26.569999999999965
387,0.24579005433661308
388,0.0
425,0.0
450,0.0
451,0.0
452,-1.663503356724637
453,0.0
490,0.0
515,0.0
516,0.0
542,0.0
592,2652922.7565877917
632,3528135.95438975
686,0.5732029753492788
687,0.49999999999999933
688,1.166666666666665
2,21, 1,21, 0, 3,50.00,60.00,Sunday
250,23.509256855743402
251,6163456.697630018
336,0.0
385,23.543333333333354
386,26.57000000000002
387,0.2268246694806243
388,0.0
425,0.0
450,0.0
451,0.0
452,-1.6559654976416414
453,0.0
490,0.0
515,0.0
516,0.0
542,0.0
592,3500965.5974170975
632,2594166.3836528957
686,0.7540823279179377
687,0.6666666666666672
688,1.6666666666666679
2,21, 1,21, 0, 4, 0.00,10.00,Sunday
250,23.748214660933943
251,7443714.793382602
336,0.0
385,24.21
386,26.57
387,0.20019912006708618
388,0.0
425,0.0
450,0.0
451,0.0
452,-1.645874217963667
453,0.0
490,0.0
515,0.0
516,0.0
542,0.0
592,4795142.248323202
632,3185421.0517048403
686,1.0
687,1.0
688,2.0
2,21, 1,21, 0, 4,10.00,20.00,Sunday
250,24.166370207914376
251,8613015.158615803
336,0.0
385,24.21
386,26.57
387,0.17212558667750882
388,0.0
425,0.0
450,0.0
451,0.0
452,-1.6385454550629825
453,0.0
490,0.0
515,0.0
516,0.0
542,0.0
592,4787110.239197661
632,3688038.8215555875
686,1.0
687,1.0
688,2.0
2,21, 1,21, 0, 4,20.00,30.00,Sunday
250,23.07275297625552
251,6522975.121664985
336,0.0
385,22.876666666666686
386,26.570000000000025
387,0.1449369902930458
388,0.0
425,0.0
450,0.0
451,0.0
452,-1.6359654012739488
453,0.0
490,0.0
515,0.0
516,0.0
542,0.0
592,2689499.6466516936
632,3748993.0415585097
686,0.5862348294061479
687,0.5000000000000004
688,1.1666666666666674
2,21, 1,21, 0, 4,30.00,40.00,Sunday
250,23.514954175965592
251,6508922.779152072
336,0.0
385,23.543333333333354
386,26.57000000000002
387,0.11435439215087848
388,0.0
425,0.0
450,0.0
451,0.0
452,-1.6372343357207746
453,0.0
490,0.0
515,0.0
516,0.0
542,0.0
592,3583334.7982665137
632,2830411.86882736
686,0.7824684900689408
687,0.6666666666666672
688,1.6666666666666679
2,21, 1,21, 0, 4,40.00,50.00,Sunday
250,23.754971792047762
251,7758335.9414832955
336,0.0
385,24.21
386,26.57
387,0.07541221204168737
388,0.0
425,0.0
450,0.0
451,0.0
452,-1.6438227613756669
453,0.0
490,0.0
515,0.0
516,0.0
542,0.0
592,4775283.285682361
632,3513507.3894674866
686,1.0
687,1.0
688,2.0
2,21, 1,21, 0, 4,50.00,60.00,Sunday
250,24.16716195995087
251,8936888.70299478
336,0.0
385,24.21
386,26.57
387,0.03931952152440232
388,0.0
425,0.0
450,0.0
451,0.0
452,-1.6536928654681518
453,0.0
490,0.0
515,0.0
516,0.0
542,0.0
592,4765435.086161591
632,4031828.1014057295
686,1.0
687,1.0
688,2.0
2,21, 1,21, 0, 5, 0.00,10.00,Sunday
250,23.061737931131823
251,6732522.4442971805
336,0.0
385,22.87666666666667
386,26.57
387,0.01642979989289056
388,0.0
425,0.0
450,0.0
451,0.0
452,-1.6612464886330929
453,0.0
490,0.0
515,0.0
516,0.0
542,0.0
592,2715014.4645758593
632,3936650.180100143
686,0.5973054566481218
687,0.5
688,1.1666666666666667
2,21, 1,21, 0, 5,10.00,20.00,Sunday
250,23.516387378097544
251,6616015.261996253
336,0.0
385,23.543333333333337
386,26.57
387,-0.0012321129004749097
388,0.0
425,0.0
450,0.0
451,0.0
452,-1.6637188775251164
453,0.0
490,0.0
515,0.0
516,0.0
542,0.0
592,3596662.5057918597
632,2917106.6421574694
686,0.7913473779272984
687,0.6666666666666667
688,1.6666666666666667
2,21, 1,21, 0, 5,20.00,30.00,Sunday
250,23.756700403957804
251,7735572.7076467555
336,0.0
385,24.21
386,26.57
387,-0.016943262181045374
388,0.0
425,0.0
450,0.0
451,0.0
452,-1.6576695833536466
453,0.0
490,0.0
515,0.0
516,0.0
542,0.0
592,4750913.301343188
632,3512947.7757567666
686,1.0
687,1.0
688,2.0
2,21, 1,21, 0, 5,30.00,40.00,Sunday
250,24.16729461852473
251,8801798.337161232
336,0.0
385,24.21
386,26.57
387,-0.026785146935237057
388,0.0
425,0.0
450,0.0
451,0.0
452,-1.6426226735991474
453,0.0
490,0.0
515,0.0
516,0.0
542,0.0
592,4740495.740094985
632,3921216.791768168
686,1.0
687,1.0
688,2.0
2,21, 1,21, 0, 5,40.00,50.00,Sunday
250,23.06899953446083
251,6595496.88722966
336,0.0
385,22.876666666666637
386,26.569999999999965
387,-0.03137617894253901
388,0.0
425,0.0
450,0.0
451,0.0
452,-1.620879246471969
453,0.0
490,0.0
515,0.0
516,0.0
542,0.0
592,2677656.2057414567
632,3834471.193210934
686,0.5907773889041142
687,0.49999999999999933
688,1.166666666666665
2,21, 1,21, 0, 5,50.00,60.00,Sunday
250,23.514148713981196
251,6468798.606769745
336,0.0
385,23.543333333333354
386,26.57000000000002
387,-0.03408112416364677
388,0.0
425,0.0
450,0.0
451,0.0
452,-1.5924850799259929
453,0.0
490,0.0
515,0.0
516,0.0
542,0.0
592,3535436.864683787
632,2841869.488361156
686,0.7795002874112716
687,0.6666666666666672
688,1.6666666666666679
2,21, 1,21, 0, 6, 0.00,10.00,Sunday
250,23.754748948467622
251,7691410.787796925
336,0.0
385,24.21
386,26.57
387,-0.04358552254427557
388,0.0
425,0.0
450,0.0
451,0.0
452,-1.560383170541508
453,0.0
490,0.0
515,0.0
516,0.0
542,0.0
592,4724360.0506676
632,3498506.559095461
686,1.0
687,1.0
688,2.0
2,21, 1,21, 0, 6,10.00,20.00,Sunday
250,24.16712796151111
251,8840280.107197814
336,0.0
385,24.21
386,26.57
387,-0.06032396726158416
388,0.0
425,0.0
450,0.0
451,0.0
452,-1.5427886019419663
453,0.0
490,0.0
515,0.0
516,0.0
542,0.0
592,4717184.630480874
632,3983538.122250335
686,1.0
687,1.0
688,2.0
2,21, 1,21, 0, 6,20.00,30.00,Sunday
250,23.062395408381036
251,6720364.367733261
336,0.0
385,22.876666666666686
386,26.570000000000025
387,-0.08090809431503013
388,0.0
425,0.0
450,0.0
451,0.0
452,-1.5420113386467968
453,0.0
490,0.0
515,0.0
516,0.0
542,0.0
592,2689205.1199384322
632,3949953.1893112296
686,0.5975891811390022
687,0.5000000000000004
688,1.1666666666666674
2,21, 1,21, 0, 6,30.00,40.00,Sunday
250,23.518059920326206
251,6695903.202259319
336,0.0
385,23.543333333333354
386,26.57000000000002
387,-0.10583248129697867
388,0.0
425,0.0
450,0.0
451,0.0
452,-1.5513743639904902
453,0.0
490,0.0
515,0.0
516,0.0
542,0.0
592,3587605.503339327
632,2998386.577949553
686,0.7988431533620555
687,0.6666666666666672
688,1.6666666666666679
2,21, 1,21, 0, 6,40.00,50.00,Sunday
250,23.7589792784029
251,7899733.649094534
336,0.0
385,24.21
386,26.57
387,-0.13944111721213812
388,0.0
425,0.0
450,0.0
451,0.0
452,-1.5729407482170632
453,0.0
490,0.0
515,0.0
516,0.0
542,0.0
592,4707633.564936389
632,3719168.4586109836
686,1.0
687,1.0
688,2.0
2,21, 1,21, 0, 6,50.00,60.00,Sunday
250,24.167609470166262
251,9053339.776146412
336,0.0
385,24.21
386,26.57
387,-0.17176366579063437
388,0.0
425,0.0
450,0.0
451,0.0
452,-1.6010325685654834
453,0.0
490,0.0
515,0.0
516,0.0
542,0.0
592,4698633.73356445
632,4214051.709329646
686,1.0
687,1.0
688,2.0
2,21, 1,21, 0, 7, 0.00,10.00,Sunday
250,23.053157528122867
251,6895327.828786176
336,0.0
385,22.87666666666667
386,26.57
387,-0.20537685996864324
388,0.0
425,0.0
450,0.0
451,0.0
452,-1.6460601012543008
453,0.0
490,0.0
515,0.0
516,0.0
542,0.0
592,2723583.6498455275
632,4093669.3840023805
686,0.6064977998180812
687,0.5
688,1.1666666666666667
2,21, 1,21, 0, 7,10.00,20.00,Sunday
250,23.52010958168828
251,6843252.607323547
336,0.0
385,23.543333333333337
386,26.57
387,-0.24848484711265917
388,0.0
425,0.0
450,0.0
451,0.0
452,-1.7264337742873828
453,0.0
490,0.0
515,0.0
516,0.0
542,0.0
592,3651499.2085520877
632,3071896.472391697
686,0.8104053499966655
687,0.6666666666666667
688,1.6666666666666667
2,21, 1,21, 0, 7,20.00,30.00,Sunday
250,23.761111293022548
251,7988973.036948714
336,0.0
385,24.21
386,26.57
387,-0.3099372005498156
388,0.0
425,0.0
450,0.0
451,0.0
452,-1.863045782625642
453,0.0
490,0.0
515,0.0
516,0.0
542,0.0
592,4766612.878688122
632,3746539.389431419
686,1.0
687,1.0
688,2.0
2,21, 1,21, 0, 7,30.00,40.00,Sunday
250,24.167808863498383
251,9108952.649595948
336,0.0
385,24.21
386,26.57
387,-0.3725083253339596
388,0.0
425,0.0
450,0.0
451,0.0
452,-2.024982488150151
453,0.0
490,0.0
515,0.0
516,0.0
542,0.0
592,4781101.268487237
632,4186621.2914035385
686,1.0
687,1.0
688,2.0
2,21, 1,21, 0, 7,40.00,50.00,Sunday
250,23.05006767812096
251,6952600.389197949
336,0.0
385,22.876666666666637
386,26.569999999999965
387,-0.43417722224586486
388,0.0
425,0.0
450,0.0
451,0.0
452,-2.20530923828501
453,0.0
490,0.0
515,0.0
516,0.0
542,0.0
592,2774240.9893390844
632,4101564.699024673
686,0.6078091160850292
687,0.49999999999999933
688,1.166666666666665
2,21, 1,21, 0, 7,50.00,60.00,Sunday
250,23.5206608879661
251,6903692.08103509
336,0.0
385,23.543333333333354
386,26.57000000000002
387,-0.5067460021539655
388,0.0
425,0.0
450,0.0
451,0.0
452,-2.424991105640773
453,0.0
490,0.0
515,0.0
516,0.0
542,0.0
592,3722193.892973285
632,3058914.314215827
686,0.8136782188810565
687,0.6666666666666672
688,1.6666666666666679
2,21, 1,21, 0, 8, 0.00,10.00,Sunday
250,23.761818296763845
251,8038607.969782508
336,0.0
385,24.21
386,26.57
387,-0.5929792383738561
388,0.0
425,0.0
450,0.0
451,0.0
452,-2.6894486523922514
453,0.0
490,0.0
515,0.0
516,0.0
542,0.0
592,4835449.780582571
632,3726399.7277732566
686,1.0
687,1.0
688,2.0
2,21, 1,21, 0, 8,10.00,20.00,Sunday
250,24.167890773336687
251,9095275.148220833
336,0.0
385,24.21
386,26.57
387,-0.6552757266439145
388,0.0
425,0.0
450,0.0
451,0.0
452,-2.8361806583918314
453,0.0
490,0.0
515,0.0
516,0.0
542,0.0
592,4839846.964497665
632,4113983.089844835
686,1.0
687,1.0
688,2.0
2,21, 1,21, 0, 8,20.00,30.00,Sunday
250,23.052663136241854
251,6903011.761780772
336,0.0
385,22.876666666666686
386,26.570000000000025
387,-0.6933446806445696
388,0.0
425,0.0
450,0.0
451,0.0
452,-2.8344638943809732
453,0.0
490,0.0
515,0.0
516,0.0
542,0.0
592,2790955.309794072
632,4034504.8048707256
686,0.6043062142031239
687,0.5000000000000004
688,1.1666666666666674
2,21, 1,21, 0, 8,30.00,40.00,Sunday
250,23.51836736634335
251,6777833.60374728
336,0.0
385,23.543333333333354
386,26.57000000000002
387,-0.7223308610063295
388,0.0
425,0.0
450,0.0
451,0.0
452,-2.7366417880750697
453,0.0
490,0.0
515,0.0
516,0.0
542,0.0
592,3715347.9739401047
632,2950663.187996301
686,0.8024210929116768
687,0.6666666666666672
688,1.6666666666666679
2,21, 1,21, 0, 8,40.00,50.00,Sunday
250,23.758649283702816
251,7831535.26382878
336,0.0
385,24.21
386,26.57
387,-0.7414789358808623
388,0.0
425,0.0
450,0.0
451,0.0
452,-2.5021069292815983
453,0.0
490,0.0
515,0.0
516,0.0
542,0.0
592,4877552.042775269
632,3479179.650242456
686,1.0
687,1.0
688,2.0
2,21, 1,21, 0, 8,50.00,60.00,Sunday
250,24.167457838650424
251,8841606.311762154
336,0.0
385,24.21
386,26.57
387,-0.7394958776411171
388,0.0
425,0.0
450,0.0
451,0.0
452,-2.1877609918489336
453,0.0
490,0.0
515,0.0
516,0.0
542,0.0
592,4881868.245072942
632,3819079.7568104905
686,1.0
687,1.0
688,2.0
2,21, 1,21, 0, 9, 0.00,10.00,Sunday
250,23.068641522273676
251,6599174.109133199
336,0.0
385,22.87666666666667
386,26.57
387,-0.7134802664134519
388,0.0
425,0.0
450,0.0
451,0.0
452,-1.8087052731263054
453,0.0
490,0.0
515,0.0
516,0.0
542,0.0
592,2762440.5834385697
632,3753883.749138062
686,0.5882295590347209
687,0.5
688,1.1666666666666667
2,21, 1,21, 0, 9,10.00,20.00,Sunday
250,23.512970016429538
251,6432821.965288332
336,0.0
385,23.543333333333337
386,26.57
387,-0.6682295572877145
388,0.0
425,0.0
450,0.0
451,0.0
452,-1.3274714426793992
453,0.0
490,0.0
515,0.0
516,0.0
542,0.0
592,3659919.297894812
632,2686435.109370031
686,0.7745858885028184
687,0.6666666666666667
688,1.6666666666666667
2,21, 1,21, 0, 9,20.00,30.00,Sunday
250,23.545501313481306
251,7750999.531561378
336,0.0
385,23.543333333333322
386,26.569999999999993
387,-0.5884464395049012
388,0.0
425,0.0
450,0.0
451,0.0
452,-0.6214870086238662
453,0.0
490,0.0
515,0.0
516,0.0
542,0.0
592,3485455.3183732145
632,4061739.64259223
686,0.8236983091750046
687,0.4062100119059346
688,1.666666666666666
2,21, 1,21, 0, 9,30.00,40.00,Sunday
250,23.546689165570974
251,7716135.220783935
336,0.0
385,23.543333333333344
386,26.570000000000014
387,-0.5016246872396923
388,0.0
425,0.0
450,0.0
451,0.0
452,0.0271278247210264
453,0.0
490,0.0
515,0.0
516,0.0
542,0.0
592,3504882.8966348143
632,4002998.1409877073
686,0.8220708548099509
687,0.4149866738675387
688,1.666666666666667
2,21, 1,21, 0, 9,40.00,50.00,Sunday
250,23.546336973211886
251,7696835.084808738
336,0.0
385,23.543333333333354
386,26.57000000000002
387,-0.42108472785139295
388,0.0
425,0.0
450,0.0
451,0.0
452,0.6424445875387856
453,0.0
490,0.0
515,0.0
516,0.0
542,0.0
592,3498534.80387089
632,3992199.3184000878
686,0.8200045327468749
687,0.4063215823972863
688,1.6666666666666679
2,21, 1,21, 0, 9,50.00,60.00,Sunday
250,24.145569664807006
251,8386039.342661424
336,0.0
385,24.21
386,26.57
387,-0.349619043205343
388,0.0
425,0.0
450,0.0
451,0.0
452,1.1491879317147184
453,0.0
490,0.0
515,0.0
516,0.0
542,0.0
592,4987886.41021877
632,3312830.604744989
686,1.0
687,1.0
688,2.0
2,21, 1,21, 0,10, 0.00,10.00,Sunday
250,23.078256359070565
251,6399233.722657484
336,0.0
385,22.87666666666667
386,26.57
387,-0.27754426594577697
388,0.0
425,0.0
450,0.0
451,0.0
452,1.6123682330936426
453,0.0
490,0.0
515,0.0
516,0.0
542,0.0
592,2789372.536385202
632,3524187.1976504857
686,0.5766463196961983
687,0.5
688,1.1666666666666667
2,21, 1,21, 0,10,10.00,20.00,Sunday
250,23.50811314564244
251,6151414.190722294
336,0.0
385,23.543333333333337
386,26.57
387,-0.19119483934676515
388,0.0
425,0.0
450,0.0
451,0.0
452,2.12115517387183
453,0.0
490,0.0
515,0.0
516,0.0
542,0.0
592,3678064.536608899
632,2409240.5109323952
686,0.7512615476039886
687,0.6666666666666667
688,1.6666666666666667
2,21, 1,21, 0,10,20.00,30.00,Sunday
250,23.53981771978052
251,7457984.088983483
336,0.0
385,23.543333333333322
386,26.569999999999993
387,-0.056219470809688046
388,0.0
425,0.0
450,0.0
451,0.0
452,2.8114476526643073
453,0.0
490,0.0
515,0.0
516,0.0
542,0.0
592,3352117.143131653
632,3934497.045324695
686,0.7856253319281558
687,0.3333333333333332
688,1.3333333333333328
2,21, 1,21, 0,10,30.00,40.00,Sunday
250,23.54003207692582
251,7370519.267274083
336,0.0
385,23.543333333333344
386,26.570000000000014
387,0.07518588957899269
388,0.0
425,0.0
450,0.0
451,0.0
452,3.4427739361427094
453,0.0
490,0.0
515,0.0
516,0.0
542,0.0
592,3343947.3243989795
632,3856182.435785634
686,0.7774506779671299
687,0.3333333333333332
688,1.3333333333333335
2,21, 1,21, 0,10,40.00,50.00,Sunday
250,23.538260830635565
251,7263030.988556426
336,0.0
385,23.543333333333354
386,26.57000000000002
387,0.21503081239375438
388,0.0
425,0.0
450,0.0
451,0.0
452,4.120264163510981
453,0.0
490,0.0
515,0.0
516,0.0
542,0.0
592,3288531.482133743
632,3815000.6646103407
686,0.7566463443900755
687,0.3333333333333336
688,1.3333333333333344
2,21, 1,21, 0,10,50.00,60.00,Sunday
250,23.5364152500476
251,7154188.075175194
336,0.0
385,23.543333333333354
386,26.57000000000002
387,0.3727900856246099
388,0.0
425,0.0
450,0.0
451,0.0
452,4.878563001474579
453,0.0
490,0.0
515,0.0
516,0.0
542,0.0
592,3230494.04877641
632,3775420.2148160357
686,0.735407677007978
687,0.3333333333333336
688,1.3333333333333344
2,21, 1,21, 0,11, 0.00,10.00,Sunday
250,23.534393231800863
251,7047395.114779366
336,0.0
385,23.543333333333337
386,26.57
387,0.5432582912086948
388,0.0
425,0.0
450,0.0
451,0.0
452,5.701199532636203
453,0.0
490,0.0
515,0.0
516,0.0
542,0.0
592,3168132.2257371796
632,3741235.8951456454
686,0.715684233112578
687,0.3333333333333333
688,1.3333333333333335
2,21, 1,21, 0,11,10.00,20.00,Sunday
250,23.53251723192788
251,6936594.961392283
336,0.0
385,23.543333333333337
386,26.57
387,0.7248497234031227
388,0.0
425,0.0
450,0.0
451,0.0
452,6.569278397487235
453,0.0
490,0.0
515,0.0
516,0.0
542,0.0
592,3104724.469089986
632,3704584.045881302
686,0.695823023074455
687,0.33333333333333337
688,1.3333333333333333
2,21, 1,21, 0,11,20.00,30.00,Sunday
250,23.283266169422028
251,6099797.791572014
336,0.0
385,23.21
386,26.57
387,0.8747591032520923
388,0.0
425,0.0
450,0.0
451,0.0
452,7.343454958442854
453,0.0
490,0.0
515,0.0
516,0.0
542,0.0
592,3933662.4008262306
632,2021548.7288451612
686,0.75
687,0.75
688,1.5
2,21, 1,21, 0,11,30.00,40.00,Sunday
250,23.23278779823218
251,6574282.764291082
336,0.0
385,23.21
386,26.57
387,1.1079880847843921
388,0.0
425,0.0
450,0.0
451,0.0
452,8.369992563545077
453,0.0
490,0.0
515,0.0
516,0.0
542,0.0
592,3276458.625405721
632,3228078.606517056
686,0.67007739119793
687,0.5
688,1.25
2,21, 1,21, 0,11,40.00,50.00,Sunday
250,23.23573289475005
251,6406914.528349193
336,0.0
385,23.21
386,26.57
387,1.3371598148607942
388,0.0
425,0.0
450,0.0
451,0.0
452,9.244876924459911
453,0.0
490,0.0
515,0.0
516,0.0
542,0.0
592,3288041.2252268475
632,3053655.9094206993
686,0.670073188825526
687,0.5
688,1.25
2,21, 1,21, 0,11,50.00,60.00,Sunday
250,23.499487321938826
251,5111996.803515984
336,0.0
385,23.543333333333354
386,26.57000000000002
387,1.5150718305892656
388,0.0
425,0.0
450,0.0
451,0.0
452,9.894464314618755
453,0.0
490,0.0
515,0.0
516,0.0
542,0.0
592,3597790.9464452076
632,1494454.6922360098
686,0.6836418986561972
687,0.6666666666666672
688,1.6666666666666679
2,21, 1,21, 0,12, 0.00,10.00,Sunday
250,23.5249541004205
251,6578944.117225157
336,0.0
385,23.543333333333337
386,26.57
387,1.7592055192500116
388,0.0
425,0.0
450,0.0
451,0.0
452,10.612380072486236
453,0.0
490,0.0
515,0.0
516,0.0
542,0.0
592,2867332.042027266
632,3626261.360906561
686,0.6209845367379032
687,0.3333333333333333
688,1.3333333333333335
2,21, 1,21, 0,12,10.00,20.00,Sunday
250,24.141065794092285
251,7179376.321265476
336,0.0
385,24.21
386,26.57
387,1.9444879337868364
388,0.0
425,0.0
450,0.0
451,0.0
452,11.07947838085412
453,0.0
490,0.0
515,0.0
516,0.0
542,0.0
592,5313791.7337263925
632,1785390.293565264
686,1.0
687,1.0
688,2.0
2,21, 1,21, 0,12,20.00,30.00,Sunday
250,23.27240585621948
251,4774393.184031609
336,0.0
385,23.21
386,26.57
387,2.159577741942987
388,0.0
425,0.0
450,0.0
451,0.0
452,11.490163797603227
453,0.0
490,0.0
515,0.0
516,0.0
542,0.0
592,3535879.0769585622
632,887475.8390959125
686,0.7285622244105092
687,0.5
688,1.5
2,21, 1,21, 0,12,30.00,40.00,Sunday
250,24.115996248217826
251,8223830.873332838
336,0.0
385,24.21
386,26.57
387,2.340061421270863
388,0.0
425,0.0
450,0.0
451,0.0
452,11.735607349282994
453,0.0
490,0.0
515,0.0
516,0.0
542,0.0
592,4722808.315257337
632,3501714.965527068
686,1.0
687,0.5941750315857881
688,2.0
2,21, 1,21, 0,12,40.00,50.00,Sunday
250,24.2041220399574
251,6519655.778530376
336,0.0
385,24.21
386,26.57
387,2.490706964577003
388,0.0
425,0.0
450,0.0
451,0.0
452,11.830808121577382
453,0.0
490,0.0
515,0.0
516,0.0
542,0.0
592,5335923.472596238
632,934963.8742525447
686,1.0
687,1.0
688,2.0
2,21, 1,21, 0,12,50.00,60.00,Sunday
250,23.14882014956156
251,5061681.543343613
336,0.0
385,22.876666666666637
386,26.569999999999965
387,2.586104431539834
388,0.0
425,0.0
450,0.0
451,0.0
452,11.781439402779577
453,0.0
490,0.0
515,0.0
516,0.0
542,0.0
592,2426538.4306332096
632,2552856.023575389
686,0.500480054644122
687,0.33333333333333287
688,0.9999999999999987
2,21, 1,21, 0,13, 0.00,10.00,Sunday
250,24.0991619180321
251,6968573.202055024
336,0.0
385,24.21
386,26.57
387,2.680370268999307
388,0.0
425,0.0
450,0.0
451,0.0
452,11.682657657449715
453,0.0
490,0.0
515,0.0
516,0.0
542,0.0
592,5340343.831136424
632,1645537.0367614715
686,1.0
687,1.0
688,2.0
2,21, 1,21, 0,13,10.00,20.00,Sunday
250,24.20199143471256
251,6203450.88770559
336,0.0
385,24.21
386,26.57
387,2.784667321842101
388,0.0
425,0.0
450,0.0
451,0.0
452,11.569096387325342
453,0.0
490,0.0
515,0.0
516,0.0
542,0.0
592,5335793.470214103
632,622410.9605227645
686,1.0
687,1.0
688,2.0
2,21, 1,21, 0,13,20.00,30.00,Sunday
250,23.16810827692378
251,4803363.354670948
336,0.0
385,22.876666666666686
386,26.570000000000025
387,2.858162803337456
388,0.0
425,0.0
450,0.0
451,0.0
452,11.514517008095934
453,0.0
490,0.0
515,0.0
516,0.0
542,0.0
592,2258106.015493991
632,2473768.9117174274
686,0.46981435246446607
687,0.302876853989893
688,0.833333333333334
2,21, 1,21, 0,13,30.00,40.00,Sunday
250,24.100259116156515
251,6710792.797021288
336,0.0
385,24.21
386,26.57
387,2.9328227564594984
388,0.0
425,0.0
450,0.0
451,0.0
452,11.480059673507949
453,0.0
490,0.0
515,0.0
516,0.0
542,0.0
592,5224449.493309248
632,1500944.9638225117
686,1.0
687,0.9299887492264378
688,2.0
2,21, 1,21, 0,13,40.00,50.00,Sunday
250,24.202090218493375
251,5977118.3405611655
336,0.0
385,24.21
386,26.57
387,3.019597995640212
388,0.0
425,0.0
450,0.0
451,0.0
452,11.457481740442432
453,0.0
490,0.0
515,0.0
516,0.0
542,0.0
592,5324520.0164072765
632,407049.97797983635
686,1.0
687,1.0
688,2.0
2,21, 1,21, 0,13,50.00,60.00,Sunday
250,23.19448602082049
251,4567153.630622584
336,0.0
385,22.876666666666637
386,26.569999999999965
387,3.0854787516944358
388,0.0
425,0.0
450,0.0
451,0.0
452,11.446678141013816
453,0.0
490,0.0
515,0.0
516,0.0
542,0.0
592,2039282.762403055
632,2471178.609268512
686,0.4497946930908131
687,0.2105360205412184
688,0.8333333333333321
2,21, 1,21, 0,14, 0.00,10.00,Sunday
250,24.103031342240545
251,6552657.99988294
336,0.0
385,24.21
386,26.57
387,3.1558680574384192
388,0.0
425,0.0
450,0.0
451,0.0
452,11.405674347562684
453,0.0
490,0.0
515,0.0
516,0.0
542,0.0
592,5167868.595278243
632,1393989.1446147219
686,1.0
687,0.8891649179541834
688,2.0
2,21, 1,21, 0,14,10.00,20.00,Sunday
250,24.20233061020239
251,5851988.529222779
336,0.0
385,24.21
386,26.57
387,3.238093743228643
388,0.0
425,0.0
450,0.0
451,0.0
452,11.29325990006397
453,0.0
490,0.0
515,0.0
516,0.0
542,0.0
592,5344642.047510483
632,261317.49227256223
686,1.0
687,1.0
688,2.0
2,21, 1,21, 0,14,20.00,30.00,Sunday
250,23.20655969275935
251,4455788.723017144
336,0.0
385,22.876666666666686
386,26.570000000000025
387,3.2966613169447765
388,0.0
425,0.0
450,0.0
451,0.0
452,11.127606360797449
453,0.0
490,0.0
515,0.0
516,0.0
542,0.0
592,1944354.951001042
632,2463776.2472513653
686,0.43842505219245875
687,0.1666666666666668
688,0.6666666666666672
2,21, 1,21, 0,14,30.00,40.00,Sunday
250,24.102991039138743
251,6404344.521503152
336,0.0
385,24.21
386,26.57
387,3.3475528882839907
388,0.0
425,0.0
450,0.0
451,0.0
452,10.87053913576906
453,0.0
490,0.0
515,0.0
516,0.0
542,0.0
592,5123422.572117418
632,1288668.7009821658
686,1.0
687,0.8363245336592273
688,2.0
2,21, 1,21, 0,14,40.00,50.00,Sunday
250,23.247626201731418
251,4027946.6926628435
336,0.0
385,23.21
386,26.57
387,3.397038496382231
388,0.0
425,0.0
450,0.0
451,0.0
452,10.42674042721027
453,0.0
490,0.0
515,0.0
516,0.0
542,0.0
592,3271048.9047046835
632,492604.24216926674
686,0.649789490610903
687,0.5
688,1.5
2,21, 1,21, 0,14,50.00,60.00,Sunday
250,24.11092309022459
251,7468122.0871072095
336,0.0
385,24.21
386,26.57