Program Version,EnergyPlus, Version 24.2.0-94a887817b, YMD=2025.02.04 17:10
1,5,Environment Title[],Latitude[deg],Longitude[deg],Time Zone[],Elevation[m]
2,8,Day of Simulation[],Month[],Day of Month[],DST Indicator[1=yes 0=no],Hour[],StartMinute[],EndMinute[],DayType
3,5,Cumulative Day of Simulation[],Month[],Day of Month[],DST Indicator[1=yes 0=no],DayType  ! When Daily Meters Requested
4,2,Cumulative Days of Simulation[],Month[]  ! When Monthly Meters Requested
5,1,Cumulative Days of Simulation[] ! When Run Period Meters Requested
6,1,Calendar Year of Simulation[] ! When Annual Meters Requested
11,9,Electricity:Facility [J] !Monthly [Value,Min,Day,Hour,Minute,Max,Day,Hour,Minute]
23,9,Electricity:Building [J] !Monthly [Value,Min,Day,Hour,Minute,Max,Day,Hour,Minute]
59,9,InteriorLights:Electricity [J] !Monthly [Value,Min,Day,Hour,Minute,Max,Day,Hour,Minute]
521,9,Electricity:HVAC [J] !Monthly [Value,Min,Day,Hour,Minute,Max,Day,Hour,Minute]
637,9,NaturalGas:Facility [J] !Monthly [Value,Min,Day,Hour,Minute,Max,Day,Hour,Minute]
649,9,NaturalGas:HVAC [J] !Monthly [Value,Min,Day,Hour,Minute,Max,Day,Hour,Minute]
13,11,Electricity:Facility [J] !RunPeriod [Value,Min,Month,Day,Hour,Minute,Max,Month,Day,Hour,Minute]
25,11,Electricity:Building [J] !RunPeriod [Value,Min,Month,Day,Hour,Minute,Max,Month,Day,Hour,Minute]
61,11,InteriorLights:Electricity [J] !RunPeriod [Value,Min,Month,Day,Hour,Minute,Max,Month,Day,Hour,Minute]
523,11,Electricity:HVAC [J] !RunPeriod [Value,Min,Month,Day,Hour,Minute,Max,Month,Day,Hour,Minute]
639,11,NaturalGas:Facility [J] !RunPeriod [Value,Min,Month,Day,Hour,Minute,Max,Month,Day,Hour,Minute]
651,11,NaturalGas:HVAC [J] !RunPeriod [Value,Min,Month,Day,Hour,Minute,Max,Month,Day,Hour,Minute]
End of Data Dictionary
1,YEARSIMULATION,  41.98, -87.92,  -6.00, 201.00
4,31, 1
11,9069664534.512438,306774.33565328585,11,19,50,3478809.980158715,26,15,20
23,1816701251.813742,107459.56429026209,11,20,60,993713.2604366418,31,14,30
59,906173066.8986653,28020.19378165407, 1, 1,10,560403.8756330814, 1, 8,10
521,7252963282.698711,0.0,11,14,10,2576111.998828902,27,19,60
637,16585556839.34637,0.0, 1,10,50,20200890.110791765,31, 7,30
649,16585556839.34637,0.0, 1,10,50,20200890.110791765,31, 7,30
4,59, 2
11,7543677199.113407,249014.84808098667,11,14,50,3484057.536454574,21,12,30
23,1603295162.3953671,99999999999999.0,11,20,60,-99999999999999.0,31,14,30
59,792186918.5949221,99999999999999.0, 1, 1,10,-99999999999999.0, 1, 8,10
521,5940382036.71807,99999999999999.0,11,14,10,-99999999999999.0,27,19,60
637,13506707673.62991,99999999999999.0, 1,10,50,21210188.175266065, 3, 8,30
649,13506707673.62991,99999999999999.0, 1,10,50,21210188.175266065, 3, 8,30
4,90, 3
11,7520097678.570875,91506.3078628067,31,16,60,-99999999999999.0,21,12,30
23,1741558947.3466313,91506.3078628067,31,16,60,-99999999999999.0,31,14,30
59,872212592.0353184,99999999999999.0, 1, 1,10,-99999999999999.0, 1, 8,10
521,5778538731.22424,99999999999999.0,11,14,10,-99999999999999.0,27,19,60
637,10101785002.297117,99999999999999.0, 1,10,50,-99999999999999.0, 3, 8,30
649,10101785002.297117,99999999999999.0, 1,10,50,-99999999999999.0, 3, 8,30
4,120, 4
11,4405535131.349437,28020.19378165407,12,19,10,-99999999999999.0,21,12,30
23,1572698911.179914,28020.19378165407,11,19,20,-99999999999999.0,31,14,30
59,834217209.26738,99999999999999.0, 1, 1,10,-99999999999999.0, 1, 8,10
521,2832836220.1695166,99999999999999.0,11,14,10,-99999999999999.0,27,19,60
637,4148161092.7366962,99999999999999.0, 1,10,50,-99999999999999.0, 3, 8,30
649,4148161092.7366962,99999999999999.0, 1,10,50,-99999999999999.0, 3, 8,30
4,151, 5
11,3144612316.8888755,99999999999999.0,12,19,10,-99999999999999.0,21,12,30
23,1602396430.4857483,99999999999999.0,11,19,20,-99999999999999.0,31,14,30
59,906173066.8986653,99999999999999.0, 1, 1,10,-99999999999999.0, 1, 8,10
521,1542215886.403137,99999999999999.0,11,14,10,-99999999999999.0,27,19,60
637,990998582.6313146,99999999999999.0, 1,10,50,-99999999999999.0, 3, 8,30
649,990998582.6313146,99999999999999.0, 1,10,50,-99999999999999.0, 3, 8,30
4,181, 6
11,2933997504.4357624,99999999999999.0,12,19,10,-99999999999999.0,21,12,30
23,1404801370.992724,99999999999999.0,11,19,20,-99999999999999.0,31,14,30
59,834217209.2673852,99999999999999.0, 1, 1,10,-99999999999999.0, 1, 8,10
521,1529196133.4430354,99999999999999.0,11,14,10,-99999999999999.0,27,19,60
637,52924182.933988854,99999999999999.0, 1,10,50,-99999999999999.0, 3, 8,30
649,52924182.933988854,99999999999999.0, 1,10,50,-99999999999999.0, 3, 8,30
4,212, 7
11,3610602037.707475,99999999999999.0,12,19,10,-99999999999999.0,21,12,30
23,1401077283.017792,99999999999999.0,11,19,20,-99999999999999.0,31,14,30
59,872212592.0353019,99999999999999.0, 1, 1,10,-99999999999999.0, 1, 8,10
521,2209524754.6896667,99999999999999.0,11,14,10,-99999999999999.0,27,19,60
637,696596.1347551557,99999999999999.0, 1,10,50,-99999999999999.0, 3, 8,30
649,696596.1347551557,99999999999999.0, 1,10,50,-99999999999999.0, 3, 8,30
4,243, 8
11,3299888667.5115767,99999999999999.0,12,19,10,-99999999999999.0,21,12,30
23,1483863472.0328019,99999999999999.0,11,19,20,-99999999999999.0,31,14,30
59,906173066.8986878,99999999999999.0, 1, 1,10,-99999999999999.0, 1, 8,10
521,1816025195.478763,99999999999999.0,11,14,10,-99999999999999.0,27,19,60
637,16502661.220851569,99999999999999.0, 1,10,50,-99999999999999.0, 3, 8,30
649,16502661.220851569,99999999999999.0, 1,10,50,-99999999999999.0, 3, 8,30
4,273, 9
11,2555814378.2852826,99999999999999.0,12,19,10,-99999999999999.0,21,12,30
23,1378023964.3298478,99999999999999.0,11,19,20,-99999999999999.0,31,14,30
59,800256734.4040165,99999999999999.0, 1, 1,10,-99999999999999.0, 1, 8,10
521,1177790413.955433,99999999999999.0,11,14,10,-99999999999999.0,27,19,60
637,75337944.68880537,99999999999999.0, 1,10,50,-99999999999999.0, 3, 8,30
649,75337944.68880537,99999999999999.0, 1,10,50,-99999999999999.0, 3, 8,30
4,304,10
11,3513616555.8776,99999999999999.0,12,19,10,-99999999999999.0,21,12,30
23,1649092258.907349,99999999999999.0,11,19,20,-99999999999999.0,31,14,30
59,906173066.8986653,99999999999999.0, 1, 1,10,-99999999999999.0, 1, 8,10
521,1864524296.9702523,99999999999999.0,11,14,10,-99999999999999.0,27,19,60
637,2281337644.040025,99999999999999.0, 1,10,50,-99999999999999.0, 3, 8,30
649,2281337644.040025,99999999999999.0, 1,10,50,-99999999999999.0, 3, 8,30
4,334,11
11,6211676428.693415,99999999999999.0,12,19,10,-99999999999999.0,21,12,30
23,1678486522.3674908,99999999999999.0,11,19,20,-99999999999999.0,31,14,30
59,868177684.1307659,99999999999999.0, 1, 1,10,-99999999999999.0, 1, 8,10
521,4533189906.325926,99999999999999.0,11,14,10,-99999999999999.0,27,19,60
637,8469204351.9208355,99999999999999.0, 1,10,50,-99999999999999.0, 3, 8,30
649,8469204351.9208355,99999999999999.0, 1,10,50,-99999999999999.0, 3, 8,30
4,365,12
11,7867129424.338212,99999999999999.0,12,19,10,-99999999999999.0,21,12,30
23,1666461976.1481013,99999999999999.0,11,19,20,-99999999999999.0,31,14,30
59,838252117.1719384,99999999999999.0, 1, 1,10,-99999999999999.0, 1, 8,10
521,6200667448.190107,99999999999999.0,11,14,10,-99999999999999.0,27,19,60
637,10101361705.532772,99999999999999.0, 1,10,50,-99999999999999.0, 3, 8,30
649,10101361705.532772,99999999999999.0, 1,10,50,-99999999999999.0, 3, 8,30
5,365
13,61676311857.28331,28020.19378165407, 4,12,19,10,3484057.536454574, 2,21,12,30
25,18998457551.015797,28020.19378165407, 4,11,19,20,993713.2604366418, 1,31,14,30
61,10336425324.503593,28020.19378165407, 1, 1, 1,10,560403.8756330814, 1, 1, 8,10
523,42677854306.266235,0.0, 1,11,14,10,2576111.998828902, 1,27,19,60
639,66330574277.11357,0.0, 1, 1,10,50,21210188.175266065, 2, 3, 8,30
651,66330574277.11357,0.0, 1, 1,10,50,21210188.175266065, 2, 3, 8,30
End of Data
 Number of Records Written=          78
