Program Version,EnergyPlus, Version 24.2.0-94a887817b, YMD=2025.02.04 15:52
1,5,Environment Title[],Latitude[deg],Longitude[deg],Time Zone[],Elevation[m]
2,8,Day of Simulation[],Month[],Day of Month[],DST Indicator[1=yes 0=no],Hour[],StartMinute[],EndMinute[],DayType
3,5,Cumulative Day of Simulation[],Month[],Day of Month[],DST Indicator[1=yes 0=no],DayType  ! When Daily Meters Requested
4,2,Cumulative Days of Simulation[],Month[]  ! When Monthly Meters Requested
5,1,Cumulative Days of Simulation[] ! When Run Period Meters Requested
6,1,Calendar Year of Simulation[] ! When Annual Meters Requested
11,9,Electricity:Facility [J] !Monthly [Value,Min,Day,Hour,Minute,Max,Day,Hour,Minute]
23,9,Electricity:Building [J] !Monthly [Value,Min,Day,Hour,Minute,Max,Day,Hour,Minute]
59,9,InteriorLights:Electricity [J] !Monthly [Value,Min,Day,Hour,Minute,Max,Day,Hour,Minute]
521,9,Electricity:HVAC [J] !Monthly [Value,Min,Day,Hour,Minute,Max,Day,Hour,Minute]
637,9,NaturalGas:Facility [J] !Monthly [Value,Min,Day,Hour,Minute,Max,Day,Hour,Minute]
649,9,NaturalGas:HVAC [J] !Monthly [Value,Min,Day,Hour,Minute,Max,Day,Hour,Minute]
13,11,Electricity:Facility [J] !RunPeriod [Value,Min,Month,Day,Hour,Minute,Max,Month,Day,Hour,Minute]
25,11,Electricity:Building [J] !RunPeriod [Value,Min,Month,Day,Hour,Minute,Max,Month,Day,Hour,Minute]
61,11,InteriorLights:Electricity [J] !RunPeriod [Value,Min,Month,Day,Hour,Minute,Max,Month,Day,Hour,Minute]
523,11,Electricity:HVAC [J] !RunPeriod [Value,Min,Month,Day,Hour,Minute,Max,Month,Day,Hour,Minute]
639,11,NaturalGas:Facility [J] !RunPeriod [Value,Min,Month,Day,Hour,Minute,Max,Month,Day,Hour,Minute]
651,11,NaturalGas:HVAC [J] !RunPeriod [Value,Min,Month,Day,Hour,Minute,Max,Month,Day,Hour,Minute]
End of Data Dictionary
1,RUN PERIOD 1,  41.98, -87.92,  -6.00, 201.00
4,31, 1
11,12557634174.523853,281453.06230130576,12, 1,20,4839477.9679917265,30,14,20
23,4732546317.080248,158201.39823325147,19,16,60,2941091.2154759048,30,14,20
59,2245067184.6601024,69420.75400928073, 1, 1,10,1388415.0801856145, 1, 8,10
521,7825087857.4435215,119999.99999999997,10, 7,20,2573870.3728012173,27,20,10
637,3993572081.5815325,0.0, 1, 1,10,13768054.323749758,31, 7,60
649,3993572081.5815325,0.0, 1, 1,10,13768054.323749758,31, 7,60
4,59, 2
11,11217801198.12265,99999999999999.0,12, 1,20,4841843.492239142, 1,13,60
23,4148709975.8305364,99999999999999.0,19,16,60,-99999999999999.0,30,14,20
59,1962663557.3503537,99999999999999.0, 1, 1,10,-99999999999999.0, 1, 8,10
521,7069091222.292067,0.0,15, 7,20,-99999999999999.0,27,20,10
637,5740573289.895708,99999999999999.0, 1, 1,10,20688538.624521397, 3, 8,10
649,5740573289.895708,99999999999999.0, 1, 1,10,20688538.624521397, 3, 8,10
4,90, 3
11,11523759170.379925,133185.07819628698,31,16,60,4855948.650686411,18,13,60
23,4375014972.054107,133185.07819628698,31,16,60,2951722.766922984,18, 9,60
59,2076791276.9416013,99999999999999.0, 1, 1,10,-99999999999999.0, 1, 8,10
521,7148744198.325693,99999999999999.0,15, 7,20,-99999999999999.0,27,20,10
637,2750350045.9182506,99999999999999.0, 1, 1,10,-99999999999999.0, 3, 8,10
649,2750350045.9182506,99999999999999.0, 1, 1,10,-99999999999999.0, 3, 8,10
4,120, 4
11,10961722908.294672,69420.75400928073,20,17,60,5005200.944200064,15,14,60
23,4437666235.442594,69420.75400928073,13,12,50,-99999999999999.0,18, 9,60
59,2150932642.223532,99999999999999.0, 1, 1,10,-99999999999999.0, 1, 8,10
521,6524056672.851997,99999999999999.0,15, 7,20,-99999999999999.0,27,20,10
637,780269753.6056229,99999999999999.0, 1, 1,10,-99999999999999.0, 3, 8,10
649,780269753.6056229,99999999999999.0, 1, 1,10,-99999999999999.0, 3, 8,10
4,151, 5
11,11233029478.630554,99999999999999.0,20,17,60,5136375.6743802065,30,16,60
23,4570017536.724953,99999999999999.0,13,12,50,-99999999999999.0,18, 9,60
59,2245067184.6601024,99999999999999.0, 1, 1,10,-99999999999999.0, 1, 8,10
521,6663011941.905558,99999999999999.0,15, 7,20,-99999999999999.0,27,20,10
637,112913783.45742822,99999999999999.0, 1, 1,10,-99999999999999.0, 3, 8,10
649,112913783.45742822,99999999999999.0, 1, 1,10,-99999999999999.0, 3, 8,10
4,181, 6
11,10283019805.107853,99999999999999.0,20,17,60,5159159.213336307,24,16,60
23,3973703239.3396335,99999999999999.0,13,12,50,-99999999999999.0,18, 9,60
59,1982656734.5050352,99999999999999.0, 1, 1,10,-99999999999999.0, 1, 8,10
521,6309316565.76813,99999999999999.0,15, 7,20,-99999999999999.0,27,20,10
637,7825352.802985145,99999999999999.0, 1, 1,10,-99999999999999.0, 3, 8,10
649,7825352.802985145,99999999999999.0, 1, 1,10,-99999999999999.0, 3, 8,10
4,212, 7
11,11904004459.062407,99999999999999.0,20,17,60,-99999999999999.0,24,16,60
23,4472627143.086844,99999999999999.0,13,12,50,-99999999999999.0,18, 9,60
59,2245067184.6601024,99999999999999.0, 1, 1,10,-99999999999999.0, 1, 8,10
521,7431377315.975491,99999999999999.0,15, 7,20,-99999999999999.0,27,20,10
637,0.0,99999999999999.0, 1, 1,10,-99999999999999.0, 3, 8,10
649,0.0,99999999999999.0, 1, 1,10,-99999999999999.0, 3, 8,10
4,243, 8
11,11389404012.602654,99999999999999.0,20,17,60,5293091.904089725,23,16,60
23,4312702254.149563,99999999999999.0,13,12,50,-99999999999999.0,18, 9,60
59,2160929230.8008547,99999999999999.0, 1, 1,10,-99999999999999.0, 1, 8,10
521,7076701758.452983,99999999999999.0,15, 7,20,-99999999999999.0,27,20,10
637,1516635.4804838952,99999999999999.0, 1, 1,10,-99999999999999.0, 3, 8,10
649,1516635.4804838952,99999999999999.0, 1, 1,10,-99999999999999.0, 3, 8,10
4,273, 9
11,10397621147.494984,99999999999999.0,20,17,60,-99999999999999.0,23,16,60
23,4165235018.604797,99999999999999.0,13,12,50,-99999999999999.0,18, 9,60
59,2066794688.3642828,99999999999999.0, 1, 1,10,-99999999999999.0, 1, 8,10
521,6232386128.890125,99999999999999.0,15, 7,20,-99999999999999.0,27,20,10
637,15439732.084869733,99999999999999.0, 1, 1,10,-99999999999999.0, 3, 8,10
649,15439732.084869733,99999999999999.0, 1, 1,10,-99999999999999.0, 3, 8,10
4,304,10
11,11044852987.924494,99999999999999.0,20,17,60,-99999999999999.0,23,16,60
23,4602195423.824098,99999999999999.0,13,12,50,-99999999999999.0,18, 9,60
59,2245067184.6601024,99999999999999.0, 1, 1,10,-99999999999999.0, 1, 8,10
521,6442657564.100335,99999999999999.0,15, 7,20,-99999999999999.0,27,20,10
637,110237190.09355125,99999999999999.0, 1, 1,10,-99999999999999.0, 3, 8,10
649,110237190.09355125,99999999999999.0, 1, 1,10,-99999999999999.0, 3, 8,10
4,334,11
11,10988380536.923468,99999999999999.0,20,17,60,-99999999999999.0,23,16,60
23,4308736179.512414,99999999999999.0,13,12,50,-99999999999999.0,18, 9,60
59,2066794688.3642697,99999999999999.0, 1, 1,10,-99999999999999.0, 1, 8,10
521,6679644357.41099,99999999999999.0,15, 7,20,-99999999999999.0,27,20,10
637,2023913942.9976058,99999999999999.0, 1, 1,10,-99999999999999.0, 3, 8,10
649,2023913942.9976058,99999999999999.0, 1, 1,10,-99999999999999.0, 3, 8,10
4,365,12
11,11628712948.93385,99999999999999.0,20,17,60,-99999999999999.0,23,16,60
23,4519298240.029345,99999999999999.0,13,12,50,-99999999999999.0,18, 9,60
59,2160929230.8008676,99999999999999.0, 1, 1,10,-99999999999999.0, 1, 8,10
521,7109414708.904428,99999999999999.0,15, 7,20,-99999999999999.0,27,20,10
637,2768995002.7584977,99999999999999.0, 1, 1,10,-99999999999999.0, 3, 8,10
649,2768995002.7584977,99999999999999.0, 1, 1,10,-99999999999999.0, 3, 8,10
5,365
13,135129942828.00172,69420.75400928073, 4,20,17,60,5293091.904089725, 8,23,16,60
25,52618452535.67921,69420.75400928073, 4,13,12,50,2951722.766922984, 3,18, 9,60
61,25608760787.9833,69420.75400928073, 1, 1, 1,10,1388415.0801856145, 1, 1, 8,10
523,82511490292.35258,0.0, 2,15, 7,20,2573870.3728012173, 1,27,20,10
639,18305606810.67652,0.0, 1, 1, 1,10,20688538.624521397, 2, 3, 8,10
651,18305606810.67652,0.0, 1, 1, 1,10,20688538.624521397, 2, 3, 8,10
1,RUN PERIOD 2,  41.98, -87.92,  -6.00, 201.00
4,1, 7
11,476497452.4575567,99999999999999.0,20,17,60,-99999999999999.0,23,16,60
23,189395021.12320697,99999999999999.0,13,12,50,-99999999999999.0,18, 9,60
59,94134542.43658465,99999999999999.0, 1, 1,10,-99999999999999.0, 1, 8,10
521,287102431.3343494,99999999999999.0,15, 7,20,-99999999999999.0,27,20,10
637,0.0,99999999999999.0, 1, 1,10,-99999999999999.0, 3, 8,10
649,0.0,99999999999999.0, 1, 1,10,-99999999999999.0, 3, 8,10
5,1
13,476497452.4575567,99999999999999.0, 4,20,17,60,-99999999999999.0, 8,23,16,60
25,189395021.12320697,99999999999999.0, 4,13,12,50,-99999999999999.0, 3,18, 9,60
61,94134542.43658465,99999999999999.0, 1, 1, 1,10,-99999999999999.0, 1, 1, 8,10
523,287102431.3343494,99999999999999.0, 2,15, 7,20,-99999999999999.0, 1,27,20,10
639,0.0,99999999999999.0, 1, 1, 1,10,-99999999999999.0, 2, 3, 8,10
651,0.0,99999999999999.0, 1, 1, 1,10,-99999999999999.0, 2, 3, 8,10
End of Data
 Number of Records Written=          90
