Program Version,EnergyPlus, Version 24.2.0-94a887817b, YMD=2025.02.12 11:47
1,5,Environment Title[],Latitude[deg],Longitude[deg],Time Zone[],Elevation[m]
2,8,Day of Simulation[],Month[],Day of Month[],DST Indicator[1=yes 0=no],Hour[],StartMinute[],EndMinute[],DayType
3,5,Cumulative Day of Simulation[],Month[],Day of Month[],DST Indicator[1=yes 0=no],DayType  ! When Daily Report Variables Requested
4,2,Cumulative Days of Simulation[],Month[]  ! When Monthly Report Variables Requested
5,1,Cumulative Days of Simulation[] ! When Run Period Report Variables Requested
6,1,Calendar Year of Simulation[] ! When Annual Report Variables Requested
250,1,LIVING ZONE,Zone Air Temperature [C] !TimeStep,REPORTSCH
251,1,LIVING ZONE,Zone Air System Sensible Heating Energy [J] !TimeStep,REPORTSCH
336,1,LIVING ZONE,Zone Air System Sensible Cooling Energy [J] !TimeStep,REPORTSCH
385,1,LIVING ZONE,Zone Thermostat Heating Setpoint Temperature [C] !TimeStep,REPORTSCH
386,1,LIVING ZONE,Zone Thermostat Cooling Setpoint Temperature [C] !TimeStep,REPORTSCH
387,1,GARAGE ZONE,Zone Air Temperature [C] !TimeStep,REPORTSCH
388,1,GARAGE ZONE,Zone Air System Sensible Heating Energy [J] !TimeStep,REPORTSCH
425,1,GARAGE ZONE,Zone Air System Sensible Cooling Energy [J] !TimeStep,REPORTSCH
450,1,GARAGE ZONE,Zone Thermostat Heating Setpoint Temperature [C] !TimeStep,REPORTSCH
451,1,GARAGE ZONE,Zone Thermostat Cooling Setpoint Temperature [C] !TimeStep,REPORTSCH
452,1,ATTIC ZONE,Zone Air Temperature [C] !TimeStep,REPORTSCH
453,1,ATTIC ZONE,Zone Air System Sensible Heating Energy [J] !TimeStep,REPORTSCH
490,1,ATTIC ZONE,Zone Air System Sensible Cooling Energy [J] !TimeStep,REPORTSCH
515,1,ATTIC ZONE,Zone Thermostat Heating Setpoint Temperature [C] !TimeStep,REPORTSCH
516,1,ATTIC ZONE,Zone Thermostat Cooling Setpoint Temperature [C] !TimeStep,REPORTSCH
542,1,ACDXCOIL 1,Cooling Coil Total Cooling Energy [J] !TimeStep,REPORTSCH
592,1,HEAT PUMP DX HEATING COIL 1,Heating Coil Heating Energy [J] !TimeStep,REPORTSCH
632,1,SUPP HEATING COIL 1,Heating Coil Heating Energy [J] !TimeStep,REPORTSCH
686,1,TWOSPEED HEAT PUMP 1,Unitary System DX Coil Cycling Ratio [] !TimeStep,REPORTSCH
687,1,TWOSPEED HEAT PUMP 1,Unitary System DX Coil Speed Ratio [] !TimeStep,REPORTSCH
688,1,TWOSPEED HEAT PUMP 1,Unitary System DX Coil Speed Level [] !TimeStep,REPORTSCH
End of Data Dictionary
1,RUN PERIOD 1,  41.98, -87.92,  -6.00, 201.00
2,21, 1,21, 0, 1, 0.00,10.00,Monday
250,23.4128521409185
251,5789128.314092843
336,0.0
385,23.453333333333333
386,25.96
387,0.6396478047855226
388,0.0
425,0.0
450,0.0
451,0.0
452,-1.6121950241565939
453,0.0
490,0.0
515,0.0
516,0.0
542,0.0
592,3451698.521854235
632,2298904.704465138
686,0.7236477969055468
687,0.6666666666666666
688,1.6666666666666665
2,21, 1,21, 0, 1,10.00,20.00,Monday
250,23.64981228235295
251,7029636.273278095
336,0.0
385,24.12
386,25.96
387,0.6074614827359857
388,0.0
425,0.0
450,0.0
451,0.0
452,-1.5994609359940049
453,0.0
490,0.0
515,0.0
516,0.0
542,0.0
592,4863051.858123392
632,2709803.3562777066
686,1.0
687,1.0
688,2.0
2,21, 1,21, 0, 1,20.00,30.00,Monday
250,24.07535658868364
251,8143458.690903035
336,0.0
385,24.12
386,25.96
387,0.579923558832897
388,0.0
425,0.0
450,0.0
451,0.0
452,-1.5907034160285813
453,0.0
490,0.0
515,0.0
516,0.0
542,0.0
592,4844477.046506857
632,3163281.5331435516
686,1.0
687,1.0
688,2.0
2,21, 1,21, 0, 1,30.00,40.00,Monday
250,23.010730488195254
251,5994125.157021172
336,0.0
385,22.78666666666665
386,25.959999999999983
387,0.557336276510401
388,0.0
425,0.0
450,0.0
451,0.0
452,-1.5860494373902556
453,0.0
490,0.0
515,0.0
516,0.0
542,0.0
592,2621130.404442923
632,3279354.7981953523
686,0.5590432725240911
687,0.49999999999999967
688,1.1666666666666659
2,21, 1,21, 0, 1,40.00,50.00,Monday
250,23.414303841342115
251,5855387.882293703
336,0.0
385,23.45333333333335
386,25.96000000000002
387,0.5334969968357605
388,0.0
425,0.0
450,0.0
451,0.0
452,-1.5826705044972753
453,0.0
490,0.0
515,0.0
516,0.0
542,0.0
592,3426795.5171392476
632,2383632.6560426634
686,0.7293762803069784
687,0.6666666666666672
688,1.6666666666666679
2,21, 1,21, 0, 1,50.00,60.00,Monday
250,23.65159030403854
251,7099835.625774771
336,0.0
385,24.12
386,25.96
387,0.5048156122476252
388,0.0
425,0.0
450,0.0
451,0.0
452,-1.58009799569976
453,0.0
490,0.0
515,0.0
516,0.0
542,0.0
592,4799743.824327067
632,2842372.934021235
686,1.0
687,1.0
688,2.0
2,21, 1,21, 0, 2, 0.00,10.00,Monday
250,24.07556451952866
251,8197486.116705654
336,0.0
385,24.12
386,25.96
387,0.47944130945476615
388,0.0
425,0.0
450,0.0
451,0.0
452,-1.5801291137454851
453,0.0
490,0.0
515,0.0
516,0.0
542,0.0
592,4797025.276005209
632,3264327.640402862
686,1.0
687,1.0
688,2.0
2,21, 1,21, 0, 2,10.00,20.00,Monday
250,23.00874686705474
251,6032920.670078387
336,0.0
385,22.78666666666667
386,25.96
387,0.4578737894223032
388,0.0
425,0.0
450,0.0
451,0.0
452,-1.5841093018043093
453,0.0
490,0.0
515,0.0
516,0.0
542,0.0
592,2611857.347206258
632,3328017.0163948266
686,0.561324117245194
687,0.5
688,1.1666666666666665
2,21, 1,21, 0, 2,20.00,30.00,Monday
250,23.41473101895801
251,5883622.4538458465
336,0.0
385,23.453333333333326
386,25.959999999999994
387,0.43466044133259507
388,0.0
425,0.0
450,0.0
451,0.0
452,-1.591673075869628
453,0.0
490,0.0
515,0.0
516,0.0
542,0.0
592,3423196.856418736
632,2413501.7305455534
686,0.7315896012749072
687,0.6666666666666664
688,1.666666666666666
2,21, 1,21, 0, 2,30.00,40.00,Monday
250,23.652260159612577
251,7112328.681671803
336,0.0
385,24.119999999999994
386,25.959999999999994
387,0.40620044161147917
388,0.0
425,0.0
450,0.0
451,0.0
452,-1.6039477571247467
453,0.0
490,0.0
515,0.0
516,0.0
542,0.0
592,4799743.692590215
632,2854558.310320719
686,0.9999999999999997
687,0.9999999999999997
688,1.9999999999999993
2,21, 1,21, 0, 2,40.00,50.00,Monday
250,24.0756356593576
251,8208711.786742805
336,0.0
385,24.12
386,25.96
387,0.38063778007194343
388,0.0
425,0.0
450,0.0
451,0.0
452,-1.6178208030949623
453,0.0
490,0.0
515,0.0
516,0.0
542,0.0
592,4797025.276005209
632,3275396.5126327667
686,1.0
687,1.0
688,2.0
2,21, 1,21, 0, 2,50.00,60.00,Monday
250,23.008306214598164
251,6041481.177119432
336,0.0
385,22.786666666666633
386,25.959999999999965
387,0.35856826678557435
388,0.0
425,0.0
450,0.0
451,0.0
452,-1.6330596422066022
453,0.0
490,0.0
515,0.0
516,0.0
542,0.0
592,2613400.1212930777
632,3335180.223315849
686,0.561769597188715
687,0.49999999999999933
688,1.166666666666665
2,21, 1,21, 0, 3, 0.00,10.00,Monday
250,23.41506982802491
251,5904334.896268811
336,0.0
385,23.453333333333333
386,25.96
387,0.3351781639803354
388,0.0
425,0.0
450,0.0
451,0.0
452,-1.6489649079834319
453,0.0
490,0.0
515,0.0
516,0.0
542,0.0
592,3428448.758184459
632,2427451.726333813
686,0.7331069031703761
687,0.6666666666666666
688,1.6666666666666665
2,21, 1,21, 0, 3,10.00,20.00,Monday
250,23.652944522569406
251,7143893.081589046
336,0.0
385,24.12
386,25.96
387,0.30724391270162593
388,0.0
425,0.0
450,0.0
451,0.0
452,-1.6636988838477025
453,0.0
490,0.0
515,0.0
516,0.0
542,0.0
592,4799743.597672855
632,2886014.655811979
686,1.0
687,1.0
688,2.0
2,21, 1,21, 0, 3,20.00,30.00,Monday
250,24.075727746727317
251,8250011.75885587
336,0.0
385,24.12
386,25.96
387,0.28325666255684584
388,0.0
425,0.0
450,0.0
451,0.0
452,-1.6699063585812959
453,0.0
490,0.0
515,0.0
516,0.0
542,0.0
592,4797025.27600521
632,3316530.0625260305
686,1.0
687,1.0
688,2.0
2,21, 1,21, 0, 3,30.00,40.00,Monday
250,23.005618030355897
251,6092601.916069505
336,0.0
385,22.78666666666665
386,25.959999999999983
387,0.26387886924682213
388,0.0
425,0.0
450,0.0
451,0.0
452,-1.6690051292610313
453,0.0
490,0.0
515,0.0
516,0.0
542,0.0
592,2622339.764101037
632,3378240.847594901
686,0.5643509319913416
687,0.49999999999999967
688,1.1666666666666659
2,21, 1,21, 0, 3,40.00,50.00,Monday
250,23.415913382154415
251,5958634.3653316675
336,0.0
385,23.45333333333335
386,25.96000000000002
387,0.2439471980823244
388,0.0
425,0.0
450,0.0
451,0.0
452,-1.6647652488537474
453,0.0
490,0.0
515,0.0
516,0.0
542,0.0
592,3442922.9166494394
632,2463347.7967294184
686,0.7372881809283213
687,0.6666666666666672
688,1.6666666666666679
2,21, 1,21, 0, 3,50.00,60.00,Monday
250,23.654218271958026
251,7192970.362814153
336,0.0
385,24.12
386,25.96
387,0.22056102678569153
388,0.0
425,0.0
450,0.0
451,0.0
452,-1.656126894181855
453,0.0
490,0.0
515,0.0
516,0.0
542,0.0
592,4799743.308609586
632,2934306.8625258524
686,1.0
687,1.0
688,2.0
2,21, 1,21, 0, 4, 0.00,10.00,Monday
250,24.0759101949576
251,8366639.102785163
336,0.0
385,24.12
386,25.96
387,0.1963553934437003
388,0.0
425,0.0
450,0.0
451,0.0
452,-1.6474520470526062
453,0.0
490,0.0
515,0.0
516,0.0
542,0.0
592,4792145.574879369
632,3437716.189579282
686,1.0
687,1.0
688,2.0
2,21, 1,21, 0, 4,10.00,20.00,Monday
250,22.995952660795844
251,6275550.481465751
336,0.0
385,22.78666666666667
386,25.96
387,0.17158484845927233
388,0.0
425,0.0
450,0.0
451,0.0
452,-1.6414491660169284
453,0.0
490,0.0
515,0.0
516,0.0
542,0.0
592,2649276.3215145646
632,3537414.334135416
686,0.573709997934586
687,0.5
688,1.1666666666666665
2,21, 1,21, 0, 4,20.00,30.00,Monday
250,23.420432610882614
251,6227794.666798933
336,0.0
385,23.453333333333326
386,25.959999999999994
387,0.14290974059760247
388,0.0
425,0.0
450,0.0
451,0.0
452,-1.638108122816093
453,0.0
490,0.0
515,0.0
516,0.0
542,0.0
592,3507473.8656517277
632,2646743.9311626516
686,0.7592216956792682
687,0.6666666666666664
688,1.666666666666666
2,21, 1,21, 0, 4,30.00,40.00,Monday
250,23.66000020216937
251,7506171.642078972
336,0.0
385,24.119999999999994
386,25.959999999999994
387,0.10583505580608076
388,0.0
425,0.0
450,0.0
451,0.0
452,-1.6385587644145299
453,0.0
490,0.0
515,0.0
516,0.0
542,0.0
592,4780620.579163979
632,3261873.1867325287
686,0.9999999999999997
687,0.9999999999999997
688,1.9999999999999993
2,21, 1,21, 0, 4,40.00,50.00,Monday
250,24.076611245275636
251,8686776.359460918
336,0.0
385,24.12
386,25.96
387,0.07135183136807617
388,0.0
425,0.0
450,0.0
451,0.0
452,-1.644572142197883
453,0.0
490,0.0
515,0.0
516,0.0
542,0.0
592,4771081.634377802
632,3777416.412152173
686,1.0
687,1.0
688,2.0
2,21, 1,21, 0, 4,50.00,60.00,Monday
250,22.97893643611662
251,6598295.590943536
336,0.0
385,22.786666666666633
386,25.959999999999965
387,0.04029188129618343
388,0.0
425,0.0
450,0.0
451,0.0
452,-1.6545084270228698
453,0.0
490,0.0
515,0.0
516,0.0
542,0.0
592,2694760.724451255
632,3820277.904223163
686,0.590440283487588
687,0.49999999999999933
688,1.166666666666665
2,21, 1,21, 0, 5, 0.00,10.00,Monday
250,23.423808132683266
251,6456833.168305461
336,0.0
385,23.453333333333333
386,25.96
387,0.014966532374839645
388,0.0
425,0.0
450,0.0
451,0.0
452,-1.6628779534623424
453,0.0
490,0.0
515,0.0
516,0.0
542,0.0
592,3555415.753742868
632,2811529.0324210864
686,0.7779886230764422
687,0.6666666666666666
688,1.6666666666666665
2,21, 1,21, 0, 5,10.00,20.00,Monday
250,23.663988292428844
251,7592482.941524855
336,0.0
385,24.12
386,25.96
387,-0.0077811036106176295
388,0.0
425,0.0
450,0.0
451,0.0
452,-1.6666465804528752
453,0.0
490,0.0
515,0.0
516,0.0
542,0.0
592,4757805.7806983935
632,3366490.8931890526
686,1.0
687,1.0
688,2.0
2,21, 1,21, 0, 5,20.00,30.00,Monday
250,24.07700494349765
251,8666717.604055293
336,0.0
385,24.12
386,25.96
387,-0.02192723747585785
388,0.0
425,0.0
450,0.0
451,0.0
452,-1.6604873471490238
453,0.0
490,0.0
515,0.0
516,0.0
542,0.0
592,4747356.631969323
632,3780031.0427066647
686,1.0
687,1.0
688,2.0
2,21, 1,21, 0, 5,30.00,40.00,Monday
250,22.986240574038895
251,6460792.369106398
336,0.0
385,22.78666666666665
386,25.959999999999983
387,-0.029017886402536584
388,0.0
425,0.0
450,0.0
451,0.0
452,-1.6452418544976417
453,0.0
490,0.0
515,0.0
516,0.0
542,0.0
592,2658152.528512532
632,3716872.0149812847
686,0.5838494930661939
687,0.49999999999999967
688,1.1666666666666659
2,21, 1,21, 0, 5,40.00,50.00,Monday
250,23.421534071364498
251,6309677.960982572
336,0.0
385,23.45333333333335
386,25.96000000000002
387,-0.03398019493742531
388,0.0
425,0.0
450,0.0
451,0.0
452,-1.622551084175265
453,0.0
490,0.0
515,0.0
516,0.0
542,0.0
592,3495375.8118542805
632,2735338.331849324
686,0.7660856949298912
687,0.6666666666666672
688,1.6666666666666679
2,21, 1,21, 0, 5,50.00,60.00,Monday
250,23.661638743583225
251,7463477.088347059
336,0.0
385,24.12
386,25.96
387,-0.03750896719014642
388,0.0
425,0.0
450,0.0
451,0.0
452,-1.5892653821258966
453,0.0
490,0.0
515,0.0
516,0.0
542,0.0
592,4728166.277121474
632,3270118.6214773394
686,1.0
687,1.0
688,2.0
2,21, 1,21, 0, 6, 0.00,10.00,Monday
250,24.07677104706066
251,8617688.246052142
336,0.0
385,24.12
386,25.96
387,-0.04699866106842887
388,0.0
425,0.0
450,0.0
451,0.0
452,-1.56196911349033
453,0.0
490,0.0
515,0.0
516,0.0
542,0.0
592,4721419.738568604
632,3757565.9680071296
686,1.0
687,1.0
688,2.0
2,21, 1,21, 0, 6,10.00,20.00,Monday
250,22.98432228766417
251,6497000.4680935955
336,0.0
385,22.78666666666667
386,25.96
387,-0.06283428196923084
388,0.0
425,0.0
450,0.0
451,0.0
452,-1.5486084558860325
453,0.0
490,0.0
515,0.0
516,0.0
542,0.0
592,2652749.6595270135
632,3759068.3804691825
686,0.5861032166010897
687,0.5
688,1.1666666666666665
2,21, 1,21, 0, 6,20.00,30.00,Monday
250,23.42394124892841
251,6440842.119351737
336,0.0
385,23.453333333333326
386,25.959999999999994
387,-0.08386722222660617
388,0.0
425,0.0
450,0.0
451,0.0
452,-1.5454669076279486
453,0.0
490,0.0
515,0.0
516,0.0
542,0.0
592,3518341.932415277
632,2832322.2420924227
686,0.7773498739654577
687,0.6666666666666664
688,1.666666666666666
2,21, 1,21, 0, 6,30.00,40.00,Monday
250,23.66459425155174
251,7671606.83206049
336,0.0
385,24.119999999999994
386,25.959999999999994
387,-0.1136223651643698
388,0.0
425,0.0
450,0.0
451,0.0
452,-1.554062662702112
453,0.0
490,0.0
515,0.0
516,0.0
542,0.0
592,4712200.014446195
632,3491915.4278086033
686,0.9999999999999997
687,0.9999999999999997
688,1.9999999999999993
2,21, 1,21, 0, 6,40.00,50.00,Monday
250,24.077131827949728
251,8829306.268881325
336,0.0
385,24.12
386,25.96
387,-0.14313104619219869
388,0.0
425,0.0
450,0.0
451,0.0
452,-1.5729976847285294
453,0.0
490,0.0
515,0.0
516,0.0
542,0.0
592,4703510.587502488
632,3986334.559036828
686,1.0
687,1.0
688,2.0
2,21, 1,21, 0, 6,50.00,60.00,Monday
250,22.973071680688395
251,6710117.661382945
336,0.0
385,22.786666666666633
386,25.959999999999965
387,-0.1711572756914076
388,0.0
425,0.0
450,0.0
451,0.0
452,-1.600015589947818
453,0.0
490,0.0
515,0.0
516,0.0
542,0.0
592,2680683.8291923804
632,3947956.9102848796
686,0.5974425716569527
687,0.49999999999999933
688,1.166666666666665
2,21, 1,21, 0, 7, 0.00,10.00,Monday
250,23.427768115274226
251,6681337.804760791
336,0.0
385,23.453333333333333
386,25.96
387,-0.20666132180338087
388,0.0
425,0.0
450,0.0
451,0.0
452,-1.646715660941073
453,0.0
490,0.0
515,0.0
516,0.0
542,0.0
592,3591341.9508535704
632,2981510.061340019
686,0.7973549496751822
687,0.6666666666666666
688,1.6666666666666665
2,21, 1,21, 0, 7,10.00,20.00,Monday
250,23.66843163548712
251,7847347.128019399
336,0.0
385,24.12
386,25.96
387,-0.2584350179426567
388,0.0
425,0.0
450,0.0
451,0.0
452,-1.7363913569981164
453,0.0
490,0.0
515,0.0
516,0.0
542,0.0
592,4746256.866031186
632,3628605.4640460336
686,1.0
687,1.0
688,2.0
2,21, 1,21, 0, 7,20.00,30.00,Monday
250,24.07751873826713
251,8963286.41257735
336,0.0
385,24.12
386,25.96
387,-0.3128131767463321
388,0.0
425,0.0
450,0.0
451,0.0
452,-1.8592886689736239
453,0.0
490,0.0
515,0.0
516,0.0
542,0.0
592,4761369.827767804
632,4061427.726229064
686,1.0
687,1.0
688,2.0
2,21, 1,21, 0, 7,30.00,40.00,Monday
250,22.968009105235016
251,6804712.262948699
336,0.0
385,22.78666666666665
386,25.959999999999983
387,-0.36798504541863347
388,0.0
425,0.0
450,0.0
451,0.0
452,-2.0103992966760744
453,0.0
490,0.0
515,0.0
516,0.0
542,0.0
592,2738844.7030013213
632,3986322.849624421
686,0.6006799379608787
687,0.49999999999999967
688,1.1666666666666659
2,21, 1,21, 0, 7,40.00,50.00,Monday
250,23.428284881790724
251,6743528.746948499
336,0.0
385,23.45333333333335
386,25.96000000000002
387,-0.4337665859423339
388,0.0
425,0.0
450,0.0
451,0.0
452,-2.201622635158542
453,0.0
490,0.0
515,0.0
516,0.0
542,0.0
592,3663916.1811404037
632,2968470.0226924485
686,0.8008559619343087
687,0.6666666666666672
688,1.6666666666666679
2,21, 1,21, 0, 7,50.00,60.00,Monday
250,23.669125316818647
251,7900139.926117518
336,0.0
385,24.12
386,25.96
387,-0.5219413755772849
388,0.0
425,0.0
450,0.0
451,0.0
452,-2.4582310351485193
453,0.0
490,0.0
515,0.0
516,0.0
542,0.0
592,4825268.708216164
632,3601255.259240642
686,1.0
687,1.0
688,2.0
2,21, 1,21, 0, 8, 0.00,10.00,Monday
250,24.077600063105386
251,8668218.795626765
336,0.0
385,24.12
386,25.96
387,-0.5972288831224302
388,0.0
425,0.0
450,0.0
451,0.0
452,-2.6898180082464656
453,0.0
490,0.0
515,0.0
516,0.0
542,0.0
592,4829340.300401132
632,3698164.003004535
686,1.0
687,1.0
688,2.0
2,21, 1,21, 0, 8,10.00,20.00,Monday
250,22.988952005430605
251,6408521.078379047
336,0.0
385,22.78666666666667
386,25.96
387,-0.6476430307473835
388,0.0
425,0.0
450,0.0
451,0.0
452,-2.805099498787241
453,0.0
490,0.0
515,0.0
516,0.0
542,0.0
592,2701388.2363187913
632,3620595.558541435
686,0.5802571684873107
687,0.5
688,1.1666666666666665
2,21, 1,21, 0, 8,20.00,30.00,Monday
250,23.42055017476566
251,6267450.700889535
336,0.0
385,23.453333333333326
386,25.959999999999994
387,-0.6911455405439191
388,0.0
425,0.0
450,0.0
451,0.0
452,-2.823624338230297
453,0.0
490,0.0
515,0.0
516,0.0
542,0.0
592,3562693.0762436404
632,2630643.7471730206
686,0.7608692574642876
687,0.6666666666666664
688,1.666666666666666
2,21, 1,21, 0, 8,30.00,40.00,Monday
250,23.661217210554703
251,7393388.109106872
336,0.0
385,24.119999999999994
386,25.959999999999994
387,-0.729786990358069
388,0.0
425,0.0
450,0.0
451,0.0
452,-2.727174835883076
453,0.0
490,0.0
515,0.0
516,0.0
542,0.0
592,4867434.863173325
632,3061864.021277651
686,0.9999999999999997
687,0.9999999999999997
688,1.9999999999999993
2,21, 1,21, 0, 8,40.00,50.00,Monday
250,24.076713738770913
251,8406087.205248032
336,0.0
385,24.12
386,25.96
387,-0.7469873364241149
388,0.0
425,0.0
450,0.0
451,0.0
452,-2.518201550229742
453,0.0
490,0.0
515,0.0
516,0.0
542,0.0
592,4871363.73121823
632,3396035.865059262
686,1.0
687,1.0
688,2.0
2,21, 1,21, 0, 8,50.00,60.00,Monday
250,23.003675361982033
251,6128037.438436769
336,0.0
385,22.786666666666633
386,25.959999999999965
387,-0.7406041914572519
388,0.0
425,0.0
450,0.0
451,0.0
452,-2.214891996720349
453,0.0
490,0.0
515,0.0
516,0.0
542,0.0
592,2673458.8708934393
632,3363258.451965361
686,0.5656238829069635
687,0.49999999999999933
688,1.166666666666665
2,21, 1,21, 0, 9, 0.00,10.00,Monday
250,23.409219048689092
251,5616086.772055066
336,0.0
385,23.453333333333333
386,25.96
387,-0.7143130333725163
388,0.0
425,0.0
450,0.0
451,0.0
452,-1.8175665627366224
453,0.0
490,0.0
515,0.0
516,0.0
542,0.0
592,3413253.648351278
632,2181700.511639823
686,0.7082001415788567
687,0.6666666666666666
688,1.6666666666666665
2,21, 1,21, 0, 9,10.00,20.00,Monday
250,24.050769615291156
251,7595101.179496631
336,0.0
385,24.12
386,25.96
387,-0.6678194581529955
388,0.0
425,0.0
450,0.0
451,0.0
452,-1.3121554323068865
453,0.0
490,0.0
515,0.0
516,0.0
542,0.0
592,4916735.505984356
632,2605402.0458205063
686,1.0
687,1.0
688,2.0
2,21, 1,21, 0, 9,20.00,30.00,Monday
250,23.026860475929563
251,5668260.243402951
336,0.0
385,22.786666666666687
386,25.960000000000015
387,-0.6080779563351961
388,0.0
425,0.0
450,0.0
451,0.0
452,-0.7777530931592678
453,0.0
490,0.0
515,0.0
516,0.0
542,0.0
592,2621842.59305102
632,2947718.6933714105
686,0.5430240093718313
687,0.5000000000000004
688,1.1666666666666674
2,21, 1,21, 0, 9,30.00,40.00,Monday
250,23.406104245511266
251,5380183.050243674
336,0.0
385,23.45333333333335
386,25.96000000000002
387,-0.5358377695704969
388,0.0
425,0.0
450,0.0
451,0.0
452,-0.1928624488216352
453,0.0
490,0.0
515,0.0
516,0.0
542,0.0
592,3388015.414997905
632,1985819.5943136208
686,0.690778704332791
687,0.6666666666666672
688,1.6666666666666679
2,21, 1,21, 0, 9,40.00,50.00,Monday
250,23.437484484079825
251,6767979.132004241
336,0.0
385,23.45333333333335
386,25.96000000000002
387,-0.43581637978798043
388,0.0
425,0.0
450,0.0
451,0.0
452,0.5747596161951173
453,0.0
490,0.0
515,0.0
516,0.0
542,0.0
592,2853756.963936043
632,3811459.2850421504
686,0.6681375711025821
687,0.3333333333333336
688,1.3333333333333344
2,21, 1,21, 0, 9,50.00,60.00,Monday
250,23.438914229559646
251,6751382.218644459
336,0.0
385,23.45333333333335
386,25.96000000000002
387,-0.3451904172719017
388,0.0
425,0.0
450,0.0
451,0.0
452,1.185645955833293
453,0.0
490,0.0
515,0.0
516,0.0
542,0.0
592,2885933.1115255714
632,3756369.915401809
686,0.6741139625069614
687,0.3333333333333336
688,1.3333333333333344
2,21, 1,21, 0,10, 0.00,10.00,Monday
250,24.053320074470605
251,7413720.7103466
336,0.0
385,24.12
386,25.96
387,-0.26515909089614426
388,0.0
425,0.0
450,0.0
451,0.0
452,1.6802009481570757
453,0.0
490,0.0
515,0.0
516,0.0
542,0.0
592,5021226.017901814
632,2311713.98698402
686,1.0
687,1.0
688,2.0
2,21, 1,21, 0,10,10.00,20.00,Monday
250,23.038809791549987
251,5425916.399136535
336,0.0
385,22.78666666666667
386,25.96
387,-0.18485646934056238
388,0.0
425,0.0
450,0.0
451,0.0
452,2.1500336000972395
453,0.0
490,0.0
515,0.0
516,0.0
542,0.0
592,2535197.653539926
632,2797528.449387311
686,0.5294871110261079
687,0.4280941671422677
688,1.1666666666666665
2,21, 1,21, 0,10,20.00,30.00,Monday
250,23.401475161990632
251,5095764.365890201
336,0.0
385,23.453333333333326
386,25.959999999999994
387,-0.08923209329013865
388,0.0
425,0.0
450,0.0
451,0.0
452,2.676560542711045
453,0.0
490,0.0
515,0.0
516,0.0
542,0.0
592,3404645.819191364
632,1705566.109074214
686,0.6699489455274299
687,0.6666666666666664
688,1.666666666666666
2,21, 1,21, 0,10,30.00,40.00,Monday
250,23.43143133657533
251,6442324.400729535
336,0.0
385,23.453333333333344
386,25.96000000000001
387,0.05947111276481304
388,0.0
425,0.0
450,0.0
451,0.0
452,3.4072258356934166
453,0.0
490,0.0
515,0.0
516,0.0
542,0.0
592,2702138.3416423383
632,3672562.0447321255
686,0.603310956675067
687,0.3333333333333332
688,1.3333333333333335
2,21, 1,21, 0,10,40.00,50.00,Monday
250,23.43102860759918
251,6324323.317275302
336,0.0
385,23.45333333333335
386,25.96000000000002
387,0.20771867001764263
388,0.0
425,0.0
450,0.0
451,0.0
452,4.107670693245479
453,0.0
490,0.0
515,0.0
516,0.0
542,0.0
592,2676607.9184409464
632,3584099.1974314996
686,0.591692242075539
687,0.3333333333333336
688,1.3333333333333344
2,21, 1,21, 0,10,50.00,60.00,Monday
250,23.42926437877119
251,6220176.948209356
336,0.0
385,23.45333333333335
386,25.96000000000002
387,0.3681591719558992
388,0.0
425,0.0
450,0.0
451,0.0
452,4.869090563686936
453,0.0
490,0.0
515,0.0
516,0.0
542,0.0
592,2622177.8298252714
632,3544666.0520493663
686,0.5724793158532736
687,0.3333333333333336
688,1.3333333333333344
2,21, 1,21, 0,11, 0.00,10.00,Monday
250,23.4274311161612
251,6115732.776247823
336,0.0
385,23.453333333333333
386,25.96
387,0.5408628880519838
388,0.0
425,0.0
450,0.0
451,0.0
452,5.694774119503308
453,0.0
490,0.0
515,0.0
516,0.0
542,0.0
592,2562212.6400748095
632,3510577.1160451914
686,0.553975509386725
687,0.3333333333333333
688,1.3333333333333335
2,21, 1,21, 0,11,10.00,20.00,Monday
250,23.425540473297563
251,6007222.8848316865
336,0.0
385,23.453333333333333
386,25.96
387,0.7236175706946729
388,0.0
425,0.0
450,0.0
451,0.0
452,6.56420633847134
453,0.0
490,0.0
515,0.0
516,0.0
542,0.0
592,2500020.2962409873
632,3474921.2367781233
686,0.5350110681351806
687,0.33333333333333337
688,1.3333333333333333
2,21, 1,21, 0,11,20.00,30.00,Monday
250,23.246239477693695
251,5136272.997008877
336,0.0
385,23.12
386,25.96
387,0.8740446204603661
388,0.0
425,0.0
450,0.0
451,0.0
452,7.339229596495929
453,0.0
490,0.0
515,0.0
516,0.0
542,0.0
592,3842691.618411918
632,1130644.795173309
686,0.75
687,0.6881689407547679
688,1.5
2,21, 1,21, 0,11,30.00,40.00,Monday
250,23.19862743893137
251,5715538.292923426
336,0.0
385,23.12
386,25.96
387,1.1077504974872987
388,0.0
425,0.0
450,0.0
451,0.0
452,8.366062220466244
453,0.0
490,0.0
515,0.0
516,0.0
542,0.0
592,3032135.223133686
632,2594305.217219185
686,0.6055662369306521
687,0.5
688,1.25
2,21, 1,21, 0,11,40.00,50.00,Monday
250,23.202075069552677
251,5541540.235222801
336,0.0
385,23.12
386,25.96
387,1.3371872651204981
388,0.0
425,0.0
450,0.0
451,0.0
452,9.240864404041304
453,0.0
490,0.0
515,0.0
516,0.0
542,0.0
592,3040879.8108971603
632,2415518.720987335
686,0.605043834072436
687,0.5
688,1.25
2,21, 1,21, 0,11,50.00,60.00,Monday
250,23.47291656202268
251,4382028.299491179
336,0.0
385,23.45333333333335
386,25.96000000000002
387,1.515260732992663
388,0.0
425,0.0
450,0.0
451,0.0
452,9.890683888678517
453,0.0
490,0.0
515,0.0
516,0.0
542,0.0
592,3347721.135360821
632,1028319.3025937799
686,0.6666666666666672
687,0.5418523392250696
688,1.3333333333333344
2,21, 1,21, 0,12, 0.00,10.00,Monday
250,23.101598629034093
251,4439873.176088393
336,0.0
385,22.92
386,25.96
387,1.6925042083430506
388,0.0
425,0.0
450,0.0
451,0.0
452,10.4575840734739
453,0.0
490,0.0
515,0.0
516,0.0
542,0.0
592,2331114.681322764
632,2153679.36626148
686,0.4540958931539322
687,0.4
688,1.0
2,21, 1,21, 0,12,10.00,20.00,Monday
250,23.380580853537356
251,5984076.865894049
336,0.0
385,23.453333333333333
386,25.96
387,1.8801128697971374
388,0.0
425,0.0
450,0.0
451,0.0
452,10.951293779863713
453,0.0
490,0.0
515,0.0
516,0.0
542,0.0
592,3446978.647820742
632,2616604.101404954
686,0.7706595087804085
687,0.33333333333333337
688,1.3333333333333333
2,21, 1,21, 0,12,20.00,30.00,Monday
250,23.528607866109773
251,4403397.2884185035
336,0.0
385,23.453333333333326
386,25.959999999999994
387,2.134361814463171
388,0.0
425,0.0
450,0.0
451,0.0
452,11.450814388395287
453,0.0
490,0.0
515,0.0
516,0.0
542,0.0
592,3547504.266492871
632,813738.1627982818
686,0.6666666666666664
687,0.6666666666666664
688,1.3333333333333328
2,21, 1,21, 0,12,30.00,40.00,Monday
250,23.124353255837857
251,4261062.249956915
336,0.0
385,22.919999999999995
386,25.959999999999994
387,2.279372899860294
388,0.0
425,0.0
450,0.0
451,0.0
452,11.6627375880701
453,0.0
490,0.0
515,0.0
516,0.0
542,0.0
592,2277867.5288517834
632,2023220.134745941
686,0.4394931754386759
687,0.39529173505245463
688,0.9999999999999993
2,21, 1,21, 0,12,40.00,50.00,Monday
250,23.379182458725566
251,5823706.699350314
336,0.0
385,23.45333333333335
386,25.96000000000002
387,2.4159942645868853
388,0.0
425,0.0
450,0.0
451,0.0
452,11.76300641172865
453,0.0
490,0.0
515,0.0
516,0.0
542,0.0
592,3345127.574861285
632,2566837.253604664
686,0.7404661721411596
687,0.3333333333333336
688,1.3333333333333344
2,21, 1,21, 0,12,50.00,60.00,Monday
250,23.536796345770615
251,4322728.937024556
336,0.0
385,23.45333333333335
386,25.96000000000002
387,2.5875008798958636
388,0.0
425,0.0
450,0.0
451,0.0
452,11.761409145436684
453,0.0
490,0.0
515,0.0
516,0.0
542,0.0
592,3562263.8489171388
632,718515.225448065
686,0.6666666666666672
687,0.6666666666666672
688,1.3333333333333344
2,21, 1,21, 0,13, 0.00,10.00,Monday
250,23.13050953259696
251,4197002.468797391
336,0.0
385,22.92
386,25.96
387,2.6786484215135165
388,0.0
425,0.0
450,0.0
451,0.0
452,11.670056409977542
453,0.0
490,0.0
515,0.0
516,0.0
542,0.0
592,2229979.1694073305
632,2007847.3937758023
686,0.43370877455829976
687,0.37469549119065226
688,1.0
2,21, 1,21, 0,13,10.00,20.00,Monday
250,23.378057759681575
251,5702472.051520893
336,0.0
385,23.453333333333333
386,25.96
387,2.7635528789068866
388,0.0
425,0.0
450,0.0
451,0.0
452,11.578222150230204
453,0.0
490,0.0
515,0.0
516,0.0
542,0.0
592,3269067.394066916
632,2527855.71277505
686,0.7207090792747862
687,0.33333333333333337
688,1.3333333333333333
2,21, 1,21, 0,13,20.00,30.00,Monday
250,23.55071183810714
251,4200849.774426111
336,0.0
385,23.453333333333326
386,25.959999999999994
387,2.8727553791834426
388,0.0
425,0.0
450,0.0
451,0.0
452,11.491002141829957
453,0.0
490,0.0
515,0.0
516,0.0
542,0.0
592,3554755.5929612066
632,604332.7105798959
686,0.6666666666666664
687,0.6666666666666664
688,1.3333333333333328
2,21, 1,21, 0,13,30.00,40.00,Monday
250,23.146333434621262
251,4062439.9431884177
336,0.0
385,22.919999999999995
386,25.959999999999994
387,2.9386330831119687
388,0.0
425,0.0
450,0.0
451,0.0
452,11.463881015995813
453,0.0
490,0.0
515,0.0
516,0.0
542,0.0
592,2097030.3963735523
632,2008975.2688812648
686,0.4243921037429625
687,0.3118748487857701
688,0.9999999999999993
2,21, 1,21, 0,13,40.00,50.00,Monday
250,23.376054977846415
251,5487645.330356024
336,0.0
385,23.45333333333335
386,25.96000000000002
387,3.0065717341920077
388,0.0
425,0.0
450,0.0
451,0.0
452,11.447734888583717
453,0.0
490,0.0
515,0.0
516,0.0
542,0.0
592,3121194.045891305
632,2473668.437398372
686,0.6839808446674505
687,0.3333333333333336
688,1.3333333333333344
2,21, 1,21, 0,13,50.00,60.00,Monday
250,23.104021682193906
251,5125786.485125991
336,0.0
385,23.12
386,25.96
387,3.0751760657733844
388,0.0
425,0.0
450,0.0
451,0.0
452,11.436770376167505
453,0.0
490,0.0
515,0.0
516,0.0
542,0.0
592,3142434.5093259662
632,2058614.8306717323
686,0.6252039367728639
687,0.5
688,1.25
2,21, 1,21, 0,14, 0.00,10.00,Monday
250,23.376533225658314
251,5413123.161502536
336,0.0
385,23.453333333333333
386,25.96
387,3.1470349180599895
388,0.0
425,0.0
450,0.0
451,0.0
452,11.395493100021984
453,0.0
490,0.0
515,0.0
516,0.0
542,0.0
592,3086084.734628899
632,2441307.85747128
686,0.6734366226204194
687,0.3333333333333333
688,1.3333333333333335
2,21, 1,21, 0,14,10.00,20.00,Monday
250,23.115621125046317
251,4944140.527818551
336,0.0
385,23.12
386,25.96
387,3.2166174711141258
388,0.0
425,0.0
450,0.0
451,0.0
452,11.290294559617507
453,0.0
490,0.0
515,0.0
516,0.0
542,0.0
592,3101167.032323452
632,1914457.0741024192
686,0.6108199978783737
687,0.5
688,1.25
2,21, 1,21, 0,14,20.00,30.00,Monday
250,23.375238242650614
251,5287065.428397279
336,0.0
385,23.453333333333326
386,25.959999999999994
387,3.282971485918093
388,0.0
425,0.0
450,0.0
451,0.0
452,11.121296878915684
453,0.0
490,0.0
515,0.0
516,0.0
542,0.0
592,3006540.7658150615
632,2403447.5103419754
686,0.6491017224912194
687,0.3333333333333332
688,1.3333333333333328
2,21, 1,21, 0,14,30.00,40.00,Monday
250,23.119092506600808