Program Version,EnergyPlus, Version 24.2.0-94a887817b, YMD=2025.02.11 00:15
1,5,Environment Title[],Latitude[deg],Longitude[deg],Time Zone[],Elevation[m]
2,8,Day of Simulation[],Month[],Day of Month[],DST Indicator[1=yes 0=no],Hour[],StartMinute[],EndMinute[],DayType
3,5,Cumulative Day of Simulation[],Month[],Day of Month[],DST Indicator[1=yes 0=no],DayType  ! When Daily Meters Requested
4,2,Cumulative Days of Simulation[],Month[]  ! When Monthly Meters Requested
5,1,Cumulative Days of Simulation[] ! When Run Period Meters Requested
6,1,Calendar Year of Simulation[] ! When Annual Meters Requested
11,9,Electricity:Facility [J] !Monthly [Value,Min,Day,Hour,Minute,Max,Day,Hour,Minute]
23,9,Electricity:Building [J] !Monthly [Value,Min,Day,Hour,Minute,Max,Day,Hour,Minute]
59,9,InteriorLights:Electricity [J] !Monthly [Value,Min,Day,Hour,Minute,Max,Day,Hour,Minute]
521,9,Electricity:HVAC [J] !Monthly [Value,Min,Day,Hour,Minute,Max,Day,Hour,Minute]
637,9,NaturalGas:Facility [J] !Monthly [Value,Min,Day,Hour,Minute,Max,Day,Hour,Minute]
649,9,NaturalGas:HVAC [J] !Monthly [Value,Min,Day,Hour,Minute,Max,Day,Hour,Minute]
13,11,Electricity:Facility [J] !RunPeriod [Value,Min,Month,Day,Hour,Minute,Max,Month,Day,Hour,Minute]
25,11,Electricity:Building [J] !RunPeriod [Value,Min,Month,Day,Hour,Minute,Max,Month,Day,Hour,Minute]
61,11,InteriorLights:Electricity [J] !RunPeriod [Value,Min,Month,Day,Hour,Minute,Max,Month,Day,Hour,Minute]
523,11,Electricity:HVAC [J] !RunPeriod [Value,Min,Month,Day,Hour,Minute,Max,Month,Day,Hour,Minute]
639,11,NaturalGas:Facility [J] !RunPeriod [Value,Min,Month,Day,Hour,Minute,Max,Month,Day,Hour,Minute]
651,11,NaturalGas:HVAC [J] !RunPeriod [Value,Min,Month,Day,Hour,Minute,Max,Month,Day,Hour,Minute]
End of Data Dictionary
1,RUN PERIOD 1,  41.98, -87.92,  -6.00, 201.00
4,31, 1
11,9628411543.87754,446777.07647323905,11,20,60,3501310.1142737255,23,13,60
23,1846696936.9460728,110268.06853629772,11,20,50,1008619.2362798781,31,14,20
59,911484871.3750535,28184.442528603144, 1, 1,10,563688.8505720628, 1, 8,10
521,7781714606.931497,120000.0,10,14,10,2580566.0310358116,27,19,40
637,17816946671.121204,0.0, 1, 8,30,21285559.622234024,31, 7,50
649,17816946671.121204,0.0, 1, 8,30,21285559.622234024,31, 7,50
4,59, 2
11,8234922503.402341,99999999999999.0,11,20,60,3519789.5769614815,21,12,60
23,1629689609.797791,99999999999999.0,11,20,50,1008958.1299828078, 4, 9,50
59,796830559.1686871,99999999999999.0, 1, 1,10,-99999999999999.0, 1, 8,10
521,6605232893.60458,0.0,28,15,60,2615115.1402974594, 5, 1,50
637,14391407357.71311,99999999999999.0, 1, 8,30,22805163.003447972, 3,10,30
649,14391407357.71311,99999999999999.0, 1, 8,30,22805163.003447972, 3,10,30
4,90, 3
11,8394863209.701851,99952.74582417234,31,16,40,-99999999999999.0,21,12,60
23,1719138690.3473973,96773.10983910323,31,16,50,1018222.0290260636,18, 9,60
59,843165782.6857145,99999999999999.0, 1, 1,10,-99999999999999.0, 1, 8,10
521,6675724519.354462,99999999999999.0,28,15,60,-99999999999999.0, 5, 1,50
637,10844304739.6173,99999999999999.0, 1, 8,30,-99999999999999.0, 3,10,30
649,10844304739.6173,99999999999999.0, 1, 8,30,-99999999999999.0, 3,10,30
4,120, 4
11,6047456132.5608225,28184.442528603144,12,19,10,-99999999999999.0,21,12,60
23,1644240493.977417,28184.442528603144,11,19,10,-99999999999999.0,18, 9,60
59,873266767.3062645,99999999999999.0, 1, 1,10,-99999999999999.0, 1, 8,10
521,4403215638.583404,99999999999999.0,28,15,60,-99999999999999.0, 5, 1,50
637,4185388986.8875027,99999999999999.0, 1, 8,30,-99999999999999.0, 3,10,30
649,4185388986.8875027,99999999999999.0, 1, 8,30,-99999999999999.0, 3,10,30
4,151, 5
11,4670047030.8068,99999999999999.0,12,19,10,-99999999999999.0,21,12,60
23,1612205018.9881413,99999999999999.0,11,19,10,-99999999999999.0,18, 9,60
59,911484871.3750541,99999999999999.0, 1, 1,10,-99999999999999.0, 1, 8,10
521,3057842011.818628,99999999999999.0,28,15,60,-99999999999999.0, 5, 1,50
637,1300503421.690765,99999999999999.0, 1, 8,30,-99999999999999.0, 3,10,30
649,1300503421.690765,99999999999999.0, 1, 8,30,-99999999999999.0, 3,10,30
4,181, 6
11,3747945497.4816008,99999999999999.0,12,19,10,-99999999999999.0,21,12,60
23,1351324367.5536275,99999999999999.0,11,19,10,-99999999999999.0,18, 9,60
59,804947678.616925,99999999999999.0, 1, 1,10,-99999999999999.0, 1, 8,10
521,2396621129.9279447,99999999999999.0,28,15,60,-99999999999999.0, 5, 1,50
637,167276850.53636995,99999999999999.0, 1, 8,30,-99999999999999.0, 3,10,30
649,167276850.53636995,99999999999999.0, 1, 8,30,-99999999999999.0, 3,10,30
4,212, 7
11,4102765838.155278,99999999999999.0,12,19,10,-99999999999999.0,21,12,60
23,1443935165.7110848,99999999999999.0,11,19,10,-99999999999999.0,18, 9,60
59,911484871.3750535,99999999999999.0, 1, 1,10,-99999999999999.0, 1, 8,10
521,2658830672.4441376,99999999999999.0,28,15,60,-99999999999999.0, 5, 1,50
637,46894611.38489327,99999999999999.0, 1, 8,30,-99999999999999.0, 3,10,30
649,46894611.38489327,99999999999999.0, 1, 8,30,-99999999999999.0, 3,10,30
4,243, 8
11,3804884390.790521,99999999999999.0,12,19,10,-99999999999999.0,21,12,60
23,1419846017.5936599,99999999999999.0,11,19,10,-99999999999999.0,18, 9,60
59,877325327.0303843,99999999999999.0, 1, 1,10,-99999999999999.0, 1, 8,10
521,2385038373.196845,99999999999999.0,28,15,60,-99999999999999.0, 5, 1,50
637,102755320.88996404,99999999999999.0, 1, 8,30,-99999999999999.0, 3,10,30
649,102755320.88996404,99999999999999.0, 1, 8,30,-99999999999999.0, 3,10,30
4,273, 9
11,3853893043.4073014,99999999999999.0,12,19,10,-99999999999999.0,21,12,60
23,1432001134.7874215,99999999999999.0,11,19,10,-99999999999999.0,18, 9,60
59,839107222.9615947,99999999999999.0, 1, 1,10,-99999999999999.0, 1, 8,10
521,2421891908.6198864,99999999999999.0,28,15,60,-99999999999999.0, 5, 1,50
637,263470724.33461976,99999999999999.0, 1, 8,30,-99999999999999.0, 3,10,30
649,263470724.33461976,99999999999999.0, 1, 8,30,-99999999999999.0, 3,10,30
4,304,10
11,5301969709.086304,99999999999999.0,12,19,10,-99999999999999.0,21,12,60
23,1669766474.368437,99999999999999.0,11,19,10,-99999999999999.0,18, 9,60
59,911484871.3750535,99999999999999.0, 1, 1,10,-99999999999999.0, 1, 8,10
521,3632203234.717864,99999999999999.0,28,15,60,-99999999999999.0, 5, 1,50
637,2349580102.6661077,99999999999999.0, 1, 8,30,-99999999999999.0, 3,10,30
649,2349580102.6661077,99999999999999.0, 1, 8,30,-99999999999999.0, 3,10,30
4,334,11
11,7583318028.588445,99999999999999.0,12,19,10,-99999999999999.0,21,12,60
23,1655179596.6394377,99999999999999.0,11,19,10,-99999999999999.0,18, 9,60
59,839107222.9615953,99999999999999.0, 1, 1,10,-99999999999999.0, 1, 8,10
521,5928138431.949006,99999999999999.0,28,15,60,-99999999999999.0, 5, 1,50
637,8967714301.448908,99999999999999.0, 1, 8,30,-99999999999999.0, 3,10,30
649,8967714301.448908,99999999999999.0, 1, 8,30,-99999999999999.0, 3,10,30
4,365,12
11,8578034018.903857,99999999999999.0,12,19,10,-99999999999999.0,21,12,60
23,1745906876.463433,99999999999999.0,11,19,10,-99999999999999.0,18, 9,60
59,877325327.0303837,99999999999999.0, 1, 1,10,-99999999999999.0, 1, 8,10
521,6832127142.440423,99999999999999.0,28,15,60,-99999999999999.0, 5, 1,50
637,11269355823.281826,99999999999999.0, 1, 8,30,-99999999999999.0, 3,10,30
649,11269355823.281826,99999999999999.0, 1, 8,30,-99999999999999.0, 3,10,30
5,365
13,73948510946.76282,28184.442528603144, 4,12,19,10,3519789.5769614815, 2,21,12,60
25,19169930383.17049,28184.442528603144, 4,11,19,10,1018222.0290260636, 3,18, 9,60
61,10397015373.257399,28184.442528603144, 1, 1, 1,10,563688.8505720628, 1, 1, 8,10
523,54778580563.5887,0.0, 2,28,15,60,2615115.1402974594, 2, 5, 1,50
639,71705598911.57231,0.0, 1, 1, 8,30,22805163.003447972, 2, 3,10,30
651,71705598911.57231,0.0, 1, 1, 8,30,22805163.003447972, 2, 3,10,30
1,RUN PERIOD 2,  41.98, -87.92,  -6.00, 201.00
4,1, 7
11,120416231.16710573,99999999999999.0,12,19,10,-99999999999999.0,21,12,60
23,60837037.171690784,99999999999999.0,11,19,10,-99999999999999.0,18, 9,60
59,38218104.068786,99999999999999.0, 1, 1,10,-99999999999999.0, 1, 8,10
521,59579193.99541496,99999999999999.0,28,15,60,-99999999999999.0, 5, 1,50
637,1757530.7884961972,99999999999999.0, 1, 8,30,-99999999999999.0, 3,10,30
649,1757530.7884961972,99999999999999.0, 1, 8,30,-99999999999999.0, 3,10,30
5,1
13,120416231.16710573,99999999999999.0, 4,12,19,10,-99999999999999.0, 2,21,12,60
25,60837037.171690784,99999999999999.0, 4,11,19,10,-99999999999999.0, 3,18, 9,60
61,38218104.068786,99999999999999.0, 1, 1, 1,10,-99999999999999.0, 1, 1, 8,10
523,59579193.99541496,99999999999999.0, 2,28,15,60,-99999999999999.0, 2, 5, 1,50
639,1757530.7884961972,99999999999999.0, 1, 1, 8,30,-99999999999999.0, 2, 3,10,30
651,1757530.7884961972,99999999999999.0, 1, 1, 8,30,-99999999999999.0, 2, 3,10,30
End of Data
 Number of Records Written=          90
