Program Version,EnergyPlus, Version 24.1.0-9d7789a3ac, YMD=2025.04.05 15:39
1,5,Environment Title[],Latitude[deg],Longitude[deg],Time Zone[],Elevation[m]
2,8,Day of Simulation[],Month[],Day of Month[],DST Indicator[1=yes 0=no],Hour[],StartMinute[],EndMinute[],DayType
3,5,Cumulative Day of Simulation[],Month[],Day of Month[],DST Indicator[1=yes 0=no],DayType  ! When Daily Report Variables Requested
4,2,Cumulative Days of Simulation[],Month[]  ! When Monthly Report Variables Requested
5,1,Cumulative Days of Simulation[] ! When Run Period Report Variables Requested
6,1,Calendar Year of Simulation[] ! When Annual Report Variables Requested
250,1,LIVING ZONE,Zone Air Temperature [C] !TimeStep,REPORTSCH
251,1,LIVING ZONE,Zone Air System Sensible Heating Energy [J] !TimeStep,REPORTSCH
336,1,LIVING ZONE,Zone Air System Sensible Cooling Energy [J] !TimeStep,REPORTSCH
385,1,LIVING ZONE,Zone Thermostat Heating Setpoint Temperature [C] !TimeStep,REPORTSCH
386,1,LIVING ZONE,Zone Thermostat Cooling Setpoint Temperature [C] !TimeStep,REPORTSCH
387,1,GARAGE ZONE,Zone Air Temperature [C] !TimeStep,REPORTSCH
388,1,GARAGE ZONE,Zone Air System Sensible Heating Energy [J] !TimeStep,REPORTSCH
425,1,GARAGE ZONE,Zone Air System Sensible Cooling Energy [J] !TimeStep,REPORTSCH
450,1,GARAGE ZONE,Zone Thermostat Heating Setpoint Temperature [C] !TimeStep,REPORTSCH
451,1,GARAGE ZONE,Zone Thermostat Cooling Setpoint Temperature [C] !TimeStep,REPORTSCH
452,1,ATTIC ZONE,Zone Air Temperature [C] !TimeStep,REPORTSCH
453,1,ATTIC ZONE,Zone Air System Sensible Heating Energy [J] !TimeStep,REPORTSCH
490,1,ATTIC ZONE,Zone Air System Sensible Cooling Energy [J] !TimeStep,REPORTSCH
515,1,ATTIC ZONE,Zone Thermostat Heating Setpoint Temperature [C] !TimeStep,REPORTSCH
516,1,ATTIC ZONE,Zone Thermostat Cooling Setpoint Temperature [C] !TimeStep,REPORTSCH
542,1,ACDXCOIL 1,Cooling Coil Total Cooling Energy [J] !TimeStep,REPORTSCH
592,1,HEAT PUMP DX HEATING COIL 1,Heating Coil Heating Energy [J] !TimeStep,REPORTSCH
632,1,SUPP HEATING COIL 1,Heating Coil Heating Energy [J] !TimeStep,REPORTSCH
686,1,TWOSPEED HEAT PUMP 1,Unitary System DX Coil Cycling Ratio [] !TimeStep,REPORTSCH
687,1,TWOSPEED HEAT PUMP 1,Unitary System DX Coil Speed Ratio [] !TimeStep,REPORTSCH
688,1,TWOSPEED HEAT PUMP 1,Unitary System DX Coil Speed Level [] !TimeStep
End of Data Dictionary
1,RUN PERIOD 1,  41.98, -87.92,  -6.00, 201.00
2,21, 1,21, 0, 1, 0.00,10.00,Monday
250,20.44301127427518
251,4970286.563534401
336,0.0
385,20.523333333333333
386,25.5
387,0.5926190577849317
388,0.0
425,0.0
450,0.0
451,0.0
452,-1.6530387644627582
453,0.0
490,0.0
515,0.0
516,0.0
542,0.0
592,2569274.2904934436
632,2539595.912744202
686,0.597518028441353
687,0.3333333333333333
688,1.3333333333333335
2,21, 1,21, 0, 1,10.00,20.00,Monday
250,20.211398931193738
251,4620617.325124206
336,0.0
385,20.19
386,25.5
387,0.5648552527999094
388,0.0
425,0.0
450,0.0
451,0.0
452,-1.642906937263239
453,0.0
490,0.0
515,0.0
516,0.0
542,0.0
592,2745659.29293818
632,1928542.1416989153
686,0.5898364634245395
687,0.5
688,1.25
2,21, 1,21, 0, 1,20.00,30.00,Monday
250,20.443141106713743
251,4993933.880778075
336,0.0
385,20.523333333333326
386,25.49999999999999
387,0.5378340089724354
388,0.0
425,0.0
450,0.0
451,0.0
452,-1.6343783664042775
453,0.0
490,0.0
515,0.0
516,0.0
542,0.0
592,2568138.04070751
632,2563102.068625388
686,0.6018794268341794
687,0.3333333333333332
688,1.3333333333333328
2,21, 1,21, 0, 1,30.00,40.00,Monday
250,20.20968092004181
251,4647913.038549804
336,0.0
385,20.190000000000005
386,25.500000000000007
387,0.512111048872743
388,0.0
425,0.0
450,0.0
451,0.0
452,-1.6282705792586873
453,0.0
490,0.0
515,0.0
516,0.0
542,0.0
592,2737251.1911403183
632,1964690.809752897
686,0.5925091895654664
687,0.5
688,1.25
2,21, 1,21, 0, 1,40.00,50.00,Monday
250,20.443492228388607
251,5024446.16597099
336,0.0
385,20.52333333333335
386,25.50000000000002
387,0.4865432786579885
388,0.0
425,0.0
450,0.0
451,0.0
452,-1.6241052244612766
453,0.0
490,0.0
515,0.0
516,0.0
542,0.0
592,2577543.782406673
632,2581449.908607889
686,0.6092637827795112
687,0.3333333333333336
688,1.3333333333333344
2,21, 1,21, 0, 1,50.00,60.00,Monday
250,20.208205924986366
251,4675026.301119099
336,0.0
385,20.19
386,25.5
387,0.4617935688386608
388,0.0
425,0.0
450,0.0
451,0.0
452,-1.621779221963969
453,0.0
490,0.0
515,0.0
516,0.0
542,0.0
592,2728821.529661079
632,2000559.5459081896
686,0.5952094502399594
687,0.5
688,1.25
2,21, 1,21, 0, 2, 0.00,10.00,Monday
250,20.443733939445323
251,5045491.243316288
336,0.0
385,20.523333333333333
386,25.5
387,0.43690932504809776
388,0.0
425,0.0
450,0.0
451,0.0
452,-1.621732841604414
453,0.0
490,0.0
515,0.0
516,0.0
542,0.0
592,2586361.675228872
632,2591832.240894725
686,0.6141562377053941
687,0.3333333333333333
688,1.3333333333333335
2,21, 1,21, 0, 2,10.00,20.00,Monday
250,20.207739981468652
251,4684723.482318534
336,0.0
385,20.19
386,25.5
387,0.4125582912304472
388,0.0
425,0.0
450,0.0
451,0.0
452,-1.625139899309402
453,0.0
490,0.0
515,0.0
516,0.0
542,0.0
592,2731645.651838689
632,2007555.7750815197
686,0.5960120647884349
687,0.5
688,1.25
2,21, 1,21, 0, 2,20.00,30.00,Monday
250,20.443839889879477
251,5056112.596701781
336,0.0
385,20.523333333333326
386,25.49999999999999
387,0.38780768715367336
388,0.0
425,0.0
450,0.0
451,0.0
452,-1.6322395328126909
453,0.0
490,0.0
515,0.0
516,0.0
542,0.0
592,2593307.3765519746
632,2594767.9572025053
686,0.6161218229379435
687,0.3333333333333332
688,1.3333333333333328
2,21, 1,21, 0, 2,30.00,40.00,Monday
250,20.207255099864415
251,4693773.150436252
336,0.0
385,20.190000000000005
386,25.500000000000007
387,0.36334512310811257
388,0.0
425,0.0
450,0.0
451,0.0
452,-1.6427818849369173
453,0.0
490,0.0
515,0.0
516,0.0
542,0.0
592,2734277.90754709
632,2014109.8509089057
686,0.5967602742254425
687,0.5
688,1.25
2,21, 1,21, 0, 2,40.00,50.00,Monday
250,20.44393850364789
251,5065856.182156416
336,0.0
385,20.52333333333335
386,25.50000000000002
387,0.3383128703983359
388,0.0
425,0.0
450,0.0
451,0.0
452,-1.656454204420832
453,0.0
490,0.0
515,0.0
516,0.0
542,0.0
592,2599715.046917876
632,2597418.289954848
686,0.6179351017140222
687,0.3333333333333336
688,1.3333333333333344
2,21, 1,21, 0, 2,50.00,60.00,Monday
250,20.206815496972
251,4702030.14891416
336,0.0
385,20.19
386,25.5
387,0.31336770840168526
388,0.0
425,0.0
450,0.0
451,0.0
452,-1.6728024334747296
453,0.0
490,0.0
515,0.0
516,0.0
542,0.0
592,2736681.0778549393
632,2020085.4726450338
686,0.5974433567734065
687,0.5
688,1.25
2,21, 1,21, 0, 3, 0.00,10.00,Monday
250,20.444107908413407
251,5083368.581604719
336,0.0
385,20.523333333333333
386,25.5
387,0.28836033787033605
388,0.0
425,0.0
450,0.0
451,0.0
452,-1.6890530208301489
453,0.0
490,0.0
515,0.0
516,0.0
542,0.0
592,2610986.8894029036
632,2602427.509835996
686,0.6211251278247053
687,0.3333333333333333
688,1.3333333333333335
2,21, 1,21, 0, 3,10.00,20.00,Monday
250,20.205447502140323
251,4725550.392569168
336,0.0
385,20.19
386,25.5
387,0.2644351017236293
388,0.0
425,0.0
450,0.0
451,0.0
452,-1.7011321847980159
453,0.0
490,0.0
515,0.0
516,0.0
542,0.0
592,2743336.303550936
632,2037334.1940344155
686,0.5993353528906976
687,0.5
688,1.25
2,21, 1,21, 0, 3,20.00,30.00,Monday
250,20.444371037801105
251,5109118.549932767
336,0.0
385,20.523333333333326
386,25.49999999999999
387,0.240886668552176
388,0.0
425,0.0
450,0.0
451,0.0
452,-1.7076846029832726
453,0.0
490,0.0
515,0.0
516,0.0
542,0.0
592,2628277.466398651
632,2608947.121059459
686,0.6260175408827138
687,0.3333333333333332
688,1.3333333333333328
2,21, 1,21, 0, 3,30.00,40.00,Monday
250,20.204185905583234
251,4748045.926829665
336,0.0
385,20.190000000000005
386,25.500000000000007
387,0.21868742159521876
388,0.0
425,0.0
450,0.0
451,0.0
452,-1.7085124232969937
453,0.0
490,0.0
515,0.0
516,0.0
542,0.0
592,2749702.775081286
632,2053807.193147625
686,0.6011451293643135
687,0.5
688,1.25
2,21, 1,21, 0, 3,40.00,50.00,Monday
250,20.44462123127269
251,5133730.182256509
336,0.0
385,20.52333333333335
386,25.50000000000002
387,0.19708884229839507
388,0.0
425,0.0
450,0.0
451,0.0
452,-1.70515572390457
453,0.0
490,0.0
515,0.0
516,0.0
542,0.0
592,2644774.979718335
632,2615214.761852711
686,0.6306855300064891
687,0.3333333333333336
688,1.3333333333333344
2,21, 1,21, 0, 3,50.00,60.00,Monday
250,20.202983450624295
251,4769470.635313459
336,0.0
385,20.19
386,25.5
387,0.17686533142890026
388,0.0
425,0.0
450,0.0
451,0.0
452,-1.6982133152991927
453,0.0
490,0.0
515,0.0
516,0.0
542,0.0
592,2755765.404690927
632,2069497.0600884398
686,0.6028685259601458
687,0.5
688,1.25
2,21, 1,21, 0, 4, 0.00,10.00,Monday
250,20.445323823241623
251,5207582.168913731
336,0.0
385,20.523333333333333
386,25.5
387,0.1527944254302288
388,0.0
425,0.0
450,0.0
451,0.0
452,-1.6902526168935146
453,0.0
490,0.0
515,0.0
516,0.0
542,0.0
592,2691189.9614766845
632,2637201.4666621815
686,0.6445914037079516
687,0.3333333333333333
688,1.3333333333333335
2,21, 1,21, 0, 4,10.00,20.00,Monday
250,20.19601785580152
251,4884343.357217966
336,0.0
385,20.19
386,25.5
387,0.12559204654921277
388,0.0
425,0.0
450,0.0
451,0.0
452,-1.6835940208671698
453,0.0
490,0.0
515,0.0
516,0.0
542,0.0
592,2783834.2872305503
632,2158250.3496745145
686,0.6122595471783008
687,0.5
688,1.25
2,21, 1,21, 0, 4,20.00,30.00,Monday
250,20.44661660645337
251,5335497.481568557
336,0.0
385,20.523333333333326
386,25.49999999999999
387,0.09542803834172846
388,0.0
425,0.0
450,0.0
451,0.0
452,-1.6798939112372948
453,0.0
490,0.0
515,0.0
516,0.0
542,0.0
592,2775524.483906709
632,2670692.9435362318
686,0.6701640276134028
687,0.3333333333333332
688,1.3333333333333328
2,21, 1,21, 0, 4,30.00,40.00,Monday
250,20.189354814332102
251,4998949.846257035
336,0.0
385,20.190000000000005
386,25.500000000000007
387,0.06381690554616043
388,0.0
425,0.0
450,0.0
451,0.0
452,-1.6807061400947103
453,0.0
490,0.0
515,0.0
516,0.0
542,0.0
592,2811559.1607231833
632,2246945.797512616
686,0.6216997896221292
687,0.5
688,1.25
2,21, 1,21, 0, 4,40.00,50.00,Monday
250,20.44788413148449
251,5463670.9252843745
336,0.0
385,20.52333333333335
386,25.50000000000002
387,0.030189102775766193
388,0.0
425,0.0
450,0.0
451,0.0
452,-1.6865542548677719
453,0.0
490,0.0
515,0.0
516,0.0
542,0.0
592,2859627.2359998142
632,2704782.4616328506
686,0.6959059055605291
687,0.3333333333333336
688,1.3333333333333344
2,21, 1,21, 0, 4,50.00,60.00,Monday
250,20.182656440772348
251,5114016.670056658
336,0.0
385,20.19
386,25.5
387,-0.004507863409172294
388,0.0
425,0.0
450,0.0
451,0.0
452,-1.69623940197728
453,0.0
490,0.0
515,0.0
516,0.0
542,0.0
592,2839128.2277596863
632,2336276.7398517425
686,0.6312459551711012
687,0.5
688,1.25
2,21, 1,21, 0, 5, 0.00,10.00,Monday
250,20.448374104512826
251,5505696.336370058
336,0.0
385,20.523333333333333
386,25.5
387,-0.03187614145014876
388,0.0
425,0.0
450,0.0
451,0.0
452,-1.7042380355095923
453,0.0
490,0.0
515,0.0
516,0.0
542,0.0
592,2888077.262871771
632,2714499.1209938345
686,0.7059506677191905
687,0.3333333333333333
688,1.3333333333333335
2,21, 1,21, 0, 5,10.00,20.00,Monday
250,20.18591741117184
251,5067559.625015384
336,0.0
385,20.19
386,25.5
387,-0.05099042725377862
388,0.0
425,0.0
450,0.0
451,0.0
452,-1.70644265503068
453,0.0
490,0.0
515,0.0
516,0.0
542,0.0
592,2819422.320716453
632,2308456.901571135
686,0.6278057828882837
687,0.5
688,1.25
2,21, 1,21, 0, 5,20.00,30.00,Monday
250,20.44790469677299
251,5454607.895838029
336,0.0
385,20.523333333333326
386,25.49999999999999
387,-0.0650107605268667
388,0.0
425,0.0
450,0.0
451,0.0
452,-1.7005139187009117
453,0.0
490,0.0
515,0.0
516,0.0
542,0.0
592,2847506.209918722
632,2707742.549995812
686,0.6964965107720205
687,0.3333333333333332
688,1.3333333333333328
2,21, 1,21, 0, 5,30.00,40.00,Monday
250,20.188654224046246
251,5021930.935606388
336,0.0
385,20.190000000000005
386,25.500000000000007
387,-0.07457987724046415
388,0.0
425,0.0
450,0.0
451,0.0
452,-1.6858988763607983
453,0.0
490,0.0
515,0.0
516,0.0
542,0.0
592,2799097.2911968506
632,2282335.260373288
686,0.6244507409931298
687,0.5
688,1.25
2,21, 1,21, 0, 5,40.00,50.00,Monday
250,20.447434040629204
251,5403826.359790535
336,0.0
385,20.52333333333335
386,25.50000000000002
387,-0.08112294113368293
388,0.0
425,0.0
450,0.0
451,0.0
452,-1.663517952271353
453,0.0
490,0.0
515,0.0
516,0.0
542,0.0
592,2806959.0075744395
632,2701224.229853499
686,0.6872876695183746
687,0.3333333333333336
688,1.3333333333333344
2,21, 1,21, 0, 5,50.00,60.00,Monday
250,20.19139157983371
251,4976439.852674267
336,0.0
385,20.19
386,25.5
387,-0.08463901073223752
388,0.0
425,0.0
450,0.0
451,0.0
452,-1.6351925885444891
453,0.0
490,0.0
515,0.0
516,0.0
542,0.0
592,2777976.4845359405
632,2257150.280010716
686,0.6211327349993482
687,0.5
688,1.25
2,21, 1,21, 0, 6, 0.00,10.00,Monday
250,20.44754783794596
251,5419527.6179188825
336,0.0
385,20.523333333333333
386,25.5
387,-0.09454507086027805
388,0.0
425,0.0
450,0.0
451,0.0
452,-1.608849312855396
453,0.0
490,0.0
515,0.0
516,0.0
542,0.0
592,2810328.851028098
632,2712582.2927808366
686,0.690271993737829
687,0.3333333333333333
688,1.3333333333333335
2,21, 1,21, 0, 6,10.00,20.00,Monday
250,20.18644542371318
251,5054754.729656771
336,0.0
385,20.19
386,25.5
387,-0.11078049519449426
388,0.0
425,0.0
450,0.0
451,0.0
452,-1.5923821847947803
453,0.0
490,0.0
515,0.0
516,0.0
542,0.0
592,2796609.2082426334
632,2318263.11051176
686,0.6277117773488052
687,0.5
688,1.25
2,21, 1,21, 0, 6,20.00,30.00,Monday
250,20.448410193375906
251,5506617.862332621
336,0.0
385,20.523333333333326
386,25.49999999999999
387,-0.13219371517266906
388,0.0
425,0.0
450,0.0
451,0.0
452,-1.5876853504695325
453,0.0
490,0.0
515,0.0
516,0.0
542,0.0
592,2867681.354984211
632,2735409.6729548257
686,0.7082936500489514
687,0.3333333333333332
688,1.3333333333333328
2,21, 1,21, 0, 6,30.00,40.00,Monday
250,20.18187988115203
251,5132810.827979382
336,0.0
385,20.190000000000005
386,25.500000000000007
387,-0.15722331989336014
388,0.0
425,0.0
450,0.0
451,0.0
452,-1.5954149795681216
453,0.0
490,0.0
515,0.0
516,0.0
542,0.0
592,2814879.978183879
632,2379295.034279046
686,0.6343227022493494
687,0.5
688,1.25
2,21, 1,21, 0, 6,40.00,50.00,Monday
250,20.081504809735478
251,6241559.0861859135
336,0.0
385,20.19
386,25.5
387,-0.1868830039477038
388,0.0
425,0.0
450,0.0
451,0.0
452,-1.6139798976794206
453,0.0
490,0.0
515,0.0
516,0.0
542,0.0
592,3533696.3469846644
632,2783808.599544105
686,0.8415870596170714
687,0.5
688,1.5
2,21, 1,21, 0, 6,50.00,60.00,Monday
250,20.335965938019484
251,4753288.278072032
336,0.0
385,20.19
386,25.5
387,-0.21780471639565532
388,0.0
425,0.0
450,0.0
451,0.0
452,-1.6415470494293638
453,0.0
490,0.0
515,0.0
516,0.0
542,0.0
592,3233738.149456273
632,1393157.7958241447
686,0.75
687,0.5185489965547568
688,1.5
2,21, 1,21, 0, 7, 0.00,10.00,Monday
250,21.10360074364673
251,5887748.454369072
336,0.0
385,21.19
386,25.5
387,-0.256007285179628
388,0.0
425,0.0
450,0.0
451,0.0
452,-1.6887626693227924
453,0.0
490,0.0
515,0.0
516,0.0
542,0.0
592,4724154.757590884
632,1111695.1001963592
686,1.0
687,1.0
688,2.0
2,21, 1,21, 0, 7,10.00,20.00,Monday
250,21.183965703364287
251,5746444.623148053
336,0.0
385,21.19
386,25.5
387,-0.30927948181219783
388,0.0
425,0.0
450,0.0
451,0.0
452,-1.7787576730865529
453,0.0
490,0.0
515,0.0
516,0.0
542,0.0
592,4746836.672647543
632,734998.5767966566
686,1.0
687,1.0
688,2.0
2,21, 1,21, 0, 7,20.00,30.00,Monday
250,20.241155236251487
251,3966183.5817815103
336,0.0
385,19.856666666666683
386,25.50000000000002
387,-0.3591365425863411
388,0.0
425,0.0
450,0.0
451,0.0
452,-1.896240314187479
453,0.0
490,0.0
515,0.0
516,0.0
542,0.0
592,1352769.4403899957
632,2617728.3691887963
686,0.3263457036303393
687,0.1666666666666668
688,0.6666666666666672
2,21, 1,21, 0, 7,30.00,40.00,Monday
250,21.094463708436585
251,6165472.807888829
336,0.0
385,21.19
386,25.5
387,-0.4191121603239394
388,0.0
425,0.0
450,0.0
451,0.0
452,-2.0551754699929052
453,0.0
490,0.0
515,0.0
516,0.0
542,0.0
592,4714467.018480679
632,1426112.8593516885
686,1.0
687,0.9437321811010233
688,2.0
2,21, 1,21, 0, 7,40.00,50.00,Monday
250,21.183448852359664
251,5567093.181567318
336,0.0
385,21.19
386,25.5
387,-0.49899551850768975
388,0.0
425,0.0
450,0.0
451,0.0
452,-2.2771689206765484
453,0.0
490,0.0
515,0.0
516,0.0
542,0.0
592,4807665.300660181
632,495735.63007709454
686,1.0
687,1.0
688,2.0
2,21, 1,21, 0, 7,50.00,60.00,Monday
250,20.233043102349285
251,4048714.2282624613
336,0.0
385,19.856666666666644
386,25.49999999999996
387,-0.5689989707958633
388,0.0
425,0.0
450,0.0
451,0.0
452,-2.486946752835797
453,0.0
490,0.0
515,0.0
516,0.0
542,0.0
592,1435037.4930777457
632,2606971.2354256674
686,0.34488675998650997
687,0.16666666666666644
688,0.6666666666666657
2,21, 1,21, 0, 8, 0.00,10.00,Monday
250,21.094445227695587
251,5878586.676134743
336,0.0
385,21.19
386,25.5
387,-0.6395169039639467
388,0.0
425,0.0
450,0.0
451,0.0
452,-2.7102528191302566
453,0.0
490,0.0
515,0.0
516,0.0
542,0.0
592,4596107.276942266
632,1264799.5730499483
686,1.0
687,0.8154173478088155
688,2.0
2,21, 1,21, 0, 8,10.00,20.00,Monday
250,21.183690444713655
251,5175663.2096664645
336,0.0
385,21.19
386,25.5
387,-0.7106633908469068
388,0.0
425,0.0
450,0.0
451,0.0
452,-2.8878298958734456
453,0.0
490,0.0
515,0.0
516,0.0
542,0.0
592,4847849.177088031
632,63699.04400074993
686,1.0
687,1.0
688,2.0
2,21, 1,21, 0, 8,20.00,30.00,Monday
250,20.281180336497414
251,3526646.0299175084
336,0.0
385,19.856666666666683
386,25.50000000000002
387,-0.7513014669928078
388,0.0
425,0.0
450,0.0
451,0.0
452,-2.8909940052426495
453,0.0
490,0.0
515,0.0
516,0.0
542,0.0
592,993710.4504707926
632,2611597.6976971463
686,0.21862840437597134
687,0.1666666666666668
688,0.6666666666666672
2,21, 1,21, 0, 8,30.00,40.00,Monday
250,21.098922860869315
251,5696710.050562848
336,0.0
385,21.19
386,25.5
387,-0.7814094064013042
388,0.0
425,0.0
450,0.0
451,0.0
452,-2.793477914444882
453,0.0
490,0.0
515,0.0
516,0.0
542,0.0
592,4558507.993955459
632,1110016.4445008736
686,1.0
687,0.7638008056967371
688,2.0
2,21, 1,21, 0, 8,40.00,50.00,Monday
250,21.184084344171414
251,5048928.082620281
336,0.0
385,21.19
386,25.5
387,-0.8001454659785181
388,0.0
425,0.0
450,0.0
451,0.0
452,-2.5579713207947026
453,0.0
490,0.0
515,0.0
516,0.0
542,0.0
592,4787666.17472562
632,0.0
686,1.0
687,0.9303223312784354
688,2.0
2,21, 1,21, 0, 8,50.00,60.00,Monday
250,20.31179160945359
251,3320423.4774189866
336,0.0
385,19.856666666666644
386,25.49999999999996
387,-0.7951292451470497
388,0.0
425,0.0
450,0.0
451,0.0
452,-2.262451926060656
453,0.0
490,0.0
515,0.0
516,0.0
542,0.0
592,826727.0006105289
632,2610932.026485559
686,0.17028250335277603
687,0.16666666666666644
688,0.49999999999999933
2,21, 1,21, 0, 9, 0.00,10.00,Monday
250,20.16999944352357
251,4399944.915927571
336,0.0
385,20.19
386,25.5
387,-0.7694506365284551
388,0.0
425,0.0
450,0.0
451,0.0
452,-1.8766171646647292
453,0.0
490,0.0
515,0.0
516,0.0
542,0.0
592,2694303.3748932322
632,1781403.6623729263
686,0.5681899932770489
687,0.5
688,1.25
2,21, 1,21, 0, 9,10.00,20.00,Monday
250,20.442563713016987
251,4873015.8209713
336,0.0
385,20.523333333333326
386,25.49999999999999
387,-0.7245483500755622
388,0.0
425,0.0
450,0.0
451,0.0
452,-1.3859781332271903
453,0.0
490,0.0
515,0.0
516,0.0
542,0.0
592,2536851.316212233
632,2482204.4656950817
686,0.5823552589514662
687,0.3333333333333332
688,1.3333333333333328
2,21, 1,21, 0, 9,20.00,30.00,Monday
250,20.22849748013961
251,4358077.451336899
336,0.0
385,20.19
386,25.5
387,-0.6643302682782779
388,0.0
425,0.0
450,0.0
451,0.0
452,-0.8387073849122249
453,0.0
490,0.0
515,0.0
516,0.0
542,0.0
592,2541715.211801
632,1875752.6511082135
686,0.5688820820204371
687,0.36461441635908
688,1.25
2,21, 1,21, 0, 9,30.00,40.00,Monday
250,20.439099346874343
251,4597525.360039152
336,0.0
385,20.523333333333344
386,25.50000000000001
387,-0.5925292855815694
388,0.0
425,0.0
450,0.0
451,0.0
452,-0.24715254567034275
453,0.0
490,0.0
515,0.0
516,0.0
542,0.0
592,2340062.4622083744
632,2427477.3932412444
686,0.5233606381746775
687,0.3333333333333336
688,1.333333333333334
2,21, 1,21, 0, 9,40.00,50.00,Monday
250,20.23479527652421
251,4200289.04463304
336,0.0
385,20.19
386,25.5
387,-0.5244705407989443
388,0.0
425,0.0
450,0.0
451,0.0
452,0.33981711462508174
453,0.0
490,0.0
515,0.0
516,0.0
542,0.0
592,2425630.216519844
632,1838644.9567061604
686,0.5553606075759356
687,0.29900832764750196
688,1.25
2,21, 1,21, 0, 9,50.00,60.00,Monday
250,20.437544738845823
251,4461733.696257499
336,0.0
385,20.52333333333335
386,25.50000000000002
387,-0.44501804585757126
388,0.0
425,0.0
450,0.0
451,0.0
452,0.9116091363059469
453,0.0
490,0.0
515,0.0
516,0.0
542,0.0
592,2262763.70723319
632,2379271.2287953133
686,0.49774498505728115
687,0.3333333333333336
688,1.3333333333333344
2,21, 1,21, 0,10, 0.00,10.00,Monday
250,20.240396889343636
251,4086462.0058437106
336,0.0
385,20.19
386,25.5
387,-0.3593406534717438
388,0.0
425,0.0
450,0.0
451,0.0
452,1.4545696142721267
453,0.0
490,0.0
515,0.0
516,0.0
542,0.0
592,2344759.2431623535
632,1809502.1514758728
686,0.544008043563017
687,0.25
688,1.0
2,21, 1,21, 0,10,10.00,20.00,Monday
250,20.43594429317251
251,4317655.361518902
336,0.0
385,20.523333333333326
386,25.49999999999999
387,-0.2639604238679057
388,0.0
425,0.0
450,0.0
451,0.0
452,2.0075080900470823
453,0.0
490,0.0
515,0.0
516,0.0
542,0.0
592,2191676.572284543
632,2317359.3246749723
686,0.47046711817625864
687,0.3333333333333332
688,1.3333333333333328
2,21, 1,21, 0,10,20.00,30.00,Monday
250,20.246843588095444
251,3956031.9540734016
336,0.0
385,20.19
386,25.5
387,-0.16169241123269285
388,0.0
425,0.0
450,0.0
451,0.0
452,2.5672423966780276
453,0.0
490,0.0
515,0.0
516,0.0
542,0.0
592,2254543.270414467
632,1775778.9849886843
686,0.5117125013039229
687,0.25
688,1.0
2,21, 1,21, 0,10,30.00,40.00,Monday
250,20.434156436606457
251,4155432.8062537517
336,0.0
385,20.523333333333344
386,25.50000000000001
387,-0.0487424909925044
388,0.0
425,0.0
450,0.0
451,0.0
452,3.1675823110900465
453,0.0
490,0.0
515,0.0
516,0.0
542,0.0
592,2107606.532970377
632,2251870.0992109827
686,0.44045120980438685
687,0.3333333333333336
688,1.333333333333334
2,21, 1,21, 0,10,40.00,50.00,Monday
250,20.256050876133934
251,3769378.321235829
336,0.0
385,20.19
386,25.5
387,0.07408762823304516
388,0.0
425,0.0
450,0.0
451,0.0
452,3.8226312824632105
453,0.0
490,0.0
515,0.0
516,0.0
542,0.0
592,2113223.1313456255
632,1740342.5836917916
686,0.4668207649226115
687,0.25
688,1.0
2,21, 1,21, 0,10,50.00,60.00,Monday
250,19.78885991264409
251,4356459.1197197
336,0.0
385,19.856666666666683
386,25.50000000000002
387,0.21692129815659805
388,0.0
425,0.0
450,0.0
451,0.0
452,4.560723855019372
453,0.0
490,0.0
515,0.0
516,0.0
542,0.0
592,3152817.2270032847
632,1335952.8125936103
686,0.6666666666666672
687,0.44063049194646686
688,1.3333333333333344
2,21, 1,21, 0,11, 0.00,10.00,Monday
250,20.55633853907455
251,5325372.587878261
336,0.0
385,20.39
386,25.500000000000004
387,0.3710517544357024
388,0.0
425,0.0
450,0.0
451,0.0
452,5.348437061237404
453,0.0
490,0.0
515,0.0
516,0.0
542,0.0
592,2182893.50363993
632,3359765.3161856667
686,0.42662034364473045
687,0.4
688,1.2000000000000002
2,21, 1,21, 0,11,10.00,20.00,Monday
250,20.445356912750288
251,2402240.5546196913
336,0.0
385,20.19
386,25.5
387,0.5414660247599878
388,0.0
425,0.0
450,0.0
451,0.0
452,6.194333409043459
453,0.0
490,0.0
515,0.0
516,0.0
542,0.0
592,2192381.4344343385
632,143182.02564104158
686,0.48101444853330827
687,0.25
688,1.0
2,21, 1,21, 0,11,20.00,30.00,Monday
250,20.585591340877244
251,3277333.088426623
336,0.0
385,20.19
386,25.5
387,0.8050376887032511
388,0.0
425,0.0
450,0.0
451,0.0
452,7.328869221436811
453,0.0
490,0.0
515,0.0
516,0.0
542,0.0
592,1311629.9194267825
632,1986683.8665413966
686,0.25
687,0.25
688,0.5
2,21, 1,21, 0,11,30.00,40.00,Monday
250,20.501242404401253
251,3000457.192157537
336,0.0
385,19.990000000000002
386,25.500000000000004
387,0.983587420055011
388,0.0
425,0.0
450,0.0
451,0.0
452,8.136067949027105
453,0.0
490,0.0
515,0.0
516,0.0
542,0.0
592,1119500.4518267063
632,2010823.0854879897
686,0.21756879918556682
687,0.2
688,0.6000000000000001
2,21, 1,21, 0,11,40.00,50.00,Monday
250,20.292633084454934
251,3451027.0641780132
336,0.0
385,20.19
386,25.5
387,1.175507800395163
388,0.0
425,0.0
450,0.0
451,0.0
452,8.929418022547123
453,0.0
490,0.0
515,0.0
516,0.0
542,0.0
592,1891217.6257251517
632,1659698.1708389677
686,0.3966764020580913
687,0.25
688,0.75
2,21, 1,21, 0,11,50.00,60.00,Monday
250,19.823478879779163
251,4065499.9809043994
336,0.0
385,19.856666666666683
386,25.50000000000002
387,1.3831140475693804
388,0.0
425,0.0
450,0.0
451,0.0
452,9.684285079466253
453,0.0
490,0.0
515,0.0
516,0.0
542,0.0
592,2981871.3811350744
632,1212288.5263869218
686,0.643431348833911
687,0.3333333333333336
688,1.0000000000000009
2,21, 1,21, 0,12, 0.00,10.00,Monday
250,20.240294467108804
251,2884370.140174015
336,0.0
385,19.990000000000002
386,25.500000000000004
387,1.586284791799456
388,0.0
425,0.0
450,0.0
451,0.0
452,10.317656839458175
453,0.0
490,0.0
515,0.0
516,0.0
542,0.0
592,1899305.1981864446
632,1003787.5573309137
686,0.41055518062069873
687,0.20794110633814483
688,1.0
2,21, 1,21, 0,12,10.00,20.00,Monday
250,20.785119504134784
251,2715326.0350006097
336,0.0
385,20.523333333333326
386,25.49999999999999
387,1.791612181087624
388,0.0
425,0.0
450,0.0
451,0.0
452,10.848279238543643
453,0.0
490,0.0
515,0.0
516,0.0
542,0.0
592,2559225.175371648
632,174718.1156330611
686,0.5355216134340189
687,0.3333333333333332
688,0.9999999999999996
2,21, 1,21, 0,12,20.00,30.00,Monday
250,20.465163425313094
251,2919023.3413719013
336,0.0
385,19.856666666666683
386,25.50000000000002
387,1.9789731943880065
388,0.0
425,0.0
450,0.0
451,0.0
452,11.2400322332632
453,0.0
490,0.0
515,0.0
516,0.0
542,0.0
592,1297361.625474661
632,1699618.3068031445
686,0.2711710952795876
687,0.1666666666666668
688,0.5000000000000004
2,21, 1,21, 0,12,30.00,40.00,Monday
250,20.296570223274024
251,3346284.4150888966
336,0.0
385,20.189999999999994
386,25.499999999999993
387,2.155128214853794
388,0.0
425,0.0
450,0.0
451,0.0
452,11.518670487629679
453,0.0
490,0.0
515,0.0
516,0.0
542,0.0
592,1846201.213671393
632,1608263.5808174552
686,0.3808715013330026
687,0.25
688,0.75
2,21, 1,21, 0,12,40.00,50.00,Monday
250,20.482152148005227
251,3253388.167378986
336,0.0
385,20.19
386,25.5
387,2.3810336593401638
388,0.0
425,0.0
450,0.0
451,0.0
452,11.720910154797703
453,0.0
490,0.0
515,0.0
516,0.0
542,0.0
592,1410875.2125999653
632,1997645.6203631388
686,0.2699299504499286
687,0.25
688,0.75
2,21, 1,21, 0,12,50.00,60.00,Monday
250,19.99813617223841
251,3548151.308207825
336,0.0
385,19.69
386,25.5
387,2.5351540225003024
388,0.0
425,0.0
450,0.0
451,0.0
452,11.701538166244596
453,0.0
490,0.0
515,0.0
516,0.0
542,0.0
592,2400034.7247181777
632,1250030.3045847265
686,0.5
687,0.30487200565101663
688,1.0
2,21, 1,21, 0,13, 0.00,10.00,Monday
250,20.42954424568572
251,3252714.946076938
336,0.0
385,20.19
386,25.5
387,2.6491709303496593
388,0.0
425,0.0
450,0.0
451,0.0
452,11.594048181589084
453,0.0
490,0.0
515,0.0
516,0.0
542,0.0
592,1461145.9929870171
632,1937298.3435890696
686,0.28246264749328465
687,0.25
688,0.75
2,21, 1,21, 0,13,10.00,20.00,Monday
250,20.803825806918454
251,2570310.460408548
336,0.0
385,20.523333333333326
386,25.49999999999999
387,2.7262554394579848
388,0.0
425,0.0
450,0.0
451,0.0
452,11.511107625093596
453,0.0
490,0.0
515,0.0
516,0.0
542,0.0
592,2555913.5284009967
632,0.0
686,0.540817757274709
687,0.3086770361917135
688,0.9999999999999996
2,21, 1,21, 0,13,20.00,30.00,Monday
250,20.513854580427548
251,2776990.543331813
336,0.0
385,19.856666666666683
386,25.50000000000002
387,2.7955423903985377
388,0.0
425,0.0
450,0.0
451,0.0
452,11.45735606888867
453,0.0
490,0.0
515,0.0
516,0.0
542,0.0
592,1127194.9676609305
632,1741691.8159696513
686,0.22740698235898213
687,0.1666666666666668
688,0.5000000000000004
2,21, 1,21, 0,13,30.00,40.00,Monday
250,20.330987861047845
251,3213524.348892759
336,0.0
385,20.189999999999994
386,25.499999999999993
387,2.867441876663043
388,0.0
425,0.0
450,0.0
451,0.0
452,11.424307601424605
453,0.0
490,0.0
515,0.0
516,0.0
542,0.0
592,1717459.0167782945
632,1615203.5658508688
686,0.34825851894036397
687,0.25
688,0.75
2,21, 1,21, 0,13,40.00,50.00,Monday
250,19.991803998799085
251,3428771.3275356013
336,0.0
385,19.69
386,25.5
387,2.96750267550655
388,0.0
425,0.0
450,0.0
451,0.0
452,11.397584938966627
453,0.0
490,0.0
515,0.0
516,0.0
542,0.0
592,2314059.898894837
632,1218009.3814587835
686,0.4994785298643159
687,0.25
688,0.75
2,21, 1,21, 0,13,50.00,60.00,Monday
250,20.06743389894652
251,956761.8350031788
336,0.0
385,19.69
386,25.5
387,3.04992438886523
388,0.0
425,0.0
450,0.0
451,0.0
452,11.386631348718135
453,0.0
490,0.0
515,0.0
516,0.0
542,0.0
592,893889.2863057889
632,0.0
686,0.22675352568432683
687,0.0
688,0.25
2,21, 1,21, 0,14, 0.00,10.00,Monday
250,20.81976749065828
251,2505359.115951567
336,0.0
385,20.523333333333333
386,25.5
387,3.112605561246615
388,0.0
425,0.0
450,0.0
451,0.0
452,11.347383810379789
453,0.0
490,0.0
515,0.0
516,0.0
542,0.0
592,2328494.7061296455
632,234322.1336547791
686,0.4742585872003738
687,0.3333333333333333
688,1.0
2,21, 1,21, 0,14,10.00,20.00,Monday
250,20.571552828737275
251,2665851.2332543037
336,0.0
385,19.85666666666667
386,25.5
387,3.172571869159037
388,0.0
425,0.0
450,0.0
451,0.0
452,11.243835660298124
453,0.0
490,0.0
515,0.0
516,0.0
542,0.0
592,984466.2845391402
632,1788508.2037080675
686,0.1907227355600992
687,0.1666666666666666
688,0.4999999999999998
2,21, 1,21, 0,14,20.00,30.00,Monday
250,20.195044242177485
251,3035693.595324062
336,0.0
385,19.990000000000002
386,25.500000000000004
387,3.2317034001019436
388,0.0
425,0.0
450,0.0
451,0.0
452,11.076931821717883
453,0.0
490,0.0
515,0.0
516,0.0
542,0.0
592,1777057.944156423
632,1354501.966603784
686,0.37811217884176773
687,0.2
688,0.6000000000000001
2,21, 1,21, 0,14,30.00,40.00,Monday
250,19.83186745423243
251,3639512.792560226
336,0.0
385,19.856666666666683
386,25.50000000000002
387,3.283906073074258
388,0.0
425,0.0
450,0.0
451,0.0
452,10.819005826822384
453,0.0
490,0.0
515,0.0
516,0.0
542,0.0
592,2737083.077716731
632,1045861.0158465046
686,0.5723397180872101