Program Version,EnergyPlus, Version 24.2.0-94a887817b, YMD=2025.01.21 23:16
1,5,Environment Title[],Latitude[deg],Longitude[deg],Time Zone[],Elevation[m]
2,8,Day of Simulation[],Month[],Day of Month[],DST Indicator[1=yes 0=no],Hour[],StartMinute[],EndMinute[],DayType
3,5,Cumulative Day of Simulation[],Month[],Day of Month[],DST Indicator[1=yes 0=no],DayType  ! When Daily Report Variables Requested
4,2,Cumulative Days of Simulation[],Month[]  ! When Monthly Report Variables Requested
5,1,Cumulative Days of Simulation[] ! When Run Period Report Variables Requested
6,1,Calendar Year of Simulation[] ! When Annual Report Variables Requested
250,1,LIVING ZONE,Zone Air Temperature [C] !TimeStep,REPORTSCH
251,1,LIVING ZONE,Zone Air System Sensible Heating Energy [J] !TimeStep,REPORTSCH
336,1,LIVING ZONE,Zone Air System Sensible Cooling Energy [J] !TimeStep,REPORTSCH
385,1,LIVING ZONE,Zone Thermostat Heating Setpoint Temperature [C] !TimeStep,REPORTSCH
386,1,LIVING ZONE,Zone Thermostat Cooling Setpoint Temperature [C] !TimeStep,REPORTSCH
387,1,GARAGE ZONE,Zone Air Temperature [C] !TimeStep,REPORTSCH
388,1,GARAGE ZONE,Zone Air System Sensible Heating Energy [J] !TimeStep,REPORTSCH
425,1,GARAGE ZONE,Zone Air System Sensible Cooling Energy [J] !TimeStep,REPORTSCH
450,1,GARAGE ZONE,Zone Thermostat Heating Setpoint Temperature [C] !TimeStep,REPORTSCH
451,1,GARAGE ZONE,Zone Thermostat Cooling Setpoint Temperature [C] !TimeStep,REPORTSCH
452,1,ATTIC ZONE,Zone Air Temperature [C] !TimeStep,REPORTSCH
453,1,ATTIC ZONE,Zone Air System Sensible Heating Energy [J] !TimeStep,REPORTSCH
490,1,ATTIC ZONE,Zone Air System Sensible Cooling Energy [J] !TimeStep,REPORTSCH
515,1,ATTIC ZONE,Zone Thermostat Heating Setpoint Temperature [C] !TimeStep,REPORTSCH
516,1,ATTIC ZONE,Zone Thermostat Cooling Setpoint Temperature [C] !TimeStep,REPORTSCH
542,1,ACDXCOIL 1,Cooling Coil Total Cooling Energy [J] !TimeStep,REPORTSCH
592,1,HEAT PUMP DX HEATING COIL 1,Heating Coil Heating Energy [J] !TimeStep,REPORTSCH
632,1,SUPP HEATING COIL 1,Heating Coil Heating Energy [J] !TimeStep,REPORTSCH
686,1,TWOSPEED HEAT PUMP 1,Unitary System DX Coil Cycling Ratio [] !TimeStep,REPORTSCH
687,1,TWOSPEED HEAT PUMP 1,Unitary System DX Coil Speed Ratio [] !TimeStep,REPORTSCH
688,1,TWOSPEED HEAT PUMP 1,Unitary System DX Coil Speed Level [] !TimeStep,REPORTSCH
End of Data Dictionary
1,CHICAGO_IL_USA ANNUAL HEATING 99% DESIGN CONDITIONS DB,  41.98, -87.92,  -6.00, 201.00
2,1, 1,21, 0, 1, 0.00,10.00,WinterDesignDay
250,-17.01154088025818
251,33258891.428642966
336,0.0
385,18.886678975701933
386,28.21478683039893
387,-18.497739739988404
388,0.0
425,0.0
450,0.0
451,0.0
452,-19.36040387777253
453,0.0
490,0.0
515,0.0
516,0.0
542,0.0
592,0.0
632,33000000.0
686,1.0
687,1.0
688,2.0
2,1, 1,21, 0, 1,10.00,20.00,WinterDesignDay
250,-17.011540880389838
251,33258891.42864202
336,0.0
385,18.886678975701933
386,28.21478683039893
387,-18.497741227643075
388,0.0
425,0.0
450,0.0
451,0.0
452,-19.360404085230325
453,0.0
490,0.0
515,0.0
516,0.0
542,0.0
592,0.0
632,33000000.0
686,1.0
687,1.0
688,2.0
2,1, 1,21, 0, 1,20.00,30.00,WinterDesignDay
250,-17.011540880519743
251,33258891.428641073
336,0.0
385,18.886678975701933
386,28.21478683039893
387,-18.49774269590266
388,0.0
425,0.0
450,0.0
451,0.0
452,-19.360404289982807
453,0.0
490,0.0
515,0.0
516,0.0
542,0.0
592,0.0
632,33000000.0
686,1.0
687,1.0
688,2.0
2,1, 1,21, 0, 1,30.00,40.00,WinterDesignDay
250,-17.011540880647924
251,33258891.428640157
336,0.0
385,18.886678975701933
386,28.21478683039893
387,-18.49774414502015
388,0.0
425,0.0
450,0.0
451,0.0
452,-19.360404492065253
453,0.0
490,0.0
515,0.0
516,0.0
542,0.0
592,0.0
632,33000000.0
686,1.0
687,1.0
688,2.0
2,1, 1,21, 0, 1,40.00,50.00,WinterDesignDay
250,-17.01154088077441
251,33258891.428639244
336,0.0
385,18.886678975701933
386,28.21478683039893
387,-18.497745575244917
388,0.0
425,0.0
450,0.0
451,0.0
452,-19.36040469151249
453,0.0
490,0.0
515,0.0
516,0.0
542,0.0
592,0.0
632,33000000.0
686,1.0
687,1.0
688,2.0
2,1, 1,21, 0, 1,50.00,60.00,WinterDesignDay
250,-17.01154088089921
251,33258891.42863834
336,0.0
385,18.886678975701933
386,28.21478683039893
387,-18.49774698682312
388,0.0
425,0.0
450,0.0
451,0.0
452,-19.36040488835889
453,0.0
490,0.0
515,0.0
516,0.0
542,0.0
592,0.0
632,33000000.0
686,1.0
687,1.0
688,2.0
2,1, 1,21, 0, 2, 0.00,10.00,WinterDesignDay
250,-17.011540881022366
251,33258891.42863746
336,0.0
385,18.886678975701933
386,28.21478683039893
387,-18.49774837999811
388,0.0
425,0.0
450,0.0
451,0.0
452,-19.36040508263837
453,0.0
490,0.0
515,0.0
516,0.0
542,0.0
592,0.0
632,33000000.0
686,1.0
687,1.0
688,2.0
2,1, 1,21, 0, 2,10.00,20.00,WinterDesignDay
250,-17.01154088114388
251,33258891.428636577
336,0.0
385,18.886678975701933
386,28.21478683039893
387,-18.497749755009867
388,0.0
425,0.0
450,0.0
451,0.0
452,-19.360405274384405
453,0.0
490,0.0
515,0.0
516,0.0
542,0.0
592,0.0
632,33000000.0
686,1.0
687,1.0
688,2.0
2,1, 1,21, 0, 2,20.00,30.00,WinterDesignDay
250,-17.011540881263784
251,33258891.428635713
336,0.0
385,18.886678975701933
386,28.21478683039893
387,-18.49775111209494
388,0.0
425,0.0
450,0.0
451,0.0
452,-19.36040546363004
453,0.0
490,0.0
515,0.0
516,0.0
542,0.0
592,0.0
632,33000000.0
686,1.0
687,1.0
688,2.0
2,1, 1,21, 0, 2,30.00,40.00,WinterDesignDay
250,-17.011540881382096
251,33258891.428634863
336,0.0
385,18.886678975701933
386,28.21478683039893
387,-18.497752451487067
388,0.0
425,0.0
450,0.0
451,0.0
452,-19.36040565040789
453,0.0
490,0.0
515,0.0
516,0.0
542,0.0
592,0.0
632,33000000.0
686,1.0
687,1.0
688,2.0
2,1, 1,21, 0, 2,40.00,50.00,WinterDesignDay
250,-17.011540881498842
251,33258891.42863402
336,0.0
385,18.886678975701933
386,28.21478683039893
387,-18.49775377341701
388,0.0
425,0.0
450,0.0
451,0.0
452,-19.360405834750132
453,0.0
490,0.0
515,0.0
516,0.0
542,0.0
592,0.0
632,33000000.0
686,1.0
687,1.0
688,2.0
2,1, 1,21, 0, 2,50.00,60.00,WinterDesignDay
250,-17.01154088161404
251,33258891.428633194
336,0.0
385,18.886678975701933
386,28.21478683039893
387,-18.49775507811235
388,0.0
425,0.0
450,0.0
451,0.0
452,-19.360406016688536
453,0.0
490,0.0
515,0.0
516,0.0
542,0.0
592,0.0
632,33000000.0
686,1.0
687,1.0
688,2.0
2,1, 1,21, 0, 3, 0.00,10.00,WinterDesignDay
250,-17.011540881727708
251,33258891.428632375
336,0.0
385,18.886678975701933
386,28.21478683039893
387,-18.49775636579783
388,0.0
425,0.0
450,0.0
451,0.0
452,-19.36040619625445
453,0.0
490,0.0
515,0.0
516,0.0
542,0.0
592,0.0
632,33000000.0
686,1.0
687,1.0
688,2.0
2,1, 1,21, 0, 3,10.00,20.00,WinterDesignDay
250,-17.011540881839874
251,33258891.42863157
336,0.0
385,18.886678975701933
386,28.21478683039893
387,-18.497757636695248
388,0.0
425,0.0
450,0.0
451,0.0
452,-19.360406373478813
453,0.0
490,0.0
515,0.0
516,0.0
542,0.0
592,0.0
632,33000000.0
686,1.0
687,1.0
688,2.0
2,1, 1,21, 0, 3,20.00,30.00,WinterDesignDay
250,-17.01154088195055
251,33258891.428630766
336,0.0
385,18.886678975701933
386,28.21478683039893
387,-18.497758891023317
388,0.0
425,0.0
450,0.0
451,0.0
452,-19.36040654839217
453,0.0
490,0.0
515,0.0
516,0.0
542,0.0
592,0.0
632,33000000.0
686,1.0
687,1.0
688,2.0
2,1, 1,21, 0, 3,30.00,40.00,WinterDesignDay
250,-17.01154088205976
251,33258891.428629983
336,0.0
385,18.886678975701933
386,28.21478683039893
387,-18.49776012899802
388,0.0
425,0.0
450,0.0
451,0.0
452,-19.36040672102466
453,0.0
490,0.0
515,0.0
516,0.0
542,0.0
592,0.0
632,33000000.0
686,1.0
687,1.0
688,2.0
2,1, 1,21, 0, 3,40.00,50.00,WinterDesignDay
250,-17.011540882167527
251,33258891.42862921
336,0.0
385,18.886678975701933
386,28.21478683039893
387,-18.49776135083263
388,0.0
425,0.0
450,0.0
451,0.0
452,-19.360406891406026
453,0.0
490,0.0
515,0.0
516,0.0
542,0.0
592,0.0
632,33000000.0
686,1.0
687,1.0
688,2.0
2,1, 1,21, 0, 3,50.00,60.00,WinterDesignDay
250,-17.011540882273863
251,33258891.428628445
336,0.0
385,18.886678975701933
386,28.21478683039893
387,-18.497762556737545
388,0.0
425,0.0
450,0.0
451,0.0
452,-19.360407059565624
453,0.0
490,0.0
515,0.0
516,0.0
542,0.0
592,0.0
632,33000000.0
686,1.0
687,1.0
688,2.0
2,1, 1,21, 0, 4, 0.00,10.00,WinterDesignDay
250,-17.011540882378792
251,33258891.42862769
336,0.0
385,18.886678975701933
386,28.21478683039893
387,-18.497763746920594
388,0.0
425,0.0
450,0.0
451,0.0
452,-19.36040722553243
453,0.0
490,0.0
515,0.0
516,0.0
542,0.0
592,0.0
632,33000000.0
686,1.0
687,1.0
688,2.0
2,1, 1,21, 0, 4,10.00,20.00,WinterDesignDay
250,-17.011540882482333
251,33258891.428626947
336,0.0
385,18.886678975701933
386,28.21478683039893
387,-18.497764921586715
388,0.0
425,0.0
450,0.0
451,0.0
452,-19.36040738933504
453,0.0
490,0.0
515,0.0
516,0.0
542,0.0
592,0.0
632,33000000.0
686,1.0
687,1.0
688,2.0
2,1, 1,21, 0, 4,20.00,30.00,WinterDesignDay
250,-17.011540882584498
251,33258891.428626202
336,0.0
385,18.886678975701933
386,28.21478683039893
387,-18.49776608093807
388,0.0
425,0.0
450,0.0
451,0.0
452,-19.360407551001686
453,0.0
490,0.0
515,0.0
516,0.0
542,0.0
592,0.0
632,33000000.0
686,1.0
687,1.0
688,2.0
2,1, 1,21, 0, 4,30.00,40.00,WinterDesignDay
250,-17.011540882685313
251,33258891.428625483
336,0.0
385,18.886678975701933
386,28.21478683039893
387,-18.49776722517439
388,0.0
425,0.0
450,0.0
451,0.0
452,-19.360407710560214
453,0.0
490,0.0
515,0.0
516,0.0
542,0.0
592,0.0
632,33000000.0
686,1.0
687,1.0
688,2.0
2,1, 1,21, 0, 4,40.00,50.00,WinterDesignDay
250,-17.011540882784796
251,33258891.428624768
336,0.0
385,18.886678975701933
386,28.21478683039893
387,-18.49776835449265
388,0.0
425,0.0
450,0.0
451,0.0
452,-19.360407868038124
453,0.0
490,0.0
515,0.0
516,0.0
542,0.0
592,0.0
632,33000000.0
686,1.0
687,1.0
688,2.0
2,1, 1,21, 0, 4,50.00,60.00,WinterDesignDay
250,-17.01154088288296
251,33258891.42862406
336,0.0
385,18.886678975701933
386,28.21478683039893
387,-18.497769469087558
388,0.0
425,0.0
450,0.0
451,0.0
452,-19.36040802346255
453,0.0
490,0.0
515,0.0
516,0.0
542,0.0
592,0.0
632,33000000.0
686,1.0
687,1.0
688,2.0
2,1, 1,21, 0, 5, 0.00,10.00,WinterDesignDay
250,-17.011540882979826
251,33258891.428623363
336,0.0
385,18.886678975701933
386,28.21478683039893
387,-18.497770569150983
388,0.0
425,0.0
450,0.0
451,0.0
452,-19.36040817686027
453,0.0
490,0.0
515,0.0
516,0.0
542,0.0
592,0.0
632,33000000.0
686,1.0
687,1.0
688,2.0
2,1, 1,21, 0, 5,10.00,20.00,WinterDesignDay
250,-17.01154088307541
251,33258891.428622678
336,0.0
385,18.886678975701933
386,28.21478683039893
387,-18.49777165487214
388,0.0
425,0.0
450,0.0
451,0.0
452,-19.360408328257716
453,0.0
490,0.0
515,0.0
516,0.0
542,0.0
592,0.0
632,33000000.0
686,1.0
687,1.0
688,2.0
2,1, 1,21, 0, 5,20.00,30.00,WinterDesignDay
250,-17.01154088316973
251,33258891.428622
336,0.0
385,18.886678975701933
386,28.21478683039893
387,-18.497772726438033
388,0.0
425,0.0
450,0.0
451,0.0
452,-19.360408477680974
453,0.0
490,0.0
515,0.0
516,0.0
542,0.0
592,0.0
632,33000000.0
686,1.0
687,1.0
688,2.0
2,1, 1,21, 0, 5,30.00,40.00,WinterDesignDay
250,-17.0115408832628
251,33258891.428621326
336,0.0
385,18.886678975701933
386,28.21478683039893
387,-18.49777378403336
388,0.0
425,0.0
450,0.0
451,0.0
452,-19.36040862515579
453,0.0
490,0.0
515,0.0
516,0.0
542,0.0
592,0.0
632,33000000.0
686,1.0
687,1.0
688,2.0
2,1, 1,21, 0, 5,40.00,50.00,WinterDesignDay
250,-17.01154088335464
251,33258891.428620674
336,0.0
385,18.886678975701933
386,28.21478683039893
387,-18.497774827840246
388,0.0
425,0.0
450,0.0
451,0.0
452,-19.360408770707576
453,0.0
490,0.0
515,0.0
516,0.0
542,0.0
592,0.0
632,33000000.0
686,1.0
687,1.0
688,2.0
2,1, 1,21, 0, 5,50.00,60.00,WinterDesignDay
250,-17.011540883445264
251,33258891.428620018
336,0.0
385,18.886678975701933
386,28.21478683039893
387,-18.497775858038384
388,0.0
425,0.0
450,0.0
451,0.0
452,-19.36040891436141
453,0.0
490,0.0
515,0.0
516,0.0
542,0.0
592,0.0
632,33000000.0
686,1.0
687,1.0
688,2.0
2,1, 1,21, 0, 6, 0.00,10.00,WinterDesignDay
250,-17.011540883534693
251,33258891.42861938
336,0.0
385,18.886678975701933
386,28.21478683039893
387,-18.49777687480538
388,0.0
425,0.0
450,0.0
451,0.0
452,-19.36040905614204
453,0.0
490,0.0
515,0.0
516,0.0
542,0.0
592,0.0
632,33000000.0
686,1.0
687,1.0
688,2.0
2,1, 1,21, 0, 6,10.00,20.00,WinterDesignDay
250,-17.01154088362294
251,33258891.428618748
336,0.0
385,18.886678975701933
386,28.21478683039893
387,-18.49777787831627
388,0.0
425,0.0
450,0.0
451,0.0
452,-19.360409196073892
453,0.0
490,0.0
515,0.0
516,0.0
542,0.0
592,0.0
632,33000000.0
686,1.0
687,1.0
688,2.0
2,1, 1,21, 0, 6,20.00,30.00,WinterDesignDay
250,-17.01154088371002
251,33258891.428618114
336,0.0
385,18.886678975701933
386,28.21478683039893
387,-18.497778868743758
388,0.0
425,0.0
450,0.0
451,0.0
452,-19.360409334181078
453,0.0
490,0.0
515,0.0
516,0.0
542,0.0
592,0.0
632,33000000.0
686,1.0
687,1.0
688,2.0
2,1, 1,21, 0, 6,30.00,40.00,WinterDesignDay
250,-17.011540883795945
251,33258891.428617496
336,0.0
385,18.886678975701933
386,28.21478683039893
387,-18.497779846258492
388,0.0
425,0.0
450,0.0
451,0.0
452,-19.3604094704874
453,0.0
490,0.0
515,0.0
516,0.0
542,0.0
592,0.0
632,33000000.0
686,1.0
687,1.0
688,2.0
2,1, 1,21, 0, 6,40.00,50.00,WinterDesignDay
250,-17.011540883880738
251,33258891.42861689
336,0.0
385,18.886678975701933
386,28.21478683039893
387,-18.497780811028782
388,0.0
425,0.0
450,0.0
451,0.0
452,-19.36040960501634
453,0.0
490,0.0
515,0.0
516,0.0
542,0.0
592,0.0
632,33000000.0
686,1.0
687,1.0
688,2.0
2,1, 1,21, 0, 6,50.00,60.00,WinterDesignDay
250,-17.01154088396441
251,33258891.42861629
336,0.0
385,18.886678975701933
386,28.21478683039893
387,-18.49778176322066
388,0.0
425,0.0
450,0.0
451,0.0
452,-19.360409737791073
453,0.0
490,0.0
515,0.0
516,0.0
542,0.0
592,0.0
632,33000000.0
686,1.0
687,1.0
688,2.0
2,1, 1,21, 0, 7, 0.00,10.00,WinterDesignDay
250,-17.011540884046976
251,33258891.4286157
336,0.0
385,18.886678975701933
386,28.21478683039893
387,-18.497782702998226
388,0.0
425,0.0
450,0.0
451,0.0
452,-19.360409868834484
453,0.0
490,0.0
515,0.0
516,0.0
542,0.0
592,0.0
632,33000000.0
686,1.0
687,1.0
688,2.0
2,1, 1,21, 0, 7,10.00,20.00,WinterDesignDay
250,-17.01154088412845
251,33258891.42861511
336,0.0
385,18.886678975701933
386,28.21478683039893
387,-18.49778363052329
388,0.0
425,0.0
450,0.0
451,0.0
452,-19.360409998169143
453,0.0
490,0.0
515,0.0
516,0.0
542,0.0
592,0.0
632,33000000.0
686,1.0
687,1.0
688,2.0
2,1, 1,21, 0, 7,20.00,30.00,WinterDesignDay
250,-17.011540884208852
251,33258891.42861454
336,0.0
385,18.886678975701933
386,28.21478683039893
387,-18.497784545955746
388,0.0
425,0.0
450,0.0
451,0.0
452,-19.36041012581733
453,0.0
490,0.0
515,0.0
516,0.0
542,0.0
592,0.0
632,33000000.0
686,1.0
687,1.0
688,2.0
2,1, 1,21, 0, 7,30.00,40.00,WinterDesignDay
250,-17.011540884288188
251,33258891.42861397
336,0.0
385,18.886678975701933
386,28.21478683039893
387,-18.49778544945329
388,0.0
425,0.0
450,0.0
451,0.0
452,-19.36041025180105
453,0.0
490,0.0
515,0.0
516,0.0
542,0.0
592,0.0
632,33000000.0
686,1.0
687,1.0
688,2.0
2,1, 1,21, 0, 7,40.00,50.00,WinterDesignDay
250,-17.01154088436647
251,33258891.4286134
336,0.0
385,18.886678975701933
386,28.21478683039893
387,-18.49778634117141
388,0.0
425,0.0
450,0.0
451,0.0
452,-19.360410376142
453,0.0
490,0.0
515,0.0
516,0.0
542,0.0
592,0.0
632,33000000.0
686,1.0
687,1.0
688,2.0
2,1, 1,21, 0, 7,50.00,60.00,WinterDesignDay
250,-17.011540884443736
251,33258891.428612854
336,0.0
385,18.886678975701933
386,28.21478683039893
387,-18.497787221263597
388,0.0
425,0.0
450,0.0
451,0.0
452,-19.360410498861608
453,0.0
490,0.0
515,0.0
516,0.0
542,0.0
592,0.0
632,33000000.0
686,1.0
687,1.0
688,2.0
2,1, 1,21, 0, 8, 0.00,10.00,WinterDesignDay
250,-17.01154088451997
251,33258891.4286123
336,0.0
385,18.886678975701933
386,28.21478683039893
387,-18.4977880898814
388,0.0
425,0.0
450,0.0
451,0.0
452,-19.360410619981014
453,0.0
490,0.0
515,0.0
516,0.0
542,0.0
592,0.0
632,33000000.0
686,1.0
687,1.0
688,2.0
2,1, 1,21, 0, 8,10.00,20.00,WinterDesignDay
250,-17.011540884595195
251,33258891.428611763
336,0.0
385,18.886678975701933
386,28.21478683039893
387,-18.49778894717455
388,0.0
425,0.0
450,0.0
451,0.0
452,-19.36041073952109
453,0.0
490,0.0
515,0.0
516,0.0
542,0.0
592,0.0
632,33000000.0
686,1.0
687,1.0
688,2.0
2,1, 1,21, 0, 8,20.00,30.00,WinterDesignDay
250,-17.01154088466943
251,33258891.42861123
336,0.0
385,18.886678975701933
386,28.21478683039893
387,-18.497789793290547
388,0.0
425,0.0
450,0.0
451,0.0
452,-19.360410857502423
453,0.0
490,0.0
515,0.0
516,0.0
542,0.0
592,0.0
632,33000000.0
686,1.0
687,1.0
688,2.0
2,1, 1,21, 0, 8,30.00,40.00,WinterDesignDay
250,-17.01154088474269
251,33258891.42861071
336,0.0
385,18.886678975701933
386,28.21478683039893
387,-18.497790628375082
388,0.0
425,0.0
450,0.0
451,0.0
452,-19.360410973945346
453,0.0
490,0.0
515,0.0
516,0.0
542,0.0
592,0.0
632,33000000.0
686,1.0
687,1.0
688,2.0
2,1, 1,21, 0, 8,40.00,50.00,WinterDesignDay
250,-17.011540884814977
251,33258891.428610187
336,0.0
385,18.886678975701933
386,28.21478683039893
387,-18.49779145257202
388,0.0
425,0.0
450,0.0
451,0.0
452,-19.360411088869924
453,0.0
490,0.0
515,0.0
516,0.0
542,0.0
592,0.0
632,33000000.0
686,1.0
687,1.0
688,2.0
2,1, 1,21, 0, 8,50.00,60.00,WinterDesignDay
250,-17.011540884886312
251,33258891.428609673
336,0.0
385,18.886678975701933
386,28.21478683039893
387,-18.497792266023335
388,0.0
425,0.0
450,0.0
451,0.0
452,-19.360411202295957
453,0.0
490,0.0
515,0.0
516,0.0
542,0.0
592,0.0
632,33000000.0
686,1.0
687,1.0
688,2.0
2,1, 1,21, 0, 9, 0.00,10.00,WinterDesignDay
250,-17.011540884956705
251,33258891.42860917
336,0.0
385,18.886678975701933
386,28.21478683039893
387,-18.497793068869075
388,0.0
425,0.0
450,0.0
451,0.0
452,-19.36041131424298
453,0.0
490,0.0
515,0.0
516,0.0
542,0.0
592,0.0
632,33000000.0
686,1.0
687,1.0
688,2.0
2,1, 1,21, 0, 9,10.00,20.00,WinterDesignDay
250,-17.01154088502617
251,33258891.428608675
336,0.0
385,18.886678975701933
386,28.21478683039893
387,-18.49779386124766
388,0.0
425,0.0
450,0.0
451,0.0
452,-19.36041142473028
453,0.0
490,0.0
515,0.0
516,0.0
542,0.0
592,0.0
632,33000000.0
686,1.0
687,1.0
688,2.0
2,1, 1,21, 0, 9,20.00,30.00,WinterDesignDay
250,-17.01154088509472
251,33258891.428608183
336,0.0
385,18.886678975701933
386,28.21478683039893
387,-18.497794643295705
388,0.0
425,0.0
450,0.0
451,0.0
452,-19.360411533776894
453,0.0
490,0.0
515,0.0
516,0.0
542,0.0
592,0.0
632,33000000.0
686,1.0
687,1.0
688,2.0
2,1, 1,21, 0, 9,30.00,40.00,WinterDesignDay
250,-17.011540885162365
251,33258891.428607695
336,0.0
385,18.886678975701933
386,28.21478683039893
387,-18.4977954151477
388,0.0
425,0.0
450,0.0
451,0.0
452,-19.36041164140161
453,0.0
490,0.0
515,0.0
516,0.0
542,0.0
592,0.0
632,33000000.0
686,1.0
687,1.0
688,2.0
2,1, 1,21, 0, 9,40.00,50.00,WinterDesignDay
250,-17.011540885229117
251,33258891.428607218
336,0.0
385,18.886678975701933
386,28.21478683039893
387,-18.497796176936337
388,0.0
425,0.0
450,0.0
451,0.0
452,-19.36041174762297
453,0.0
490,0.0
515,0.0
516,0.0
542,0.0
592,0.0
632,33000000.0
686,1.0
687,1.0
688,2.0
2,1, 1,21, 0, 9,50.00,60.00,WinterDesignDay
250,-17.011540885294988
251,33258891.42860674
336,0.0
385,18.886678975701933
386,28.21478683039893
387,-18.497796928792983
388,0.0
425,0.0
450,0.0
451,0.0
452,-19.360411852459276
453,0.0
490,0.0
515,0.0
516,0.0
542,0.0
592,0.0
632,33000000.0
686,1.0
687,1.0
688,2.0
2,1, 1,21, 0,10, 0.00,10.00,WinterDesignDay
250,-17.01154088535999
251,33258891.428606283
336,0.0
385,18.886678975701933
386,28.21478683039893
387,-18.49779767084724
388,0.0
425,0.0
450,0.0
451,0.0
452,-19.360411955928598
453,0.0
490,0.0
515,0.0
516,0.0
542,0.0
592,0.0
632,33000000.0
686,1.0
687,1.0
688,2.0
2,1, 1,21, 0,10,10.00,20.00,WinterDesignDay
250,-17.01154088542414
251,33258891.428605825
336,0.0
385,18.886678975701933
386,28.21478683039893
387,-18.497798403226966
388,0.0
425,0.0
450,0.0
451,0.0
452,-19.36041205804875
453,0.0
490,0.0
515,0.0
516,0.0
542,0.0
592,0.0
632,33000000.0
686,1.0
687,1.0
688,2.0
2,1, 1,21, 0,10,20.00,30.00,WinterDesignDay
250,-17.011540885487438
251,33258891.428605366
336,0.0
385,18.886678975701933
386,28.21478683039893
387,-18.49779912605828
388,0.0
425,0.0
450,0.0
451,0.0
452,-19.360412158837327
453,0.0
490,0.0
515,0.0
516,0.0
542,0.0
592,0.0
632,33000000.0
686,1.0
687,1.0
688,2.0
2,1, 1,21, 0,10,30.00,40.00,WinterDesignDay
250,-17.011540885549902
251,33258891.428604923
336,0.0
385,18.886678975701933
386,28.21478683039893
387,-18.497799839465408
388,0.0
425,0.0
450,0.0
451,0.0
452,-19.360412258311694
453,0.0
490,0.0
515,0.0
516,0.0
542,0.0
592,0.0
632,33000000.0
686,1.0
687,1.0
688,2.0
2,1, 1,21, 0,10,40.00,50.00,WinterDesignDay
250,-17.01154088561155
251,33258891.42860448
336,0.0
385,18.886678975701933
386,28.21478683039893
387,-18.497800543571127
388,0.0
425,0.0
450,0.0
451,0.0
452,-19.360412356488993
453,0.0
490,0.0
515,0.0
516,0.0
542,0.0
592,0.0
632,33000000.0
686,1.0
687,1.0
688,2.0
2,1, 1,21, 0,10,50.00,60.00,WinterDesignDay
250,-17.011540885672378
251,33258891.42860404
336,0.0
385,18.886678975701933
386,28.21478683039893
387,-18.497801238496876
388,0.0
425,0.0
450,0.0
451,0.0
452,-19.360412453386136
453,0.0
490,0.0
515,0.0
516,0.0
542,0.0
592,0.0
632,33000000.0
686,1.0
687,1.0
688,2.0
2,1, 1,21, 0,11, 0.00,10.00,WinterDesignDay
250,-17.011540885732405
251,33258891.428603616
336,0.0
385,18.886678975701933
386,28.21478683039893
387,-18.49780192436233
388,0.0
425,0.0
450,0.0
451,0.0
452,-19.360412549019816
453,0.0
490,0.0
515,0.0
516,0.0
542,0.0
592,0.0
632,33000000.0
686,1.0
687,1.0
688,2.0
2,1, 1,21, 0,11,10.00,20.00,WinterDesignDay
250,-17.01154088579164
251,33258891.428603183
336,0.0
385,18.886678975701933
386,28.21478683039893
387,-18.497802601285873
388,0.0
425,0.0
450,0.0
451,0.0
452,-19.36041264340651
453,0.0
490,0.0
515,0.0
516,0.0
542,0.0
592,0.0
632,33000000.0
686,1.0
687,1.0
688,2.0
2,1, 1,21, 0,11,20.00,30.00,WinterDesignDay
250,-17.011540885850096
251,33258891.42860277
336,0.0
385,18.886678975701933
386,28.21478683039893
387,-18.49780326938393
388,0.0
425,0.0
450,0.0
451,0.0
452,-19.360412736562473
453,0.0
490,0.0
515,0.0
516,0.0
542,0.0
592,0.0
632,33000000.0
686,1.0
687,1.0
688,2.0
2,1, 1,21, 0,11,30.00,40.00,WinterDesignDay
250,-17.011540885907785
251,33258891.42860236
336,0.0
385,18.886678975701933
386,28.21478683039893
387,-18.49780392877146
388,0.0
425,0.0
450,0.0
451,0.0
452,-19.360412828503758
453,0.0
490,0.0
515,0.0
516,0.0
542,0.0
592,0.0
632,33000000.0
686,1.0
687,1.0
688,2.0
2,1, 1,21, 0,11,40.00,50.00,WinterDesignDay
250,-17.011540885964706
251,33258891.428601943
336,0.0
385,18.886678975701933
386,28.21478683039893
387,-18.49780457956208
388,0.0
425,0.0
450,0.0
451,0.0
452,-19.360412919246205
453,0.0
490,0.0
515,0.0
516,0.0
542,0.0
592,0.0
632,33000000.0
686,1.0
687,1.0
688,2.0
2,1, 1,21, 0,11,50.00,60.00,WinterDesignDay
250,-17.011540886020885
251,33258891.42860155
336,0.0
385,18.886678975701933
386,28.21478683039893
387,-18.497805221867914
388,0.0
425,0.0
450,0.0
451,0.0
452,-19.360413008805445
453,0.0
490,0.0
515,0.0
516,0.0
542,0.0
592,0.0
632,33000000.0
686,1.0
687,1.0
688,2.0
2,1, 1,21, 0,12, 0.00,10.00,WinterDesignDay
250,-17.01154088607632
251,33258891.42860115
336,0.0
385,18.886678975701933
386,28.21478683039893
387,-18.497805855799438
388,0.0
425,0.0
450,0.0
451,0.0
452,-19.360413097196915
453,0.0
490,0.0
515,0.0
516,0.0
542,0.0
592,0.0
632,33000000.0
686,1.0
687,1.0
688,2.0
2,1, 1,21, 0,12,10.00,20.00,WinterDesignDay
250,-17.01154088613103
251,33258891.42860076
336,0.0
385,18.886678975701933
386,28.21478683039893
387,-18.4978064814659
388,0.0
425,0.0
450,0.0
451,0.0
452,-19.36041318443584
453,0.0
490,0.0
515,0.0
516,0.0
542,0.0
592,0.0
632,33000000.0
686,1.0
687,1.0
688,2.0
2,1, 1,21, 0,12,20.00,30.00,WinterDesignDay
250,-17.011540886185017
251,33258891.42860038
336,0.0
385,18.886678975701933
386,28.21478683039893
387,-18.497807098975148
388,0.0
425,0.0
450,0.0
451,0.0
452,-19.36041327053724
453,0.0
490,0.0
515,0.0
516,0.0
542,0.0
592,0.0
632,33000000.0
686,1.0
687,1.0
688,2.0
2,1, 1,21, 0,12,30.00,40.00,WinterDesignDay
250,-17.01154088623829
251,33258891.42859999
336,0.0
385,18.886678975701933
386,28.21478683039893
387,-18.497807708433502
388,0.0
425,0.0
450,0.0
451,0.0
452,-19.360413355515956
453,0.0
490,0.0
515,0.0
516,0.0
542,0.0
592,0.0
632,33000000.0
686,1.0
687,1.0
688,2.0
2,1, 1,21, 0,12,40.00,50.00,WinterDesignDay
250,-17.011540886290867
251,33258891.42859962
336,0.0
385,18.886678975701933
386,28.21478683039893
387,-18.497808309945857
388,0.0
425,0.0
450,0.0
451,0.0
452,-19.360413439386626
453,0.0
490,0.0
515,0.0
516,0.0
542,0.0
592,0.0
632,33000000.0
686,1.0
687,1.0
688,2.0
2,1, 1,21, 0,12,50.00,60.00,WinterDesignDay
250,-17.011540886342743
251,33258891.428599242
336,0.0
385,18.886678975701933
386,28.21478683039893
387,-18.497808903615653
388,0.0
425,0.0
450,0.0
451,0.0
452,-19.3604135221637
453,0.0
490,0.0
515,0.0
516,0.0
542,0.0
592,0.0
632,33000000.0
686,1.0
687,1.0
688,2.0
2,1, 1,21, 0,13, 0.00,10.00,WinterDesignDay
250,-17.011540886393945
251,33258891.42859888
336,0.0
385,18.886678975701933
386,28.21478683039893
387,-18.49780948954527
388,0.0
425,0.0
450,0.0
451,0.0
452,-19.36041360386144
453,0.0
490,0.0
515,0.0
516,0.0
542,0.0
592,0.0
632,33000000.0
686,1.0
687,1.0
688,2.0
2,1, 1,21, 0,13,10.00,20.00,WinterDesignDay
250,-17.011540886444468
251,33258891.428598516
336,0.0
385,18.886678975701933
386,28.21478683039893
387,-18.497810067835857
388,0.0
425,0.0
450,0.0
451,0.0
452,-19.360413684493906
453,0.0
490,0.0
515,0.0
516,0.0
542,0.0
592,0.0
632,33000000.0
686,1.0
687,1.0
688,2.0
2,1, 1,21, 0,13,20.00,30.00,WinterDesignDay
250,-17.011540886494327
251,33258891.42859816
336,0.0
385,18.886678975701933
386,28.21478683039893
387,-18.497810638586873
388,0.0
425,0.0
450,0.0
451,0.0
452,-19.360413764075002
453,0.0
490,0.0
515,0.0
516,0.0
542,0.0
592,0.0
632,33000000.0
686,1.0
687,1.0
688,2.0
2,1, 1,21, 0,13,30.00,40.00,WinterDesignDay
250,-17.011540886543532
251,33258891.42859781
336,0.0
385,18.886678975701933
386,28.21478683039893
387,-18.497811201896678
388,0.0
425,0.0
450,0.0
451,0.0
452,-19.360413842618442
453,0.0
490,0.0
515,0.0
516,0.0
542,0.0
592,0.0
632,33000000.0
686,1.0
687,1.0
688,2.0
2,1, 1,21, 0,13,40.00,50.00,WinterDesignDay
250,-17.01154088659209
251,33258891.42859746
336,0.0
385,18.886678975701933
386,28.21478683039893
387,-18.497811757862053
388,0.0
425,0.0
450,0.0
451,0.0
452,-19.360413920137756
453,0.0
490,0.0
515,0.0
516,0.0
542,0.0
592,0.0
632,33000000.0
686,1.0
687,1.0
688,2.0
2,1, 1,21, 0,13,50.00,60.00,WinterDesignDay
250,-17.011540886640006
251,33258891.42859712
336,0.0
385,18.886678975701933
386,28.21478683039893
387,-18.49781230657882
388,0.0
425,0.0
450,0.0
451,0.0
452,-19.36041399664629
453,0.0
490,0.0
515,0.0
516,0.0
542,0.0
592,0.0
632,33000000.0
686,1.0
687,1.0
688,2.0
2,1, 1,21, 0,14, 0.00,10.00,WinterDesignDay
250,-17.011540886687293
251,33258891.428596783
336,0.0
385,18.886678975701933
386,28.21478683039893
387,-18.497812848141777
388,0.0
425,0.0
450,0.0
451,0.0
452,-19.36041407215723
453,0.0
490,0.0
515,0.0
516,0.0
542,0.0
592,0.0
632,33000000.0
686,1.0
687,1.0
688,2.0
2,1, 1,21, 0,14,10.00,20.00,WinterDesignDay
250,-17.011540886733957
251,33258891.42859645
336,0.0
385,18.886678975701933
386,28.21478683039893
387,-18.497813382644008
388,0.0
425,0.0
450,0.0
451,0.0
452,-19.360414146683578
453,0.0
490,0.0
515,0.0
516,0.0
542,0.0
592,0.0
632,33000000.0
686,1.0
687,1.0
688,2.0
2,1, 1,21, 0,14,20.00,30.00,WinterDesignDay
250,-17.011540886780008
251,33258891.428596117
336,0.0
385,18.886678975701933
386,28.21478683039893
387,-18.49781391017741
388,0.0
425,0.0
450,0.0
451,0.0
452,-19.36041422023818
453,0.0
490,0.0
515,0.0
516,0.0
542,0.0
592,0.0
632,33000000.0
686,1.0
687,1.0
688,2.0
2,1, 1,21, 0,14,30.00,40.00,WinterDesignDay
250,-17.01154088682545
251,33258891.428595793
336,0.0
385,18.886678975701933
386,28.21478683039893
387,-18.49781443083278
388,0.0
425,0.0
450,0.0
451,0.0
452,-19.36041429283371
453,0.0
490,0.0
515,0.0
516,0.0
542,0.0
592,0.0
632,33000000.0
686,1.0
687,1.0
688,2.0
2,1, 1,21, 0,14,40.00,50.00,WinterDesignDay
250,-17.011540886870296
251,33258891.42859547
336,0.0
385,18.886678975701933
386,28.21478683039893
387,-18.497814944699915
388,0.0
425,0.0
450,0.0
451,0.0
452,-19.360414364482672
453,0.0
490,0.0
515,0.0
516,0.0
542,0.0
592,0.0
632,33000000.0
686,1.0
687,1.0
688,2.0
2,1, 1,21, 0,14,50.00,60.00,WinterDesignDay
250,-17.011540886914553
251,33258891.428595155
336,0.0
385,18.886678975701933
386,28.21478683039893
387,-18.497815451867346
388,0.0
425,0.0
450,0.0
451,0.0
452,-19.360414435197406
453,0.0
490,0.0
515,0.0
516,0.0
542,0.0
592,0.0
632,33000000.0
686,1.0
687,1.0
688,2.0
2,1, 1,21, 0,15, 0.00,10.00,WinterDesignDay
250,-17.01154088695823
251,33258891.428594846
336,0.0
385,18.886678975701933
386,28.21478683039893
387,-18.497815952422368
388,0.0
425,0.0
450,0.0
451,0.0
452,-19.360414504990093
453,0.0
490,0.0
515,0.0
516,0.0
542,0.0
592,0.0
632,33000000.0
686,1.0
687,1.0
688,2.0
2,1, 1,21, 0,15,10.00,20.00,WinterDesignDay
250,-17.01154088700133
251,33258891.42859454
336,0.0
385,18.886678975701933
386,28.21478683039893
387,-18.4978164464513
388,0.0
425,0.0
450,0.0
451,0.0
452,-19.360414573872752
453,0.0
490,0.0
515,0.0
516,0.0
542,0.0
592,0.0
632,33000000.0
686,1.0
687,1.0
688,2.0
2,1, 1,21, 0,15,20.00,30.00,WinterDesignDay
250,-17.011540887043864
251,33258891.428594235
336,0.0
385,18.886678975701933
386,28.21478683039893
387,-18.497816934039324
388,0.0
425,0.0
450,0.0
451,0.0
452,-19.360414641857258
453,0.0
490,0.0
515,0.0
516,0.0
542,0.0
592,0.0
632,33000000.0
686,1.0
687,1.0
688,2.0
2,1, 1,21, 0,15,30.00,40.00,WinterDesignDay
250,-17.01154088708584
251,33258891.428593937
336,0.0
385,18.886678975701933
386,28.21478683039893
387,-18.4978174152702
388,0.0
425,0.0
450,0.0
451,0.0
452,-19.360414708955318
453,0.0
490,0.0
515,0.0
516,0.0
542,0.0
592,0.0
632,33000000.0
686,1.0
687,1.0
688,2.0
2,1, 1,21, 0,15,40.00,50.00,WinterDesignDay
250,-17.01154088712726
251,33258891.428593636
336,0.0
385,18.886678975701933
386,28.21478683039893
387,-18.497817890226884
388,0.0
425,0.0
450,0.0
451,0.0
452,-19.360414775178494
453,0.0
490,0.0
515,0.0
516,0.0
542,0.0
592,0.0
632,33000000.0
686,1.0
687,1.0
688,2.0