Program Version,EnergyPlus, Version 24.2.0-94a887817b, YMD=2025.02.04 15:38
1,5,Environment Title[],Latitude[deg],Longitude[deg],Time Zone[],Elevation[m]
2,8,Day of Simulation[],Month[],Day of Month[],DST Indicator[1=yes 0=no],Hour[],StartMinute[],EndMinute[],DayType
3,5,Cumulative Day of Simulation[],Month[],Day of Month[],DST Indicator[1=yes 0=no],DayType  ! When Daily Meters Requested
4,2,Cumulative Days of Simulation[],Month[]  ! When Monthly Meters Requested
5,1,Cumulative Days of Simulation[] ! When Run Period Meters Requested
6,1,Calendar Year of Simulation[] ! When Annual Meters Requested
11,9,Electricity:Facility [J] !Monthly [Value,Min,Day,Hour,Minute,Max,Day,Hour,Minute]
23,9,Electricity:Building [J] !Monthly [Value,Min,Day,Hour,Minute,Max,Day,Hour,Minute]
59,9,InteriorLights:Electricity [J] !Monthly [Value,Min,Day,Hour,Minute,Max,Day,Hour,Minute]
521,9,Electricity:HVAC [J] !Monthly [Value,Min,Day,Hour,Minute,Max,Day,Hour,Minute]
637,9,NaturalGas:Facility [J] !Monthly [Value,Min,Day,Hour,Minute,Max,Day,Hour,Minute]
649,9,NaturalGas:HVAC [J] !Monthly [Value,Min,Day,Hour,Minute,Max,Day,Hour,Minute]
13,11,Electricity:Facility [J] !RunPeriod [Value,Min,Month,Day,Hour,Minute,Max,Month,Day,Hour,Minute]
25,11,Electricity:Building [J] !RunPeriod [Value,Min,Month,Day,Hour,Minute,Max,Month,Day,Hour,Minute]
61,11,InteriorLights:Electricity [J] !RunPeriod [Value,Min,Month,Day,Hour,Minute,Max,Month,Day,Hour,Minute]
523,11,Electricity:HVAC [J] !RunPeriod [Value,Min,Month,Day,Hour,Minute,Max,Month,Day,Hour,Minute]
639,11,NaturalGas:Facility [J] !RunPeriod [Value,Min,Month,Day,Hour,Minute,Max,Month,Day,Hour,Minute]
651,11,NaturalGas:HVAC [J] !RunPeriod [Value,Min,Month,Day,Hour,Minute,Max,Month,Day,Hour,Minute]
End of Data Dictionary
1,RUN PERIOD 1,  41.98, -87.92,  -6.00, 201.00
4,31, 1
11,9816099553.728977,408891.4285714286, 5, 6,50,2974436.611156777,16,13,60
23,977049452.4979788,30000.0, 1, 1,10,604963.3713753527, 1, 9,10
59,970200000.0,30000.0, 1, 1,10,600000.0, 1, 8,10
521,8839050101.230986,378891.4285714286, 5, 6,50,2369473.239781425,16,13,60
637,178915505327.08865,28202712.33791929,21,16,10,41250000.0, 1, 1,10
649,178915505327.08865,28202712.33791929,21,16,10,41250000.0, 1, 1,10
4,59, 2
11,9350492166.714287,99999999999999.0, 5, 6,50,3015898.0514199,22,15,30
23,854116045.6504203,99999999999999.0, 1, 1,10,-99999999999999.0, 1, 9,10
59,848160000.0,99999999999999.0, 1, 1,10,-99999999999999.0, 1, 8,10
521,8496376121.063895,99999999999999.0, 5, 6,50,2410934.680044547,22,15,30
637,158276507466.4605,26515846.912928686,23,12,10,-99999999999999.0, 1, 1,10
649,158276507466.4605,26515846.912928686,23,12,10,-99999999999999.0, 1, 1,10
4,90, 3
11,11006130950.765661,99999999999999.0, 5, 6,50,3267458.2618905245,27,16,10
23,903733847.9329396,99999999999999.0, 1, 1,10,-99999999999999.0, 1, 9,10
59,897480000.0,99999999999999.0, 1, 1,10,-99999999999999.0, 1, 8,10
521,10102397102.832697,99999999999999.0, 5, 6,50,2662494.890515172,27,16,10
637,162621770223.8649,20984041.850240406,27,16,10,-99999999999999.0, 1, 1,10
649,162621770223.8649,20984041.850240406,27,16,10,-99999999999999.0, 1, 1,10
4,120, 4
11,9922638144.02881,30000.0,11,19,10,3278980.475055596,11,14,20
23,936071650.2154595,99999999999999.0, 1, 1,10,-99999999999999.0, 1, 9,10
59,929520000.0,99999999999999.0, 1, 1,10,-99999999999999.0, 1, 8,10
521,8986566493.813362,0.0,11,14,30,2674017.1036802432,11,14,20
637,123304950812.98253,0.0,11,14,30,-99999999999999.0, 1, 1,10
649,123304950812.98253,0.0,11,14,30,-99999999999999.0, 1, 1,10
4,151, 5
11,9787535819.81598,99999999999999.0,11,19,10,3279635.0195637215, 6,12,40
23,977382217.1953752,99999999999999.0, 1, 1,10,620865.0712497827,28,13,10
59,970200000.0,99999999999999.0, 1, 1,10,-99999999999999.0, 1, 8,10
521,8810153602.620543,99999999999999.0,11,14,30,2676367.4076115005,26,13,40
637,98867929072.36234,99999999999999.0,11,14,30,-99999999999999.0, 1, 1,10
649,98867929072.36234,99999999999999.0,11,14,30,-99999999999999.0, 1, 1,10
4,181, 6
11,7655622222.302856,99999999999999.0,11,19,10,-99999999999999.0, 6,12,40
23,862852255.7916052,99999999999999.0, 1, 1,10,-99999999999999.0,28,13,10
59,856800000.0,99999999999999.0, 1, 1,10,-99999999999999.0, 1, 8,10
521,6792769966.511245,99999999999999.0,11,14,30,2676979.7934229053, 1,12,30
637,48856100546.709656,99999999999999.0,11,14,30,-99999999999999.0, 1, 1,10
649,48856100546.709656,99999999999999.0,11,14,30,-99999999999999.0, 1, 1,10
4,212, 7
11,7434804308.786799,99999999999999.0,11,19,10,3280756.068086854, 9,11,50
23,977313072.1603166,99999999999999.0, 1, 1,10,-99999999999999.0,28,13,10
59,970200000.0,99999999999999.0, 1, 1,10,-99999999999999.0, 1, 8,10
521,6457491236.626448,99999999999999.0,11,14,30,-99999999999999.0, 1,12,30
637,24936696377.227654,99999999999999.0,11,14,30,-99999999999999.0, 1, 1,10
649,24936696377.227654,99999999999999.0,11,14,30,-99999999999999.0, 1, 1,10
4,243, 8
11,6857975306.7256,99999999999999.0,11,19,10,3283633.17016376, 6, 9,50
23,940777869.4144782,99999999999999.0, 1, 1,10,632300.1318242986, 6,11,60
59,933840000.0,99999999999999.0, 1, 1,10,-99999999999999.0, 1, 8,10
521,5917197437.311144,99999999999999.0,11,14,30,2678669.7987884074, 6, 9,50
637,39765356573.57967,99999999999999.0,11,14,30,-99999999999999.0, 1, 1,10
649,39765356573.57967,99999999999999.0,11,14,30,-99999999999999.0, 1, 1,10
4,273, 9
11,8472999088.83114,99999999999999.0,11,19,10,3284644.5947959092,19,14,60
23,899602158.5887281,99999999999999.0, 1, 1,10,-99999999999999.0, 6,11,60
59,893160000.0,99999999999999.0, 1, 1,10,-99999999999999.0, 1, 8,10
521,7573396930.242382,99999999999999.0,11,14,30,2679681.2234205566,19,14,60
637,74976739974.20605,99999999999999.0,11,14,30,-99999999999999.0, 1, 1,10
649,74976739974.20605,99999999999999.0,11,14,30,-99999999999999.0, 1, 1,10
4,304,10
11,10775667545.980822,99999999999999.0,11,19,10,-99999999999999.0,19,14,60
23,977185813.7429472,99999999999999.0, 1, 1,10,-99999999999999.0, 6,11,60
59,970200000.0,99999999999999.0, 1, 1,10,-99999999999999.0, 1, 8,10
521,9798481732.237892,99999999999999.0,11,14,30,-99999999999999.0,19,14,60
637,130154530021.73334,99999999999999.0,11,14,30,-99999999999999.0, 1, 1,10
649,130154530021.73334,99999999999999.0,11,14,30,-99999999999999.0, 1, 1,10
4,334,11
11,10601319832.660957,99999999999999.0,11,19,10,-99999999999999.0,19,14,60
23,899413847.9329396,99999999999999.0, 1, 1,10,-99999999999999.0, 6,11,60
59,893160000.0,99999999999999.0, 1, 1,10,-99999999999999.0, 1, 8,10
521,9701905984.728018,99999999999999.0,11,14,30,-99999999999999.0,19,14,60
637,148765642534.80942,99999999999999.0,11,14,30,-99999999999999.0, 1, 1,10
649,148765642534.80942,99999999999999.0,11,14,30,-99999999999999.0, 1, 1,10
4,365,12
11,10429342270.599287,99999999999999.0,11,19,10,-99999999999999.0,19,14,60
23,940391650.2154592,99999999999999.0, 1, 1,10,-99999999999999.0, 6,11,60
59,933840000.0,99999999999999.0, 1, 1,10,-99999999999999.0, 1, 8,10
521,9488950620.383821,99999999999999.0,11,14,30,-99999999999999.0,19,14,60
637,179744731210.72006,99999999999999.0,11,14,30,-99999999999999.0, 1, 1,10
649,179744731210.72006,99999999999999.0,11,14,30,-99999999999999.0, 1, 1,10
5,365
13,112110627210.94066,30000.0, 4,11,19,10,3284644.5947959092, 9,19,14,60
25,11145889881.34013,30000.0, 1, 1, 1,10,632300.1318242986, 8, 6,11,60
61,11066760000.0,30000.0, 1, 1, 1,10,600000.0, 1, 1, 8,10
523,100964737329.60878,0.0, 4,11,14,30,2679681.2234205566, 9,19,14,60
639,1369186460141.74,0.0, 4,11,14,30,41250000.0, 1, 1, 1,10
651,1369186460141.74,0.0, 4,11,14,30,41250000.0, 1, 1, 1,10
1,RUN PERIOD 2,  41.98, -87.92,  -6.00, 201.00
4,1, 7
11,113128848.45631643,99999999999999.0,11,19,10,-99999999999999.0,19,14,60
23,40977802.282521136,99999999999999.0, 1, 1,10,-99999999999999.0, 6,11,60
59,40680000.0,99999999999999.0, 1, 1,10,-99999999999999.0, 1, 8,10
521,72151046.17379528,99999999999999.0,11,14,30,-99999999999999.0,19,14,60
637,0.0,99999999999999.0,11,14,30,-99999999999999.0, 1, 1,10
649,0.0,99999999999999.0,11,14,30,-99999999999999.0, 1, 1,10
5,1
13,113128848.45631643,99999999999999.0, 4,11,19,10,-99999999999999.0, 9,19,14,60
25,40977802.282521136,99999999999999.0, 1, 1, 1,10,-99999999999999.0, 8, 6,11,60
61,40680000.0,99999999999999.0, 1, 1, 1,10,-99999999999999.0, 1, 1, 8,10
523,72151046.17379528,99999999999999.0, 4,11,14,30,-99999999999999.0, 9,19,14,60
639,0.0,99999999999999.0, 4,11,14,30,-99999999999999.0, 1, 1, 1,10
651,0.0,99999999999999.0, 4,11,14,30,-99999999999999.0, 1, 1, 1,10
End of Data
 Number of Records Written=          90
