Program Version,EnergyPlus, Version 24.1.0-9d7789a3ac, YMD=2024.07.03 09:44
1,5,Environment Title[],Latitude[deg],Longitude[deg],Time Zone[],Elevation[m]
2,8,Day of Simulation[],Month[],Day of Month[],DST Indicator[1=yes 0=no],Hour[],StartMinute[],EndMinute[],DayType
3,5,Cumulative Day of Simulation[],Month[],Day of Month[],DST Indicator[1=yes 0=no],DayType  ! When Daily Report Variables Requested
4,2,Cumulative Days of Simulation[],Month[]  ! When Monthly Report Variables Requested
5,1,Cumulative Days of Simulation[] ! When Run Period Report Variables Requested
6,1,Calendar Year of Simulation[] ! When Annual Report Variables Requested
250,1,LIVING ZONE,Zone Air Temperature [C] !TimeStep,REPORTSCH
251,1,LIVING ZONE,Zone Air System Sensible Heating Energy [J] !TimeStep,REPORTSCH
336,1,LIVING ZONE,Zone Air System Sensible Cooling Energy [J] !TimeStep,REPORTSCH
385,1,LIVING ZONE,Zone Thermostat Heating Setpoint Temperature [C] !TimeStep,REPORTSCH
386,1,LIVING ZONE,Zone Thermostat Cooling Setpoint Temperature [C] !TimeStep,REPORTSCH
387,1,GARAGE ZONE,Zone Air Temperature [C] !TimeStep,REPORTSCH
388,1,GARAGE ZONE,Zone Air System Sensible Heating Energy [J] !TimeStep,REPORTSCH
425,1,GARAGE ZONE,Zone Air System Sensible Cooling Energy [J] !TimeStep,REPORTSCH
450,1,GARAGE ZONE,Zone Thermostat Heating Setpoint Temperature [C] !TimeStep,REPORTSCH
451,1,GARAGE ZONE,Zone Thermostat Cooling Setpoint Temperature [C] !TimeStep,REPORTSCH
452,1,ATTIC ZONE,Zone Air Temperature [C] !TimeStep,REPORTSCH
453,1,ATTIC ZONE,Zone Air System Sensible Heating Energy [J] !TimeStep,REPORTSCH
490,1,ATTIC ZONE,Zone Air System Sensible Cooling Energy [J] !TimeStep,REPORTSCH
515,1,ATTIC ZONE,Zone Thermostat Heating Setpoint Temperature [C] !TimeStep,REPORTSCH
516,1,ATTIC ZONE,Zone Thermostat Cooling Setpoint Temperature [C] !TimeStep,REPORTSCH
542,1,ACDXCOIL 1,Cooling Coil Total Cooling Energy [J] !TimeStep,REPORTSCH
592,1,HEAT PUMP DX HEATING COIL 1,Heating Coil Heating Energy [J] !TimeStep,REPORTSCH
632,1,SUPP HEATING COIL 1,Heating Coil Heating Energy [J] !TimeStep,REPORTSCH
686,1,TWOSPEED HEAT PUMP 1,Unitary System DX Coil Cycling Ratio [] !TimeStep,REPORTSCH
687,1,TWOSPEED HEAT PUMP 1,Unitary System DX Coil Speed Ratio [] !TimeStep,REPORTSCH
688,1,TWOSPEED HEAT PUMP 1,Unitary System DX Coil Speed Level [] !TimeStep
End of Data Dictionary
1,CHICAGO_IL_USA ANNUAL HEATING 99% DESIGN CONDITIONS DB,  41.98, -87.92,  -6.00, 201.00
2,1, 1,21, 0, 1, 0.00,10.00,WinterDesignDay
250,18.812948951643897
251,5557175.494871981
336,0.0
385,19.247761880484795
386,24.87084875805848
387,-17.63564418217801
388,0.0
425,0.0
450,0.0
451,0.0
452,-18.32437051004617
453,0.0
490,0.0
515,0.0
516,0.0
542,0.0
592,0.0
632,6008398.807422118
686,1.0
687,1.0
688,2.0
2,1, 1,21, 0, 1,10.00,20.00,WinterDesignDay
250,19.20866440513909
251,14667089.504269257
336,0.0
385,19.247761880484795
386,24.87084875805848
387,-17.63554806548256
388,0.0
425,0.0
450,0.0
451,0.0
452,-18.324072259935015
453,0.0
490,0.0
515,0.0
516,0.0
542,0.0
592,0.0
632,14521938.279344197
686,1.0
687,1.0
688,2.0
2,1, 1,21, 0, 1,20.00,30.00,WinterDesignDay
250,18.579384437204805
251,10850360.207477981
336,0.0
385,18.581095213818145
386,24.8708487580585
387,-17.63565007012644
388,0.0
425,0.0
450,0.0
451,0.0
452,-18.32403555318087
453,0.0
490,0.0
515,0.0
516,0.0
542,0.0
592,0.0
632,10594067.087051565
686,1.0000000000000007
687,1.0000000000000007
688,2.0000000000000013
2,1, 1,21, 0, 1,30.00,40.00,WinterDesignDay
250,18.547318388883703
251,11190692.453474136
336,0.0
385,18.581095213818145
386,24.8708487580585
387,-17.635768368508142
388,0.0
425,0.0
450,0.0
451,0.0
452,-18.324232459320914
453,0.0
490,0.0
515,0.0
516,0.0
542,0.0
592,0.0
632,11046200.58099319
686,1.0000000000000009
687,1.0000000000000009
688,2.0000000000000018
2,1, 1,21, 0, 1,40.00,50.00,WinterDesignDay
250,18.62967292204135
251,12314981.827929106
336,0.0
385,18.581095213818145
386,24.8708487580585
387,-17.635805735168418
388,0.0
425,0.0
450,0.0
451,0.0
452,-18.324460306402706
453,0.0
490,0.0
515,0.0
516,0.0
542,0.0
592,0.0
632,11866858.593258806
686,1.0000000000000009
687,1.0000000000000009
688,2.0000000000000018
2,1, 1,21, 0, 1,50.00,60.00,WinterDesignDay
250,18.81294895206694
251,5557175.544101583
336,0.0
385,19.247761880484795
386,24.87084875805848
387,-17.63565011220817
388,0.0
425,0.0
450,0.0
451,0.0
452,-18.32437107908705
453,0.0
490,0.0
515,0.0
516,0.0
542,0.0
592,0.0
632,6008398.856931393
686,1.0
687,1.0
688,2.0
2,1, 1,21, 0, 2, 0.00,10.00,WinterDesignDay
250,19.208664405200864
251,14667089.553159967
336,0.0
385,19.247761880484795
386,24.87084875805848
387,-17.635553924698286
388,0.0
425,0.0
450,0.0
451,0.0
452,-18.324072820698774
453,0.0
490,0.0
515,0.0
516,0.0
542,0.0
592,0.0
632,14521938.328127265
686,1.0
687,1.0
688,2.0
2,1, 1,21, 0, 2,10.00,20.00,WinterDesignDay
250,18.579384437206276
251,10850360.25428218
336,0.0
385,18.58109521381813
386,24.87084875805848
387,-17.635655867371128
388,0.0
425,0.0
450,0.0
451,0.0
452,-18.32403610463158
453,0.0
490,0.0
515,0.0
516,0.0
542,0.0
592,0.0
632,10594067.133850656
686,1.0
687,1.0
688,2.0
2,1, 1,21, 0, 2,20.00,30.00,WinterDesignDay
250,18.547318388899406
251,11190692.499292446
336,0.0
385,18.581095213818124
386,24.870848758058468
387,-17.635774097678162
388,0.0
425,0.0
450,0.0
451,0.0
452,-18.3242330035311
453,0.0
490,0.0
515,0.0
516,0.0
542,0.0
592,0.0
632,11046200.6268151
686,0.9999999999999996
687,0.9999999999999996
688,1.9999999999999991
2,1, 1,21, 0, 2,30.00,40.00,WinterDesignDay
250,18.629672922024888
251,12314981.87308261
336,0.0
385,18.581095213818138
386,24.87084875805849
387,-17.635811370935155
388,0.0
425,0.0
450,0.0
451,0.0
452,-18.324460844912814
453,0.0
490,0.0
515,0.0
516,0.0
542,0.0
592,0.0
632,11866858.638393013
686,1.0000000000000004
687,1.0000000000000004
688,2.000000000000001
2,1, 1,21, 0, 2,40.00,50.00,WinterDesignDay
250,18.812948952462833
251,5557175.590171748
336,0.0
385,19.247761880484795
386,24.87084875805848
387,-17.63565566195673
388,0.0
425,0.0
450,0.0
451,0.0
452,-18.324371611520295
453,0.0
490,0.0
515,0.0
516,0.0
542,0.0
592,0.0
632,6008398.903263281
686,1.0
687,1.0
688,2.0
2,1, 1,21, 0, 2,50.00,60.00,WinterDesignDay
250,19.208664405258677
251,14667089.598912854
336,0.0
385,19.247761880484795
386,24.87084875805848
387,-17.635559408170327
388,0.0
425,0.0
450,0.0
451,0.0
452,-18.324073345381635
453,0.0
490,0.0
515,0.0
516,0.0
542,0.0
592,0.0
632,14521938.37377942
686,1.0
687,1.0
688,2.0
2,1, 1,21, 0, 3, 0.00,10.00,WinterDesignDay
250,18.579384437207665
251,10850360.298082544
336,0.0
385,18.581095213818127
386,24.87084875805848
387,-17.63566129284554
388,0.0
425,0.0
450,0.0
451,0.0
452,-18.32403662058279
453,0.0
490,0.0
515,0.0
516,0.0
542,0.0
592,0.0
632,10594067.177646236
686,1.0
687,1.0
688,2.0
2,1, 1,21, 0, 3,10.00,20.00,WinterDesignDay
250,18.547318388914125
251,11190692.54217016
336,0.0
385,18.581095213818127
386,24.87084875805848
387,-17.635779459445313
388,0.0
425,0.0
450,0.0
451,0.0
452,-18.32423351270718
453,0.0
490,0.0
515,0.0
516,0.0
542,0.0
592,0.0
632,11046200.66969618
686,1.0
687,1.0
688,2.0
2,1, 1,21, 0, 3,20.00,30.00,WinterDesignDay
250,18.62967292200948
251,12314981.915338302
336,0.0
385,18.581095213818124
386,24.870848758058468
387,-17.635816645291165
388,0.0
425,0.0
450,0.0
451,0.0
452,-18.32446134877456
453,0.0
490,0.0
515,0.0
516,0.0
542,0.0
592,0.0
632,11866858.680630643
686,0.9999999999999996
687,0.9999999999999996
688,1.9999999999999991
2,1, 1,21, 0, 3,30.00,40.00,WinterDesignDay
250,18.812948952833313
251,5557175.6332851285
336,0.0
385,19.247761880484788
386,24.87084875805847
387,-17.635660855809775
388,0.0
425,0.0
450,0.0
451,0.0
452,-18.324372109707344
453,0.0
490,0.0
515,0.0
516,0.0
542,0.0
592,0.0
632,6008398.946621593
686,0.9999999999999997
687,0.9999999999999997
688,1.9999999999999993
2,1, 1,21, 0, 3,40.00,50.00,WinterDesignDay
250,19.208664405312774
251,14667089.641729403
336,0.0
385,19.247761880484795
386,24.87084875805848
387,-17.635564539993865
388,0.0
425,0.0
450,0.0
451,0.0
452,-18.32407383631172
453,0.0
490,0.0
515,0.0
516,0.0
542,0.0
592,0.0
632,14521938.416501703
686,1.0
687,1.0
688,2.0
2,1, 1,21, 0, 3,50.00,60.00,WinterDesignDay
250,18.579384437208944
251,10850360.339071933
336,0.0
385,18.581095213818102
386,24.87084875805845
387,-17.635666370389693
388,0.0
425,0.0
450,0.0
451,0.0
452,-18.324037103327036
453,0.0
490,0.0
515,0.0
516,0.0
542,0.0
592,0.0
632,10594067.218631148
686,0.9999999999999986
687,0.9999999999999986
688,1.9999999999999971
2,1, 1,21, 0, 4, 0.00,10.00,WinterDesignDay
250,18.547318388927895
251,11190692.582296187
336,0.0
385,18.58109521381813
386,24.87084875805848
387,-17.635784477369338
388,0.0
425,0.0
450,0.0
451,0.0
452,-18.324233989111743
453,0.0
490,0.0
515,0.0
516,0.0
542,0.0
592,0.0
632,11046200.709825365
686,1.0
687,1.0
688,2.0
2,1, 1,21, 0, 4,10.00,20.00,WinterDesignDay
250,18.629672921995073
251,12314981.954882162
336,0.0
385,18.581095213818127
386,24.87084875805848
387,-17.635821581411815
388,0.0
425,0.0
450,0.0
451,0.0
452,-18.324461820223593
453,0.0
490,0.0
515,0.0
516,0.0
542,0.0
592,0.0
632,11866858.720157605
686,1.0
687,1.0
688,2.0
2,1, 1,21, 0, 4,20.00,30.00,WinterDesignDay
250,18.812948953180033
251,5557175.673631733
336,0.0
385,19.247761880484795
386,24.87084875805848
387,-17.635665716589127
388,0.0
425,0.0
450,0.0
451,0.0
452,-18.324372575856636
453,0.0
490,0.0
515,0.0
516,0.0
542,0.0
592,0.0
632,6008398.987197414
686,1.0
687,1.0
688,2.0
2,1, 1,21, 0, 4,30.00,40.00,WinterDesignDay
250,19.208664405363404
251,14667089.68179825
336,0.0
385,19.247761880484795
386,24.87084875805848
387,-17.635569342718206
388,0.0
425,0.0
450,0.0
451,0.0
452,-18.32407429566618
453,0.0
490,0.0
515,0.0
516,0.0
542,0.0
592,0.0
632,14521938.456482332
686,1.0
687,1.0
688,2.0
2,1, 1,21, 0, 4,40.00,50.00,WinterDesignDay
250,18.57938443721016
251,10850360.377430864
336,0.0
385,18.581095213818102
386,24.87084875805845
387,-17.635671122314573
388,0.0
425,0.0
450,0.0
451,0.0
452,-18.324037555008093
453,0.0
490,0.0
515,0.0
516,0.0
542,0.0
592,0.0
632,10594067.256985892
686,0.9999999999999986
687,0.9999999999999986
688,1.9999999999999971
2,1, 1,21, 0, 4,50.00,60.00,WinterDesignDay
250,18.547318388940795
251,11190692.619847173
336,0.0
385,18.581095213818145
386,24.8708487580585
387,-17.63578917349883
388,0.0
425,0.0
450,0.0
451,0.0
452,-18.324234434860486
453,0.0
490,0.0
515,0.0
516,0.0
542,0.0
592,0.0
632,11046200.7473793
686,1.0000000000000009
687,1.0000000000000009
688,2.0000000000000018
2,1, 1,21, 0, 5, 0.00,10.00,WinterDesignDay
250,18.629672921981594
251,12314981.991888408
336,0.0
385,18.581095213818127
386,24.87084875805848
387,-17.635826200985477
388,0.0
425,0.0
450,0.0
451,0.0
452,-18.32446226135052
453,0.0
490,0.0
515,0.0
516,0.0
542,0.0
592,0.0
632,11866858.75714803
686,1.0
687,1.0
688,2.0
2,1, 1,21, 0, 5,10.00,20.00,WinterDesignDay
250,18.8129489535045
251,5557175.711389195
336,0.0
385,19.247761880484795
386,24.87084875805848
387,-17.635670265652347
388,0.0
425,0.0
450,0.0
451,0.0
452,-18.32437301203342
453,0.0
490,0.0
515,0.0
516,0.0
542,0.0
592,0.0
632,6008399.025169373
686,1.0
687,1.0
688,2.0
2,1, 1,21, 0, 5,20.00,30.00,WinterDesignDay
250,19.208664405410786
251,14667089.719295781
336,0.0
385,19.247761880484795
386,24.87084875805848
387,-17.635573837446962
388,0.0
425,0.0
450,0.0
451,0.0
452,-18.324074725481005
453,0.0
490,0.0
515,0.0
516,0.0
542,0.0
592,0.0
632,14521938.493897304
686,1.0
687,1.0
688,2.0
2,1, 1,21, 0, 5,30.00,40.00,WinterDesignDay
250,18.579384437211313
251,10850360.413328242
336,0.0
385,18.581095213818116
386,24.870848758058465
387,-17.63567556950118
388,0.0
425,0.0
450,0.0
451,0.0
452,-18.324037977630468
453,0.0
490,0.0
515,0.0
516,0.0
542,0.0
592,0.0
632,10594067.292879352
686,0.9999999999999992
687,0.9999999999999992
688,1.9999999999999984
2,1, 1,21, 0, 5,40.00,50.00,WinterDesignDay
250,18.547318388952853
251,11190692.654988494
336,0.0
385,18.581095213818145
386,24.8708487580585
387,-17.63579356846908
388,0.0
425,0.0
450,0.0
451,0.0
452,-18.324234851931696
453,0.0
490,0.0
515,0.0
516,0.0
542,0.0
592,0.0
632,11046200.782523382
686,1.0000000000000009
687,1.0000000000000009
688,2.0000000000000018
2,1, 1,21, 0, 5,50.00,60.00,WinterDesignDay
250,18.62967292196899
251,12314982.02651989
336,0.0
385,18.581095213818145
386,24.8708487580585
387,-17.635830524310546
388,0.0
425,0.0
450,0.0
451,0.0
452,-18.324462674110453
453,0.0
490,0.0
515,0.0
516,0.0
542,0.0
592,0.0
632,11866858.791764712
686,1.0000000000000009
687,1.0000000000000009
688,2.0000000000000018
2,1, 1,21, 0, 6, 0.00,10.00,WinterDesignDay
250,18.812948953808142
251,5557175.746723679
336,0.0
385,19.247761880484795
386,24.87084875805848
387,-17.635674522987667
388,0.0
425,0.0
450,0.0
451,0.0
452,-18.32437342016928
453,0.0
490,0.0
515,0.0
516,0.0
542,0.0
592,0.0
632,6008399.060704599
686,1.0
687,1.0
688,2.0
2,1, 1,21, 0, 6,10.00,20.00,WinterDesignDay
250,19.208664405455124
251,14667089.754387096
336,0.0
385,19.247761880484795
386,24.87084875805848
387,-17.63557804392977
388,0.0
425,0.0
450,0.0
451,0.0
452,-18.32407512766032
453,0.0
490,0.0
515,0.0
516,0.0
542,0.0
592,0.0
632,14521938.52891136
686,1.0
687,1.0
688,2.0
2,1, 1,21, 0, 6,20.00,30.00,WinterDesignDay
250,18.579384437212408
251,10850360.446922084
336,0.0
385,18.581095213818145
386,24.8708487580585
387,-17.63567973149012
388,0.0
425,0.0
450,0.0
451,0.0
452,-18.32403837306868
453,0.0
490,0.0
515,0.0
516,0.0
542,0.0
592,0.0
632,10594067.326469526
686,1.0000000000000007
687,1.0000000000000007
688,2.0000000000000013
2,1, 1,21, 0, 6,30.00,40.00,WinterDesignDay
250,18.547318388964136
251,11190692.687874738
336,0.0
385,18.581095213818145
386,24.8708487580585
387,-17.635797681592052
388,0.0
425,0.0
450,0.0
451,0.0
452,-18.324235242175384
453,0.0
490,0.0
515,0.0
516,0.0
542,0.0
592,0.0
632,11046200.815412208
686,1.0000000000000009
687,1.0000000000000009
688,2.0000000000000018
2,1, 1,21, 0, 6,40.00,50.00,WinterDesignDay
250,18.62967292195718
251,12314982.058929149
336,0.0
385,18.581095213818145
386,24.8708487580585
387,-17.635834570384624
388,0.0
425,0.0
450,0.0
451,0.0
452,-18.32446306033186
453,0.0
490,0.0
515,0.0
516,0.0
542,0.0
592,0.0
632,11866858.824160127
686,1.0000000000000009
687,1.0000000000000009
688,2.0000000000000018
2,1, 1,21, 0, 6,50.00,60.00,WinterDesignDay
250,18.812948954092303
251,5557175.779790924
336,0.0
385,19.247761880484795
386,24.87084875805848
387,-17.635678507303513
388,0.0
425,0.0
450,0.0
451,0.0
452,-18.324373802070788
453,0.0
490,0.0
515,0.0
516,0.0
542,0.0
592,0.0
632,6008399.093959699
686,1.0
687,1.0
688,2.0
2,1, 1,21, 0, 7, 0.00,10.00,WinterDesignDay
250,19.208664405496616
251,14667089.787226694
336,0.0
385,19.247761880484795
386,24.87084875805848
387,-17.635581980652297
388,0.0
425,0.0
450,0.0
451,0.0
452,-18.32407550398499
453,0.0
490,0.0
515,0.0
516,0.0
542,0.0
592,0.0
632,14521938.56167866
686,1.0
687,1.0
688,2.0
2,1, 1,21, 0, 7,10.00,20.00,WinterDesignDay
250,18.57938443721339
251,10850360.478360362
336,0.0
385,18.58109521381813
386,24.87084875805848
387,-17.63568362673844
388,0.0
425,0.0
450,0.0
451,0.0
452,-18.324038740983735
453,0.0
490,0.0
515,0.0
516,0.0
542,0.0
592,0.0
632,10594067.35790437
686,1.0
687,1.0
688,2.0
2,1, 1,21, 0, 7,20.00,30.00,WinterDesignDay
250,18.547318388974677
251,11190692.718650855
336,0.0
385,18.581095213818124
386,24.870848758058468
387,-17.635801531274947
388,0.0
425,0.0
450,0.0
451,0.0
452,-18.324235606022206
453,0.0
490,0.0
515,0.0
516,0.0
542,0.0
592,0.0
632,11046200.846190747
686,0.9999999999999996
687,0.9999999999999996
688,1.9999999999999991
2,1, 1,21, 0, 7,30.00,40.00,WinterDesignDay
250,18.629672921946124
251,12314982.0892587
336,0.0
385,18.581095213818138
386,24.87084875805849
387,-17.63583835742742
388,0.0
425,0.0
450,0.0
451,0.0
452,-18.324463421381527
453,0.0
490,0.0
515,0.0
516,0.0
542,0.0
592,0.0
632,11866858.854476713
686,1.0000000000000004
687,1.0000000000000004
688,2.000000000000001
2,1, 1,21, 0, 7,40.00,50.00,WinterDesignDay
250,18.812948954358227
251,5557175.810735573
336,0.0
385,19.247761880484795
386,24.87084875805848
387,-17.635682236519735
388,0.0
425,0.0
450,0.0
451,0.0
452,-18.32437415944053
453,0.0
490,0.0
515,0.0
516,0.0
542,0.0
592,0.0
632,6008399.125080157
686,1.0
687,1.0
688,2.0
2,1, 1,21, 0, 7,50.00,60.00,WinterDesignDay
250,19.20866440553545
251,14667089.817957327
336,0.0
385,19.247761880484795
386,24.87084875805848
387,-17.635585665245614
388,0.0
425,0.0
450,0.0
451,0.0
452,-18.324075856142024
453,0.0
490,0.0
515,0.0
516,0.0
542,0.0
592,0.0
632,14521938.592341634
686,1.0
687,1.0
688,2.0
2,1, 1,21, 0, 8, 0.00,10.00,WinterDesignDay
250,18.579384437214323
251,10850360.507778998
336,0.0
385,18.581095213818127
386,24.87084875805848
387,-17.635687272527434
388,0.0
425,0.0
450,0.0
451,0.0
452,-18.324039084225653
453,0.0
490,0.0
515,0.0
516,0.0
542,0.0
592,0.0
632,10594067.387319798
686,1.0
687,1.0
688,2.0
2,1, 1,21, 0, 8,10.00,20.00,WinterDesignDay
250,18.547318388984564
251,11190692.747449892
336,0.0
385,18.581095213818127
386,24.87084875805848
387,-17.635805134443338
388,0.0
425,0.0
450,0.0
451,0.0
452,-18.324235945834598
453,0.0
490,0.0
515,0.0
516,0.0
542,0.0
592,0.0
632,11046200.87499205
686,1.0
687,1.0
688,2.0
2,1, 1,21, 0, 8,20.00,30.00,WinterDesignDay
250,18.629672921935768
251,12314982.117640032
336,0.0
385,18.581095213818124
386,24.870848758058468
387,-17.63584190196323
388,0.0
425,0.0
450,0.0
451,0.0
452,-18.3244637590508
453,0.0
490,0.0
515,0.0
516,0.0
542,0.0
592,0.0
632,11866858.882845912
686,0.9999999999999996
687,0.9999999999999996
688,1.9999999999999991
2,1, 1,21, 0, 8,30.00,40.00,WinterDesignDay
250,18.81294895460706
251,5557175.839692396
336,0.0
385,19.247761880484788
386,24.87084875805847
387,-17.6356857268825
388,0.0
425,0.0
450,0.0
451,0.0
452,-18.324374493849383
453,0.0
490,0.0
515,0.0
516,0.0
542,0.0
592,0.0
632,6008399.154201486
686,0.9999999999999997
687,0.9999999999999997
688,1.9999999999999993
2,1, 1,21, 0, 8,40.00,50.00,WinterDesignDay
250,19.208664405571785
251,14667089.846713789
336,0.0
385,19.247761880484795
386,24.87084875805848
387,-17.635589113787795
388,0.0
425,0.0
450,0.0
451,0.0
452,-18.32407618567794
453,0.0
490,0.0
515,0.0
516,0.0
542,0.0
592,0.0
632,14521938.621034779
686,1.0
687,1.0
688,2.0
2,1, 1,21, 0, 8,50.00,60.00,WinterDesignDay
250,18.579384437215168
251,10850360.535307815
336,0.0
385,18.581095213818102
386,24.87084875805845
387,-17.63569068470721
388,0.0
425,0.0
450,0.0
451,0.0
452,-18.324039405425644
453,0.0
490,0.0
515,0.0
516,0.0
542,0.0
592,0.0
632,10594067.414845612
686,0.9999999999999986
687,0.9999999999999986
688,1.9999999999999971
2,1, 1,21, 0, 9, 0.00,10.00,WinterDesignDay
250,18.547318388993812
251,11190692.774399115
336,0.0
385,18.58109521381813
386,24.87084875805848
387,-17.6358085066969
388,0.0
425,0.0
450,0.0
451,0.0
452,-18.324236263813912
453,0.0
490,0.0
515,0.0
516,0.0
542,0.0
592,0.0
632,11046200.901943386
686,1.0
687,1.0
688,2.0
2,1, 1,21, 0, 9,10.00,20.00,WinterDesignDay
250,18.629672921926094
251,12314982.144198595
336,0.0
385,18.581095213818127
386,24.87084875805848
387,-17.635845219303196
388,0.0
425,0.0
450,0.0
451,0.0
452,-18.324464075023588
453,0.0
490,0.0
515,0.0
516,0.0
542,0.0
592,0.0
632,11866858.909393124
686,1.0
687,1.0
688,2.0
2,1, 1,21, 0, 9,20.00,30.00,WinterDesignDay
250,18.812948954839932
251,5557175.866789859
336,0.0
385,19.247761880484795
386,24.87084875805848
387,-17.635688993496544
388,0.0
425,0.0
450,0.0
451,0.0
452,-18.324374806774625
453,0.0
490,0.0
515,0.0
516,0.0
542,0.0
592,0.0
632,6008399.1814528955
686,1.0
687,1.0
688,2.0
2,1, 1,21, 0, 9,30.00,40.00,WinterDesignDay
250,19.208664405605788
251,14667089.873624083
336,0.0
385,19.247761880484795
386,24.87084875805848
387,-17.635592341249666
388,0.0
425,0.0
450,0.0
451,0.0
452,-18.324076494042465
453,0.0
490,0.0
515,0.0
516,0.0
542,0.0
592,0.0
632,14521938.647885822
686,1.0
687,1.0
688,2.0
2,1, 1,21, 0, 9,40.00,50.00,WinterDesignDay
250,18.57938443721599
251,10850360.561069578
336,0.0
385,18.581095213818102
386,24.87084875805845
387,-17.635693878129253
388,0.0
425,0.0
450,0.0
451,0.0
452,-18.324039706005387
453,0.0
490,0.0
515,0.0
516,0.0
542,0.0
592,0.0
632,10594067.440604558
686,0.9999999999999986
687,0.9999999999999986
688,1.9999999999999971
2,1, 1,21, 0, 9,50.00,60.00,WinterDesignDay
250,18.54731838900248
251,11190692.799618602
336,0.0
385,18.581095213818145
386,24.8708487580585
387,-17.6358116627452
388,0.0
425,0.0
450,0.0
451,0.0
452,-18.324236561371677
453,0.0
490,0.0
515,0.0
516,0.0
542,0.0
592,0.0
632,11046200.927164858
686,1.0000000000000009
687,1.0000000000000009
688,2.0000000000000018
2,1, 1,21, 0,10, 0.00,10.00,WinterDesignDay
250,18.62967292191704
251,12314982.169052688
336,0.0
385,18.581095213818127
386,24.87084875805848
387,-17.635848323951112
388,0.0
425,0.0
450,0.0
451,0.0
452,-18.324464370701122
453,0.0
490,0.0
515,0.0
516,0.0
542,0.0
592,0.0
632,11866858.934236594
686,1.0
687,1.0
688,2.0
2,1, 1,21, 0,10,10.00,20.00,WinterDesignDay
250,18.81294895505785
251,5557175.892148333
336,0.0
385,19.247761880484795
386,24.87084875805848
387,-17.635692050665856
388,0.0
425,0.0
450,0.0
451,0.0
452,-18.324375099600772
453,0.0
490,0.0
515,0.0
516,0.0
542,0.0
592,0.0
632,6008399.206955431
686,1.0
687,1.0
688,2.0
2,1, 1,21, 0,10,20.00,30.00,WinterDesignDay
250,19.208664405637613
251,14667089.898807542
336,0.0
385,19.247761880484795
386,24.87084875805848
387,-17.635595361774225
388,0.0
425,0.0
450,0.0
451,0.0
452,-18.324076782598652
453,0.0
490,0.0
515,0.0
516,0.0
542,0.0
592,0.0
632,14521938.67301383
686,1.0
687,1.0
688,2.0
2,1, 1,21, 0,10,30.00,40.00,WinterDesignDay
250,18.57938443721677
251,10850360.585178282
336,0.0
385,18.581095213818116
386,24.870848758058465
387,-17.63569686679342
388,0.0
425,0.0
450,0.0
451,0.0
452,-18.324039987289872
453,0.0
490,0.0
515,0.0
516,0.0
542,0.0
592,0.0
632,10594067.46471063
686,0.9999999999999992
687,0.9999999999999992
688,1.9999999999999984
2,1, 1,21, 0,10,40.00,50.00,WinterDesignDay
250,18.54731838901058
251,11190692.823219964
336,0.0
385,18.581095213818145
386,24.8708487580585
387,-17.63581461642952
388,0.0
425,0.0
450,0.0
451,0.0
452,-18.324236839820564
453,0.0
490,0.0
515,0.0
516,0.0
542,0.0
592,0.0
632,11046200.950768074
686,1.0000000000000009
687,1.0000000000000009
688,2.0000000000000018
2,1, 1,21, 0,10,50.00,60.00,WinterDesignDay
250,18.629672921908583
251,12314982.192312147
336,0.0
385,18.581095213818145
386,24.8708487580585
387,-17.635851229529223
388,0.0
425,0.0
450,0.0
451,0.0
452,-18.324464647387945
453,0.0
490,0.0
515,0.0
516,0.0
542,0.0
592,0.0
632,11866858.957486115
686,1.0000000000000009
687,1.0000000000000009
688,2.0000000000000018
2,1, 1,21, 0,11, 0.00,10.00,WinterDesignDay
250,18.81294895526179
251,5557175.9158799285
336,0.0
385,19.247761880484795
386,24.87084875805848
387,-17.635694911808653
388,0.0
425,0.0
450,0.0
451,0.0
452,-18.324375373619574
453,0.0
490,0.0
515,0.0
516,0.0
542,0.0
592,0.0
632,6008399.230821848
686,1.0
687,1.0
688,2.0
2,1, 1,21, 0,11,10.00,20.00,WinterDesignDay
250,19.208664405667392
251,14667089.922375452
336,0.0
385,19.247761880484795
386,24.87084875805848
387,-17.635598188621245
388,0.0
425,0.0
450,0.0
451,0.0
452,-18.32407705261982
453,0.0
490,0.0
515,0.0
516,0.0
542,0.0
592,0.0
632,14521938.696529852
686,1.0
687,1.0
688,2.0
2,1, 1,21, 0,11,20.00,30.00,WinterDesignDay
250,18.579384437217513
251,10850360.60774036
336,0.0
385,18.581095213818145
386,24.8708487580585
387,-17.635699663821555
388,0.0
425,0.0
450,0.0
451,0.0
452,-18.32404025051794
453,0.0
490,0.0
515,0.0
516,0.0
542,0.0
592,0.0
632,10594067.487270245
686,1.0000000000000007
687,1.0000000000000007
688,2.0000000000000013
2,1, 1,21, 0,11,30.00,40.00,WinterDesignDay
250,18.54731838901816
251,11190692.845307149
336,0.0
385,18.581095213818145
386,24.8708487580585
387,-17.635817380720148
388,0.0
425,0.0
450,0.0
451,0.0
452,-18.324237100388476
453,0.0
490,0.0
515,0.0
516,0.0
542,0.0
592,0.0
632,11046200.972856995
686,1.0000000000000009
687,1.0000000000000009
688,2.0000000000000018
2,1, 1,21, 0,11,40.00,50.00,WinterDesignDay
250,18.62967292190065
251,12314982.214079432
336,0.0
385,18.581095213818145
386,24.8708487580585
387,-17.63585394879803
388,0.0
425,0.0
450,0.0
451,0.0
452,-18.32446490630476
453,0.0
490,0.0
515,0.0
516,0.0
542,0.0
592,0.0
632,11866858.979244092
686,1.0000000000000009
687,1.0000000000000009
688,2.0000000000000018
2,1, 1,21, 0,11,50.00,60.00,WinterDesignDay
250,18.812948955452637
251,5557175.938088991
336,0.0
385,19.247761880484795
386,24.87084875805848
387,-17.635697589491617
388,0.0
425,0.0
450,0.0
451,0.0
452,-18.32437563004007
453,0.0
490,0.0
515,0.0
516,0.0
542,0.0
592,0.0
632,6008399.253157077
686,1.0
687,1.0
688,2.0
2,1, 1,21, 0,12, 0.00,10.00,WinterDesignDay
250,19.20866440569526
251,14667089.944431279
336,0.0
385,19.247761880484795
386,24.87084875805848
387,-17.635600834207388
388,0.0
425,0.0
450,0.0
451,0.0
452,-18.32407730529785
453,0.0
490,0.0
515,0.0
516,0.0
542,0.0
592,0.0
632,14521938.718537116
686,1.0
687,1.0
688,2.0
2,1, 1,21, 0,12,10.00,20.00,WinterDesignDay
250,18.579384437218167
251,10850360.628854902
336,0.0
385,18.58109521381813
386,24.87084875805848
387,-17.635702281499604
388,0.0
425,0.0
450,0.0
451,0.0
452,-18.32404049684932
453,0.0
490,0.0
515,0.0
516,0.0
542,0.0
592,0.0
632,10594067.50838248
686,1.0
687,1.0
688,2.0
2,1, 1,21, 0,12,20.00,30.00,WinterDesignDay
250,18.547318389025232
251,11190692.865977356
336,0.0
385,18.581095213818124
386,24.870848758058468
387,-17.63581996775915
388,0.0
425,0.0
450,0.0
451,0.0
452,-18.32423734422474
453,0.0
490,0.0
515,0.0
516,0.0
542,0.0
592,0.0
632,11046200.993528824
686,0.9999999999999996
687,0.9999999999999996
688,1.9999999999999991
2,1, 1,21, 0,12,30.00,40.00,WinterDesignDay
250,18.629672921893224
251,12314982.234450221
336,0.0
385,18.581095213818138
386,24.87084875805849
387,-17.63585649370207
388,0.0
425,0.0
450,0.0
451,0.0
452,-18.324465148594157
453,0.0
490,0.0
515,0.0
516,0.0
542,0.0
592,0.0
632,11866858.999606177
686,1.0000000000000004
687,1.0000000000000004
688,2.000000000000001
2,1, 1,21, 0,12,40.00,50.00,WinterDesignDay
250,18.81294895563125
251,5557175.958873337
336,0.0
385,19.247761880484795
386,24.87084875805848
387,-17.6357000954766
388,0.0
425,0.0
450,0.0
451,0.0
452,-18.324375869993826
453,0.0
490,0.0
515,0.0
516,0.0
542,0.0
592,0.0
632,6008399.274059508
686,1.0
687,1.0
688,2.0
2,1, 1,21, 0,12,50.00,60.00,WinterDesignDay
250,19.20866440572134
251,14667089.96507217
336,0.0
385,19.247761880484795
386,24.87084875805848
387,-17.635603310154018
388,0.0
425,0.0
450,0.0
451,0.0
452,-18.3240775417481
453,0.0
490,0.0
515,0.0
516,0.0
542,0.0
592,0.0
632,14521938.739132565
686,1.0
687,1.0
688,2.0
2,1, 1,21, 0,13, 0.00,10.00,WinterDesignDay
250,18.579384437218792
251,10850360.648614984
336,0.0
385,18.581095213818127
386,24.87084875805848
387,-17.635704731326847
388,0.0
425,0.0
450,0.0
451,0.0
452,-18.32404072736949
453,0.0
490,0.0
515,0.0
516,0.0
542,0.0
592,0.0
632,10594067.528140405
686,1.0
687,1.0
688,2.0
2,1, 1,21, 0,13,10.00,20.00,WinterDesignDay
250,18.547318389031876
251,11190692.88532162
336,0.0
385,18.581095213818127
386,24.87084875805848
387,-17.635822388911276
388,0.0
425,0.0
450,0.0
451,0.0
452,-18.324237572404968
453,0.0
490,0.0
515,0.0
516,0.0
542,0.0
592,0.0
632,11046201.01287461
686,1.0
687,1.0
688,2.0
2,1, 1,21, 0,13,20.00,30.00,WinterDesignDay
250,18.62967292188626
251,12314982.253514295
336,0.0
385,18.581095213818124
386,24.870848758058468
387,-17.635858875420826
388,0.0
425,0.0
450,0.0
451,0.0
452,-18.32446537532526
453,0.0
490,0.0
515,0.0
516,0.0
542,0.0
592,0.0
632,11866859.018662106
686,0.9999999999999996
687,0.9999999999999996
688,1.9999999999999991
2,1, 1,21, 0,13,30.00,40.00,WinterDesignDay
250,18.812948955798394
251,5557175.97832426
336,0.0
385,19.247761880484788
386,24.87084875805847
387,-17.635702440772352
388,0.0
425,0.0
450,0.0
451,0.0
452,-18.324376094539613
453,0.0
490,0.0
515,0.0
516,0.0
542,0.0
592,0.0
632,6008399.293620933
686,0.9999999999999997
687,0.9999999999999997
688,1.9999999999999993
2,1, 1,21, 0,13,40.00,50.00,WinterDesignDay
250,19.20866440574575
251,14667089.984388996
336,0.0
385,19.247761880484795
386,24.87084875805848
387,-17.63560562733757
388,0.0
425,0.0
450,0.0
451,0.0
452,-18.324077763014145
453,0.0
490,0.0
515,0.0
516,0.0
542,0.0
592,0.0
632,14521938.75840686
686,1.0
687,1.0
688,2.0
2,1, 1,21, 0,13,50.00,60.00,WinterDesignDay
250,18.579384437219353
251,10850360.667107454
336,0.0
385,18.581095213818102
386,24.87084875805845
387,-17.635707024065173
388,0.0
425,0.0
450,0.0
451,0.0
452,-18.324040943094104
453,0.0
490,0.0
515,0.0
516,0.0
542,0.0
592,0.0
632,10594067.546630856
686,0.9999999999999986
687,0.9999999999999986
688,1.9999999999999971
2,1, 1,21, 0,14, 0.00,10.00,WinterDesignDay
250,18.547318389038082
251,11190692.903424907
336,0.0
385,18.58109521381813
386,24.87084875805848
387,-17.635824654813355
388,0.0
425,0.0
450,0.0
451,0.0
452,-18.32423778593546
453,0.0
490,0.0
515,0.0
516,0.0
542,0.0
592,0.0
632,11046201.030979317
686,1.0
687,1.0
688,2.0
2,1, 1,21, 0,14,10.00,20.00,WinterDesignDay
250,18.629672921879767
251,12314982.271355316
336,0.0
385,18.581095213818127
386,24.87084875805848
387,-17.635861104418893
388,0.0
425,0.0
450,0.0
451,0.0
452,-18.32446558749836
453,0.0
490,0.0
515,0.0
516,0.0
542,0.0
592,0.0
632,11866859.0364955
686,1.0
687,1.0
688,2.0
2,1, 1,21, 0,14,20.00,30.00,WinterDesignDay
250,18.812948955954834
251,5557175.996527545
336,0.0
385,19.247761880484795
386,24.87084875805848
387,-17.63570463568343
388,0.0
425,0.0
450,0.0
451,0.0
452,-18.324376304668014
453,0.0
490,0.0
515,0.0
516,0.0
542,0.0
592,0.0
632,6008399.311927636
686,1.0
687,1.0
688,2.0
2,1, 1,21, 0,14,30.00,40.00,WinterDesignDay
250,19.208664405768594
251,14667090.002466697
336,0.0
385,19.247761880484795
386,24.87084875805848
387,-17.63560779593914
388,0.0
425,0.0
450,0.0
451,0.0
452,-18.324077970072338
453,0.0
490,0.0
515,0.0
516,0.0
542,0.0
592,0.0
632,14521938.77644476
686,1.0
687,1.0
688,2.0
2,1, 1,21, 0,14,40.00,50.00,WinterDesignDay
250,18.579384437219904
251,10850360.684413698
336,0.0
385,18.581095213818102