Program Version,EnergyPlus, Version 24.2.0-94a887817b, YMD=2025.01.30 20:37
1,5,Environment Title[],Latitude[deg],Longitude[deg],Time Zone[],Elevation[m]
2,8,Day of Simulation[],Month[],Day of Month[],DST Indicator[1=yes 0=no],Hour[],StartMinute[],EndMinute[],DayType
3,5,Cumulative Day of Simulation[],Month[],Day of Month[],DST Indicator[1=yes 0=no],DayType  ! When Daily Meters Requested
4,2,Cumulative Days of Simulation[],Month[]  ! When Monthly Meters Requested
5,1,Cumulative Days of Simulation[] ! When Run Period Meters Requested
6,1,Calendar Year of Simulation[] ! When Annual Meters Requested
11,9,Electricity:Facility [J] !Monthly [Value,Min,Day,Hour,Minute,Max,Day,Hour,Minute]
23,9,Electricity:Building [J] !Monthly [Value,Min,Day,Hour,Minute,Max,Day,Hour,Minute]
59,9,InteriorLights:Electricity [J] !Monthly [Value,Min,Day,Hour,Minute,Max,Day,Hour,Minute]
521,9,Electricity:HVAC [J] !Monthly [Value,Min,Day,Hour,Minute,Max,Day,Hour,Minute]
637,9,NaturalGas:Facility [J] !Monthly [Value,Min,Day,Hour,Minute,Max,Day,Hour,Minute]
649,9,NaturalGas:HVAC [J] !Monthly [Value,Min,Day,Hour,Minute,Max,Day,Hour,Minute]
13,11,Electricity:Facility [J] !RunPeriod [Value,Min,Month,Day,Hour,Minute,Max,Month,Day,Hour,Minute]
25,11,Electricity:Building [J] !RunPeriod [Value,Min,Month,Day,Hour,Minute,Max,Month,Day,Hour,Minute]
61,11,InteriorLights:Electricity [J] !RunPeriod [Value,Min,Month,Day,Hour,Minute,Max,Month,Day,Hour,Minute]
523,11,Electricity:HVAC [J] !RunPeriod [Value,Min,Month,Day,Hour,Minute,Max,Month,Day,Hour,Minute]
639,11,NaturalGas:Facility [J] !RunPeriod [Value,Min,Month,Day,Hour,Minute,Max,Month,Day,Hour,Minute]
651,11,NaturalGas:HVAC [J] !RunPeriod [Value,Min,Month,Day,Hour,Minute,Max,Month,Day,Hour,Minute]
End of Data Dictionary
1,RUN PERIOD 1,  41.98, -87.92,  -6.00, 201.00
4,31, 1
11,8650515895.26299,406533.21794521506,17,19,50,3472297.731229902, 9,12,20
23,1927942079.629081,123948.45158563662,17,19,20,1046737.4856231277, 7, 9,20
59,970200000.0,30000.0, 1, 1,10,600000.0, 1, 8,10
521,6722573815.633979,0.0,16,16,40,2498498.495199141,12, 7,10
637,26015390063.018642,0.0, 1,13,60,24385219.603923354,27, 8,20
649,26015390063.018642,0.0, 1,13,60,24385219.603923354,27, 8,20
4,59, 2
11,7642875646.761867,112564.85351213664,23,14,60,3507327.7192270122,25, 9,10
23,1681230570.6333804,110938.9216373715,23,15,10,-99999999999999.0, 7, 9,20
59,848160000.0,99999999999999.0, 1, 1,10,-99999999999999.0, 1, 8,10
521,5961645076.128473,99999999999999.0,16,16,40,-99999999999999.0,12, 7,10
637,17205185427.353584,99999999999999.0, 1,13,60,-99999999999999.0,27, 8,20
649,17205185427.353584,99999999999999.0, 1,13,60,-99999999999999.0,27, 8,20
4,90, 3
11,6533466954.423807,95906.01921572248,27,19,60,-99999999999999.0,25, 9,10
23,1735973122.9213312,95906.01921572248,27,19,60,-99999999999999.0, 7, 9,20
59,897480000.0,99999999999999.0, 1, 1,10,-99999999999999.0, 1, 8,10
521,4797493831.502483,99999999999999.0,16,16,40,-99999999999999.0,12, 7,10
637,8073389376.257345,99999999999999.0, 1,13,60,-99999999999999.0,27, 8,20
649,8073389376.257345,99999999999999.0, 1,13,60,-99999999999999.0,27, 8,20
4,120, 4
11,4672197685.526875,30000.0,15,23,30,-99999999999999.0,25, 9,10
23,1678460252.9677315,30000.0,14,15,10,-99999999999999.0, 7, 9,20
59,929520000.0,99999999999999.0, 1, 1,10,-99999999999999.0, 1, 8,10
521,2993737432.5591636,99999999999999.0,16,16,40,-99999999999999.0,12, 7,10
637,4673311166.265293,99999999999999.0, 1,13,60,-99999999999999.0,27, 8,20
649,4673311166.265293,99999999999999.0, 1,13,60,-99999999999999.0,27, 8,20
4,151, 5
11,3046225185.83202,99999999999999.0,15,23,30,-99999999999999.0,25, 9,10
23,1672208174.3719504,99999999999999.0,14,15,10,-99999999999999.0, 7, 9,20
59,970200000.0,99999999999999.0, 1, 1,10,-99999999999999.0, 1, 8,10
521,1374017011.460043,99999999999999.0,16,16,40,-99999999999999.0,12, 7,10
637,711878976.8120931,99999999999999.0, 1,13,60,-99999999999999.0,27, 8,20
649,711878976.8120931,99999999999999.0, 1,13,60,-99999999999999.0,27, 8,20
4,181, 6
11,3021470626.5774856,99999999999999.0,15,23,30,-99999999999999.0,25, 9,10
23,1408658022.7500253,99999999999999.0,14,15,10,-99999999999999.0, 7, 9,20
59,856800000.0,99999999999999.0, 1, 1,10,-99999999999999.0, 1, 8,10
521,1612812603.8274577,99999999999999.0,16,16,40,-99999999999999.0,12, 7,10
637,52882879.96254802,99999999999999.0, 1,13,60,-99999999999999.0,27, 8,20
649,52882879.96254802,99999999999999.0, 1,13,60,-99999999999999.0,27, 8,20
4,212, 7
11,3908665966.816872,99999999999999.0,15,23,30,-99999999999999.0,25, 9,10
23,1502458989.3079827,99999999999999.0,14,15,10,-99999999999999.0, 7, 9,20
59,970200000.0,99999999999999.0, 1, 1,10,-99999999999999.0, 1, 8,10
521,2406206977.5088806,99999999999999.0,16,16,40,-99999999999999.0,12, 7,10
637,1846638.3666272599,99999999999999.0, 1,13,60,-99999999999999.0,27, 8,20
649,1846638.3666272599,99999999999999.0, 1,13,60,-99999999999999.0,27, 8,20
4,243, 8
11,3163603988.1893783,99999999999999.0,15,23,30,-99999999999999.0,25, 9,10
23,1513620537.430677,99999999999999.0,14,15,10,-99999999999999.0, 7, 9,20
59,933840000.0,99999999999999.0, 1, 1,10,-99999999999999.0, 1, 8,10
521,1649983450.7586858,99999999999999.0,16,16,40,-99999999999999.0,12, 7,10
637,11354017.062023686,99999999999999.0, 1,13,60,-99999999999999.0,27, 8,20
649,11354017.062023686,99999999999999.0, 1,13,60,-99999999999999.0,27, 8,20
4,273, 9
11,2666985663.657401,99999999999999.0,15,23,30,-99999999999999.0,25, 9,10
23,1516265508.8057525,99999999999999.0,14,15,10,-99999999999999.0, 7, 9,20
59,893160000.0,99999999999999.0, 1, 1,10,-99999999999999.0, 1, 8,10
521,1150720154.8516388,99999999999999.0,16,16,40,-99999999999999.0,12, 7,10
637,149862134.0997915,99999999999999.0, 1,13,60,-99999999999999.0,27, 8,20
649,149862134.0997915,99999999999999.0, 1,13,60,-99999999999999.0,27, 8,20
4,304,10
11,3542688897.8026323,99999999999999.0,15,23,30,-99999999999999.0,25, 9,10
23,1752365693.778196,99999999999999.0,14,15,10,-99999999999999.0, 7, 9,20
59,970200000.0,99999999999999.0, 1, 1,10,-99999999999999.0, 1, 8,10
521,1790323204.0244231,99999999999999.0,16,16,40,-99999999999999.0,12, 7,10
637,2739823237.1189694,99999999999999.0, 1,13,60,-99999999999999.0,27, 8,20
649,2739823237.1189694,99999999999999.0, 1,13,60,-99999999999999.0,27, 8,20
4,334,11
11,6095769130.492923,99999999999999.0,15,23,30,-99999999999999.0,25, 9,10
23,1702556999.2905502,99999999999999.0,14,15,10,-99999999999999.0, 7, 9,20
59,893160000.0,99999999999999.0, 1, 1,10,-99999999999999.0, 1, 8,10
521,4393212131.202343,99999999999999.0,16,16,40,-99999999999999.0,12, 7,10
637,9368860310.385824,99999999999999.0, 1,13,60,-99999999999999.0,27, 8,20
649,9368860310.385824,99999999999999.0, 1,13,60,-99999999999999.0,27, 8,20
4,365,12
11,9191206306.729881,99999999999999.0,15,23,30,-99999999999999.0,25, 9,10
23,1853479839.895368,99999999999999.0,14,15,10,-99999999999999.0, 7, 9,20
59,933840000.0,99999999999999.0, 1, 1,10,-99999999999999.0, 1, 8,10
521,7337726466.834496,99999999999999.0,16,16,40,2507121.9368508337,31, 5,50
637,21310724941.382267,99999999999999.0, 1,13,60,-99999999999999.0,27, 8,20
649,21310724941.382267,99999999999999.0, 1,13,60,-99999999999999.0,27, 8,20
5,365
13,62135671948.07426,30000.0, 4,15,23,30,3507327.7192270122, 2,25, 9,10
25,19945219791.78359,30000.0, 4,14,15,10,1046737.4856231277, 1, 7, 9,20
61,11066760000.0,30000.0, 1, 1, 1,10,600000.0, 1, 1, 8,10
523,42190452156.29233,0.0, 1,16,16,40,2507121.9368508337,12,31, 5,50
639,90314509168.08475,0.0, 1, 1,13,60,24385219.603923354, 1,27, 8,20
651,90314509168.08475,0.0, 1, 1,13,60,24385219.603923354, 1,27, 8,20
1,RUN PERIOD 2,  41.98, -87.92,  -6.00, 201.00
4,1, 7
11,120739427.56254557,99999999999999.0,15,23,30,-99999999999999.0,25, 9,10
23,63529746.82565594,99999999999999.0,14,15,10,-99999999999999.0, 7, 9,20
59,40680000.0,99999999999999.0, 1, 1,10,-99999999999999.0, 1, 8,10
521,57209680.73688961,99999999999999.0,16,16,40,-99999999999999.0,31, 5,50
637,0.0,99999999999999.0, 1,13,60,-99999999999999.0,27, 8,20
649,0.0,99999999999999.0, 1,13,60,-99999999999999.0,27, 8,20
5,1
13,120739427.56254557,99999999999999.0, 4,15,23,30,-99999999999999.0, 2,25, 9,10
25,63529746.82565594,99999999999999.0, 4,14,15,10,-99999999999999.0, 1, 7, 9,20
61,40680000.0,99999999999999.0, 1, 1, 1,10,-99999999999999.0, 1, 1, 8,10
523,57209680.73688961,99999999999999.0, 1,16,16,40,-99999999999999.0,12,31, 5,50
639,0.0,99999999999999.0, 1, 1,13,60,-99999999999999.0, 1,27, 8,20
651,0.0,99999999999999.0, 1, 1,13,60,-99999999999999.0, 1,27, 8,20
End of Data
 Number of Records Written=          90
