Program Version,EnergyPlus, Version 24.2.0-94a887817b, YMD=2025.02.04 15:40
1,5,Environment Title[],Latitude[deg],Longitude[deg],Time Zone[],Elevation[m]
2,8,Day of Simulation[],Month[],Day of Month[],DST Indicator[1=yes 0=no],Hour[],StartMinute[],EndMinute[],DayType
3,5,Cumulative Day of Simulation[],Month[],Day of Month[],DST Indicator[1=yes 0=no],DayType  ! When Daily Report Variables Requested
4,2,Cumulative Days of Simulation[],Month[]  ! When Monthly Report Variables Requested
5,1,Cumulative Days of Simulation[] ! When Run Period Report Variables Requested
6,1,Calendar Year of Simulation[] ! When Annual Report Variables Requested
250,1,LIVING ZONE,Zone Air Temperature [C] !TimeStep,REPORTSCH
251,1,LIVING ZONE,Zone Air System Sensible Heating Energy [J] !TimeStep,REPORTSCH
336,1,LIVING ZONE,Zone Air System Sensible Cooling Energy [J] !TimeStep,REPORTSCH
385,1,LIVING ZONE,Zone Thermostat Heating Setpoint Temperature [C] !TimeStep,REPORTSCH
386,1,LIVING ZONE,Zone Thermostat Cooling Setpoint Temperature [C] !TimeStep,REPORTSCH
387,1,GARAGE ZONE,Zone Air Temperature [C] !TimeStep,REPORTSCH
388,1,GARAGE ZONE,Zone Air System Sensible Heating Energy [J] !TimeStep,REPORTSCH
425,1,GARAGE ZONE,Zone Air System Sensible Cooling Energy [J] !TimeStep,REPORTSCH
450,1,GARAGE ZONE,Zone Thermostat Heating Setpoint Temperature [C] !TimeStep,REPORTSCH
451,1,GARAGE ZONE,Zone Thermostat Cooling Setpoint Temperature [C] !TimeStep,REPORTSCH
452,1,ATTIC ZONE,Zone Air Temperature [C] !TimeStep,REPORTSCH
453,1,ATTIC ZONE,Zone Air System Sensible Heating Energy [J] !TimeStep,REPORTSCH
490,1,ATTIC ZONE,Zone Air System Sensible Cooling Energy [J] !TimeStep,REPORTSCH
515,1,ATTIC ZONE,Zone Thermostat Heating Setpoint Temperature [C] !TimeStep,REPORTSCH
516,1,ATTIC ZONE,Zone Thermostat Cooling Setpoint Temperature [C] !TimeStep,REPORTSCH
542,1,ACDXCOIL 1,Cooling Coil Total Cooling Energy [J] !TimeStep,REPORTSCH
592,1,HEAT PUMP DX HEATING COIL 1,Heating Coil Heating Energy [J] !TimeStep,REPORTSCH
632,1,SUPP HEATING COIL 1,Heating Coil Heating Energy [J] !TimeStep,REPORTSCH
686,1,TWOSPEED HEAT PUMP 1,Unitary System DX Coil Cycling Ratio [] !TimeStep,REPORTSCH
687,1,TWOSPEED HEAT PUMP 1,Unitary System DX Coil Speed Ratio [] !TimeStep,REPORTSCH
688,1,TWOSPEED HEAT PUMP 1,Unitary System DX Coil Speed Level [] !TimeStep,REPORTSCH
End of Data Dictionary
1,RUN PERIOD 1,  41.98, -87.92,  -6.00, 201.00
2,21, 1,21, 0, 1, 0.00,10.00,Monday
250,-0.3311346026652357
251,37858561.532236785
336,0.0
385,18.06052591104851
386,26.280248655448666
387,-0.9368088959946863
388,0.0
425,0.0
450,0.0
451,0.0
452,-1.9633547539740732
453,0.0
490,0.0
515,0.0
516,0.0
542,0.0
592,4839743.9850796405
632,32761577.694447678
686,1.0
687,1.0
688,2.0
2,21, 1,21, 0, 1,10.00,20.00,Monday
250,-0.3311733736938739
251,37860175.500524886
336,0.0
385,18.06052591104851
386,26.280248655448666
387,-0.9451970624939371
388,0.0
425,0.0
450,0.0
451,0.0
452,-1.9452566495029626
453,0.0
490,0.0
515,0.0
516,0.0
542,0.0
592,4823801.676011796
632,32777461.524998125
686,1.0
687,1.0
688,2.0
2,21, 1,21, 0, 1,20.00,30.00,Monday
250,-0.3314120385215662
251,37861966.95390072
336,0.0
385,18.06052591104851
386,26.280248655448666
387,-0.9548114211110982
388,0.0
425,0.0
450,0.0
451,0.0
452,-1.9421624466076008
453,0.0
490,0.0
515,0.0
516,0.0
542,0.0
592,4807858.162905219
632,32795088.880433492
686,1.0
687,1.0
688,2.0
2,21, 1,21, 0, 1,30.00,40.00,Monday
250,-0.3316007089118643
251,37863708.06637138
336,0.0
385,18.06052591104851
386,26.280248655448666
387,-0.9658568347466596
388,0.0
425,0.0
450,0.0
451,0.0
452,-1.9550043498795586
453,0.0
490,0.0
515,0.0
516,0.0
542,0.0
592,4791913.445623512
632,32812801.619618632
686,1.0
687,1.0
688,2.0
2,21, 1,21, 0, 1,40.00,50.00,Monday
250,-0.3317972097834252
251,37865457.24454298
336,0.0
385,18.06052591104851
386,26.280248655448666
387,-0.9784909437062064
388,0.0
425,0.0
450,0.0
451,0.0
452,-1.9821685039707881
453,0.0
490,0.0
515,0.0
516,0.0
542,0.0
592,4775967.524030239
632,32830492.499175515
686,1.0
687,1.0
688,2.0
2,21, 1,21, 0, 1,50.00,60.00,Monday
250,-0.33199774593400894
251,37867209.54429358
336,0.0
385,18.06052591104851
386,26.280248655448666
387,-0.9929027661059994
388,0.0
425,0.0
450,0.0
451,0.0
452,-2.0221183567841163
453,0.0
490,0.0
515,0.0
516,0.0
542,0.0
592,4760020.397988958
632,32848189.74775255
686,1.0
687,1.0
688,2.0
2,21, 1,21, 0, 2, 0.00,10.00,Monday
250,-0.33218502131910527
251,37868954.723770864
336,0.0
385,18.06052591104851
386,26.280248655448666
387,-1.008415128576524
388,0.0
425,0.0
450,0.0
451,0.0
452,-2.0688174843521323
453,0.0
490,0.0
515,0.0
516,0.0
542,0.0
592,4760020.397988956
632,32849942.06253461
686,1.0
687,1.0
688,2.0
2,21, 1,21, 0, 2,10.00,20.00,Monday
250,-0.33239987574107355
251,37869121.103253715
336,0.0
385,18.06052591104851
386,26.280248655448666
387,-1.024091050195449
388,0.0
425,0.0
450,0.0
451,0.0
452,-2.1114979574598745
453,0.0
490,0.0
515,0.0
516,0.0
542,0.0
592,4760020.397988958
632,32850093.59248321
686,1.0
687,1.0
688,2.0
2,21, 1,21, 0, 2,20.00,30.00,Monday
250,-0.3326149175493142
251,37869217.74061319
336,0.0
385,18.06052591104851
386,26.280248655448666
387,-1.0393797776320646
388,0.0
425,0.0
450,0.0
451,0.0
452,-2.142935592481503
453,0.0
490,0.0
515,0.0
516,0.0
542,0.0
592,4760020.397988958
632,32850190.12900672
686,1.0
687,1.0
688,2.0
2,21, 1,21, 0, 2,30.00,40.00,Monday
250,-0.33282523077315307
251,37869335.39898061
336,0.0
385,18.06052591104851
386,26.280248655448666
387,-1.053960405384489
388,0.0
425,0.0
450,0.0
451,0.0
452,-2.162312336466969
453,0.0
490,0.0
515,0.0
516,0.0
542,0.0
592,4760020.397988958
632,32850310.3333745
686,1.0
687,1.0
688,2.0
2,21, 1,21, 0, 2,40.00,50.00,Monday
250,-0.3330324503781656
251,37869447.67417923
336,0.0
385,18.06052591104851
386,26.280248655448666
387,-1.0676919932159714
388,0.0
425,0.0
450,0.0
451,0.0
452,-2.172457510029214
453,0.0
490,0.0
515,0.0
516,0.0
542,0.0
592,4760020.397988959
632,32850424.27426966
686,1.0
687,1.0
688,2.0
2,21, 1,21, 0, 2,50.00,60.00,Monday
250,-0.3332359748568058
251,37869557.14377149
336,0.0
385,18.06052591104851
386,26.280248655448666
387,-1.0805365108767215
388,0.0
425,0.0
450,0.0
451,0.0
452,-2.176515054524716
453,0.0
490,0.0
515,0.0
516,0.0
542,0.0
592,4760020.397988958
632,32850535.733430885
686,1.0
687,1.0
688,2.0
2,21, 1,21, 0, 3, 0.00,10.00,Monday
250,-0.2528273614044808
251,37826262.6960886
336,0.0
385,18.06052591104851
386,26.280248655448666
387,-1.0821143941467197
388,0.0
425,0.0
450,0.0
451,0.0
452,-2.1690689716045894
453,0.0
490,0.0
515,0.0
516,0.0
542,0.0
592,4762558.894114006
632,32848106.820754427
686,1.0
687,1.0
688,2.0
2,21, 1,21, 0, 3,10.00,20.00,Monday
250,-0.16975257199105762
251,37783041.93052121
336,0.0
385,18.06052591104851
386,26.280248655448666
387,-1.0711323716737906
388,0.0
425,0.0
450,0.0
451,0.0
452,-2.144141901135216
453,0.0
490,0.0
515,0.0
516,0.0
542,0.0
592,4764988.4357309695
632,32803893.850737456
686,1.0
687,1.0
688,2.0
2,21, 1,21, 0, 3,20.00,30.00,Monday
250,-0.08785355463660652
251,37740526.6969801
336,0.0
385,18.06052591104851
386,26.280248655448666
387,-1.0520129870698114
388,0.0
425,0.0
450,0.0
451,0.0
452,-2.100275692854114
453,0.0
490,0.0
515,0.0
516,0.0
542,0.0
592,4767308.250738333
632,32758427.55569741
686,1.0
687,1.0
688,2.0
2,21, 1,21, 0, 3,30.00,40.00,Monday
250,-0.005687439083227215
251,37697852.06156459
336,0.0
385,18.06052591104851
386,26.280248655448666
387,-1.0285569443516078
388,0.0
425,0.0
450,0.0
451,0.0
452,-2.04059188467155
453,0.0
490,0.0
515,0.0
516,0.0
542,0.0
592,4769517.689516207
632,32713689.149491284
686,1.0
687,1.0
688,2.0
2,21, 1,21, 0, 3,40.00,50.00,Monday
250,0.07656678695411026
251,37655140.1015833
336,0.0
385,18.06052591104851
386,26.280248655448666
387,-1.0020804511020356
388,0.0
425,0.0
450,0.0
451,0.0
452,-1.9695707743435757
453,0.0
490,0.0
515,0.0
516,0.0
542,0.0
592,4771616.115684973
632,32668928.071191996
686,1.0
687,1.0
688,2.0
2,21, 1,21, 0, 3,50.00,60.00,Monday
250,0.1588777951324568
251,37612404.98391472
336,0.0
385,18.06052591104851
386,26.280248655448666
387,-0.97240688635091
388,0.0
425,0.0
450,0.0
451,0.0
452,-1.8908336555229834
453,0.0
490,0.0
515,0.0
516,0.0
542,0.0
592,4773602.736238396
632,32624238.78630389
686,1.0
687,1.0
688,2.0
2,21, 1,21, 0, 4, 0.00,10.00,Monday
250,0.1605814735190208
251,37613088.74974246
336,0.0
385,18.06052591104851
386,26.280248655448666
387,-0.9499848071404947
388,0.0
425,0.0
450,0.0
451,0.0
452,-1.8146638807420878
453,0.0
490,0.0
515,0.0
516,0.0
542,0.0
592,4773428.982371633
632,32581685.880893923
686,1.0
687,1.0
688,2.0
2,21, 1,21, 0, 4,10.00,20.00,Monday
250,0.15966080411706693
251,37613671.28469131
336,0.0
385,18.06052591104851
386,26.280248655448666
387,-0.9374082444123346
388,0.0
425,0.0
450,0.0
451,0.0
452,-1.7500933596657486
453,0.0
490,0.0
515,0.0
516,0.0
542,0.0
592,4773255.169447958
632,32581028.844918493
686,1.0
687,1.0
688,2.0
2,21, 1,21, 0, 4,20.00,30.00,Monday
250,0.15997511292639646
251,37613522.14426638
336,0.0
385,18.06052591104851
386,26.280248655448666
387,-0.9313410852820095
388,0.0
425,0.0
450,0.0
451,0.0
452,-1.7007336684362266
453,0.0
490,0.0
515,0.0
516,0.0
542,0.0
592,4773081.29743726
632,32581718.694562778
686,1.0
687,1.0
688,2.0
2,21, 1,21, 0, 4,30.00,40.00,Monday
250,0.160071037082571
251,37613513.05647969
336,0.0
385,18.06052591104851
386,26.280248655448666
387,-0.9280653804068651
388,0.0
425,0.0
450,0.0
451,0.0
452,-1.6649400815181956
453,0.0
490,0.0
515,0.0
516,0.0
542,0.0
592,4772907.3663094025
632,32581765.923227876
686,1.0
687,1.0
688,2.0
2,21, 1,21, 0, 4,40.00,50.00,Monday
250,0.16012780183405756
251,37613521.54393763
336,0.0
385,18.06052591104851
386,26.280248655448666
387,-0.9258218172092931
388,0.0
425,0.0
450,0.0
451,0.0
452,-1.6390474897377014
453,0.0
490,0.0
515,0.0
516,0.0
542,0.0
592,4772733.376034233
632,32581927.311011672
686,1.0
687,1.0
688,2.0
2,21, 1,21, 0, 4,50.00,60.00,Monday
250,0.16019036867726835
251,37613526.14288952
336,0.0
385,18.06052591104851
386,26.280248655448666
387,-0.9243928135300121
388,0.0
425,0.0
450,0.0
451,0.0
452,-1.6199920756998492
453,0.0
490,0.0
515,0.0
516,0.0
542,0.0
592,4772559.326581573
632,32582109.08427156
686,1.0
687,1.0
688,2.0
2,21, 1,21, 0, 5, 0.00,10.00,Monday
250,0.16024959921909654
251,37613532.659759566
336,0.0
385,18.06052591104851
386,26.280248655448666
387,-0.9237989494129955
388,0.0
425,0.0
450,0.0
451,0.0
452,-1.6051551427562134
453,0.0
490,0.0
515,0.0
516,0.0
542,0.0
592,4759720.858689582
632,32594952.272239126
686,1.0
687,1.0
688,2.0
2,21, 1,21, 0, 5,10.00,20.00,Monday
250,0.16033217758703067
251,37614766.99707559
336,0.0
385,18.06052591104851
386,26.280248655448666
387,-0.9238925335347856
388,0.0
425,0.0
450,0.0
451,0.0
452,-1.5922265145799992
453,0.0
490,0.0
515,0.0
516,0.0
542,0.0
592,4746877.262331866
632,32609042.78184301
686,1.0
687,1.0
688,2.0
2,21, 1,21, 0, 5,20.00,30.00,Monday
250,0.16041650499174365
251,37616055.309485465
336,0.0
385,18.06052591104851
386,26.280248655448666
387,-0.9244448182601864
388,0.0
425,0.0
450,0.0
451,0.0
452,-1.579803966415123
453,0.0
490,0.0
515,0.0
516,0.0
542,0.0
592,4734028.534436013
632,32623180.765768364
686,1.0
687,1.0
688,2.0
2,21, 1,21, 0, 5,30.00,40.00,Monday
250,0.1605002752008975
251,37617326.11251794
336,0.0
385,18.06052591104851
386,26.280248655448666
387,-0.9252540499717975
388,0.0
425,0.0
450,0.0
451,0.0
452,-1.5674516705354757
453,0.0
490,0.0
515,0.0
516,0.0
542,0.0
592,4721174.671927155
632,32637305.13277894
686,1.0
687,1.0
688,2.0
2,21, 1,21, 0, 5,40.00,50.00,Monday
250,0.16058452302000983
251,37618600.071655124
336,0.0
385,18.06052591104851
386,26.280248655448666
387,-0.9261838918589905
388,0.0
425,0.0
450,0.0
451,0.0
452,-1.5552361983752625
453,0.0
490,0.0
515,0.0
516,0.0
542,0.0
592,4708315.671727969
632,32651438.350959674
686,1.0
687,1.0
688,2.0
2,21, 1,21, 0, 5,50.00,60.00,Monday
250,0.16066940300366161
251,37619874.84846705
336,0.0
385,18.06052591104851
386,26.280248655448666
387,-0.9271541378405597
388,0.0
425,0.0
450,0.0
451,0.0
452,-1.5433076168518
453,0.0
490,0.0
515,0.0
516,0.0
542,0.0
592,4695451.530758674
632,32665577.61085758
686,1.0
687,1.0
688,2.0
2,21, 1,21, 0, 6, 0.00,10.00,Monday
250,0.16075848720222596
251,37621147.795429006
336,0.0
385,18.06052591104851
386,26.280248655448666
387,-0.9282505343912081
388,0.0
425,0.0
450,0.0
451,0.0
452,-1.5323579238467635
453,0.0
490,0.0
515,0.0
516,0.0
542,0.0
592,4695264.082255858
632,32667040.27266299
686,1.0
687,1.0
688,2.0
2,21, 1,21, 0, 6,10.00,20.00,Monday
250,0.1608239348821236
251,37621191.93008779
336,0.0
385,18.06052591104851
386,26.280248655448666
387,-0.9295580931822407
388,0.0
425,0.0
450,0.0
451,0.0
452,-1.5231992445359113
453,0.0
490,0.0
515,0.0
516,0.0
542,0.0
592,4695076.569900009
632,32667259.187183004
686,1.0
687,1.0
688,2.0
2,21, 1,21, 0, 6,20.00,30.00,Monday
250,0.1608880989038136
251,37621182.28589164
336,0.0
385,18.06052591104851
386,26.280248655448666
387,-0.9310739170391509
388,0.0
425,0.0
450,0.0
451,0.0
452,-1.5161665159155664
453,0.0
490,0.0
515,0.0
516,0.0
542,0.0
592,4694888.993658494
632,32667436.427766126
686,1.0
687,1.0
688,2.0
2,21, 1,21, 0, 6,30.00,40.00,Monday
250,0.16095389866264975
251,37621190.12887349
336,0.0
385,18.06052591104851
386,26.280248655448666
387,-0.9327578892891591
388,0.0
425,0.0
450,0.0
451,0.0
452,-1.511052824651439
453,0.0
490,0.0
515,0.0
516,0.0
542,0.0
592,4694701.353498662
632,32667632.792093333
686,1.0
687,1.0
688,2.0
2,21, 1,21, 0, 6,40.00,50.00,Monday
250,0.16102063180914397
251,37621194.588526316
336,0.0
385,18.06052591104851
386,26.280248655448666
387,-0.9345787650561242
388,0.0
425,0.0
450,0.0
451,0.0
452,-1.5074062329178883
453,0.0
490,0.0
515,0.0
516,0.0
542,0.0
592,4694513.649387832
632,32667825.45869678
686,1.0
687,1.0
688,2.0
2,21, 1,21, 0, 6,50.00,60.00,Monday
250,0.16108840527686247
251,37621197.86526991
336,0.0
385,18.06052591104851
386,26.280248655448666
387,-0.9365195280511158
388,0.0
425,0.0
450,0.0
451,0.0
452,-1.5048054291584936
453,0.0
490,0.0
515,0.0
516,0.0
542,0.0
592,4694325.88129331
632,32668017.06397869
686,1.0
687,1.0
688,2.0
2,21, 1,21, 0, 7, 0.00,10.00,Monday
250,0.1593644565292928
251,37622166.4195961
336,0.0
385,18.06052591104851
386,26.280248655448666
387,-0.9410092124063018
388,0.0
425,0.0
450,0.0
451,0.0
452,-1.5081144778354911
453,0.0
490,0.0
515,0.0
516,0.0
542,0.0
592,4723573.583255435
632,32638772.740866717
686,1.0
687,1.0
688,2.0
2,21, 1,21, 0, 7,10.00,20.00,Monday
250,0.15939101767199074
251,37619329.23451096
336,0.0
385,18.06052591104851
386,26.280248655448666
387,-0.9502285402081037
388,0.0
425,0.0
450,0.0
451,0.0
452,-1.5267980304976165
453,0.0
490,0.0
515,0.0
516,0.0
542,0.0
592,4752837.186047653
632,32607614.92693167
686,1.0
687,1.0
688,2.0
2,21, 1,21, 0, 7,20.00,30.00,Monday
250,0.15951480198012355
251,37616312.61075688
336,0.0
385,18.06052591104851
386,26.280248655448666
387,-0.9644205061018589
388,0.0
425,0.0
450,0.0
451,0.0
452,-1.5662357692734483
453,0.0
490,0.0
515,0.0
516,0.0
542,0.0
592,4782116.702651945
632,32575371.1501647
686,1.0
687,1.0
688,2.0
2,21, 1,21, 0, 7,30.00,40.00,Monday
250,0.15961070998235696
251,37613351.730316125
336,0.0
385,18.06052591104851
386,26.280248655448666
387,-0.9826301746347732
388,0.0
425,0.0
450,0.0
451,0.0
452,-1.624069335025748
453,0.0
490,0.0
515,0.0
516,0.0
542,0.0
592,4811412.146064445
632,32543099.808047287
686,1.0
687,1.0
688,2.0
2,21, 1,21, 0, 7,40.00,50.00,Monday
250,0.15971313708224708
251,37610379.09691015
336,0.0
385,18.06052591104851
386,26.280248655448666
387,-1.0037816665242656
388,0.0
425,0.0
450,0.0
451,0.0
452,-1.694043946056815
453,0.0
490,0.0
515,0.0
516,0.0
542,0.0
592,4840723.52929546
632,32510819.298067227
686,1.0
687,1.0
688,2.0
2,21, 1,21, 0, 7,50.00,60.00,Monday
250,0.1598188632539851
251,37607401.64780803
336,0.0
385,18.06052591104851
386,26.280248655448666
387,-1.0271198760903535
388,0.0
425,0.0
450,0.0
451,0.0
452,-1.770455389386214
453,0.0
490,0.0
515,0.0
516,0.0
542,0.0
592,4870050.865369484
632,32478516.28508551
686,1.0
687,1.0
688,2.0
2,21, 1,21, 0, 8, 0.00,10.00,Monday
250,0.36064101525234554
251,37496349.84408694
336,0.0
385,18.06052591104851
386,26.280248655448666
387,-1.02321814223787
388,0.0
425,0.0
450,0.0
451,0.0
452,-1.8294404714481776
453,0.0
490,0.0
515,0.0
516,0.0
542,0.0
592,4889730.300311493
632,32455858.025897514
686,1.0
687,1.0
688,2.0
2,21, 1,21, 0, 8,10.00,20.00,Monday
250,0.5615940677337087
251,37390344.0444653
336,0.0
385,18.06052591104851
386,26.280248655448666
387,-0.9813840381282798
388,0.0
425,0.0
450,0.0
451,0.0
452,-1.8207338434584441
453,0.0
490,0.0
515,0.0
516,0.0
542,0.0
592,4909380.719869504
632,32330278.639370304
686,1.0
687,1.0
688,2.0
2,21, 1,21, 0, 8,20.00,30.00,Monday
250,0.7589563887480293
251,37286494.6545712
336,0.0
385,18.06052591104851
386,26.280248655448666
387,-0.9101516940805273
388,0.0
425,0.0
450,0.0
451,0.0
452,-1.713524618181502
453,0.0
490,0.0
515,0.0
516,0.0
542,0.0
592,4929009.6156952735
632,32204873.769350484
686,1.0
687,1.0
688,2.0
2,21, 1,21, 0, 8,30.00,40.00,Monday
250,0.9571589433073635
251,37182116.53024728
336,0.0
385,18.06052591104851
386,26.280248655448666
387,-0.8195488979229418
388,0.0
425,0.0
450,0.0
451,0.0
452,-1.5183728795786036
453,0.0
490,0.0
515,0.0
516,0.0
542,0.0
592,4952863.646772657
632,32077100.8411658
686,1.0
687,1.0
688,2.0
2,21, 1,21, 0, 8,40.00,50.00,Monday
250,1.1555847104175383
251,37077227.5280371
336,0.0
385,18.06052591104851
386,26.280248655448666
387,-0.7176297765843925
388,0.0
425,0.0
450,0.0
451,0.0
452,-1.2422971274148897
453,0.0
490,0.0
515,0.0
516,0.0
542,0.0
592,4977062.298687914
632,31948139.074941583
686,1.0
687,1.0
688,2.0
2,21, 1,21, 0, 8,50.00,60.00,Monday
250,1.3553429016587064
251,36972528.26193507
336,0.0
385,18.06052591104851
386,26.280248655448666
387,-0.6215756247706123
388,0.0
425,0.0
450,0.0
451,0.0
452,-0.9288337618697124
453,0.0
490,0.0
515,0.0
516,0.0
542,0.0
592,5001395.306277512
632,31767411.074259005
686,1.0
687,1.0
688,2.0
2,21, 1,21, 0, 9, 0.00,10.00,Monday
250,1.619641530092791
251,36834085.70973855
336,0.0
385,18.06052591104851
386,26.280248655448666
387,-0.4830031632412814
388,0.0
425,0.0
450,0.0
451,0.0
452,-0.4490500476368364
453,0.0
490,0.0
515,0.0
516,0.0
542,0.0
592,5029363.153609448
632,31617879.832275756
686,1.0
687,1.0
688,2.0
2,21, 1,21, 0, 9,10.00,20.00,Monday
250,1.8838729306673159
251,36694766.198992625
336,0.0
385,18.06052591104851
386,26.280248655448666
387,-0.3320236197035333
388,0.0
425,0.0
450,0.0
451,0.0
452,0.07521416479229012
453,0.0
490,0.0
515,0.0
516,0.0
542,0.0
592,5057356.862312016
632,31450520.697659515
686,1.0
687,1.0
688,2.0
2,21, 1,21, 0, 9,20.00,30.00,Monday
250,2.148326313088322
251,36555318.47576463
336,0.0
385,18.06052591104851
386,26.280248655448666
387,-0.17211565429422132
388,0.0
425,0.0
450,0.0
451,0.0
452,0.6398889480479706
453,0.0
490,0.0
515,0.0
516,0.0
542,0.0
592,5085392.284952975
632,31283098.05951001
686,1.0
687,1.0
688,2.0
2,21, 1,21, 0, 9,30.00,40.00,Monday
250,2.4126494378895087
251,36415939.784602985
336,0.0
385,18.06052591104851
386,26.280248655448666
387,-0.0024431760694735016
388,0.0
425,0.0
450,0.0
451,0.0
452,1.2345157914962575
453,0.0
490,0.0
515,0.0
516,0.0
542,0.0
592,5113485.892141593
632,31115591.586878303
686,1.0
687,1.0
688,2.0
2,21, 1,21, 0, 9,40.00,50.00,Monday
250,2.6775510474012583
251,36275299.189618185
336,0.0
385,18.060525911048526
386,26.280248655448684
387,0.1426231993375288
388,0.0
425,0.0
450,0.0
451,0.0
452,1.7364734334022391
453,0.0
490,0.0
515,0.0
516,0.0
542,0.0
592,5141654.529350725
632,30922492.19705724
686,1.0000000000000009
687,1.0000000000000009
688,2.0000000000000018
2,21, 1,21, 0, 9,50.00,60.00,Monday
250,2.942473712400677
251,36135048.44825596
336,0.0
385,18.06052591104851
386,26.280248655448666
387,0.29473282611391205
388,0.0
425,0.0
450,0.0
451,0.0
452,2.277195549869328
453,0.0
490,0.0
515,0.0
516,0.0
542,0.0
592,5169915.672059796
632,30779439.95324316
686,1.0
687,1.0
688,2.0
2,21, 1,21, 0,10, 0.00,10.00,Monday
250,3.4010901946421184
251,35891741.70270494
336,0.0
385,18.06052591104851
386,26.280248655448666
387,0.485145705482773
388,0.0
425,0.0
450,0.0
451,0.0
452,2.8367654526101664
453,0.0
490,0.0
515,0.0
516,0.0
542,0.0
592,5241404.10703412
632,30474194.91616383
686,1.0
687,1.0
688,2.0
2,21, 1,21, 0,10,10.00,20.00,Monday
250,3.8614547086021176
251,35648081.535303436
336,0.0
385,18.06052591104851
386,26.280248655448666
387,0.7761937665088884
388,0.0
425,0.0
450,0.0
451,0.0
452,3.5916842549392625
453,0.0
490,0.0
515,0.0
516,0.0
542,0.0
592,5315291.857316207
632,30156044.144053303
686,1.0
687,1.0
688,2.0
2,21, 1,21, 0,10,20.00,30.00,Monday
250,4.322578308480387
251,35402764.93747609
336,0.0
385,18.060525911048504
386,26.28024865544866
387,1.0566261520650868
388,0.0
425,0.0
450,0.0
451,0.0
452,4.2809480853176645
453,0.0
490,0.0
515,0.0
516,0.0
542,0.0
592,5391793.298050373
632,29834405.970442686
686,0.9999999999999996
687,0.9999999999999996
688,1.9999999999999991
2,21, 1,21, 0,10,30.00,40.00,Monday
250,4.784092544526851
251,35157105.61634487
336,0.0
385,18.06052591104852
386,26.280248655448677
387,1.3384283180593246
388,0.0
425,0.0
450,0.0
451,0.0
452,4.98237830377826
453,0.0
490,0.0
515,0.0
516,0.0
542,0.0
592,5471132.199313744
632,29509521.90570542
686,1.0000000000000004
687,1.0000000000000004
688,2.000000000000001
2,21, 1,21, 0,10,40.00,50.00,Monday
250,5.246143261125498
251,34911017.404481046
336,0.0
385,18.060525911048526
386,26.280248655448684
387,1.6285953070695558
388,0.0
425,0.0
450,0.0
451,0.0
452,5.746365632570756
453,0.0
490,0.0
515,0.0
516,0.0
542,0.0
592,5553542.375759331
632,29181166.569975425
686,1.0000000000000009
687,1.0000000000000009
688,2.0000000000000018
2,21, 1,21, 0,10,50.00,60.00,Monday
250,5.708228354686089
251,34664764.264056176
336,0.0
385,18.060525911048526
386,26.280248655448684
387,1.9288449227270588
388,0.0
425,0.0
450,0.0
451,0.0
452,6.575526136956553
453,0.0
490,0.0
515,0.0
516,0.0
542,0.0
592,5639267.778995938
632,28849242.7126375
686,1.0000000000000009
687,1.0000000000000009
688,2.0000000000000018
2,21, 1,21, 0,11, 0.00,10.00,Monday
250,5.9918551560514475
251,34513836.82271686
336,0.0
385,18.06052591104851
386,26.280248655448666
387,2.2153764774525353
388,0.0
425,0.0
450,0.0
451,0.0
452,7.430778990989195
453,0.0
490,0.0
515,0.0
516,0.0
542,0.0
592,5689519.861596227
632,28616099.526906867
686,1.0
687,1.0
688,2.0
2,21, 1,21, 0,11,10.00,20.00,Monday
250,6.274034500193593
251,34363617.769990824
336,0.0
385,18.06052591104851
386,26.280248655448666
387,2.485157425523979
388,0.0
425,0.0
450,0.0
451,0.0
452,8.281351232504614
453,0.0
490,0.0
515,0.0
516,0.0
542,0.0
592,5740969.350869594
632,28414168.555565536
686,1.0
687,1.0
688,2.0
2,21, 1,21, 0,11,20.00,30.00,Monday
250,6.55627007601665
251,34213321.37419596
336,0.0
385,18.060525911048504
386,26.28024865544866
387,2.757320091048347
388,0.0
425,0.0
450,0.0
451,0.0
452,9.128014403009876
453,0.0
490,0.0
515,0.0
516,0.0
542,0.0
592,5793671.095282217
632,28211196.510854993
686,0.9999999999999996
687,0.9999999999999996
688,1.9999999999999991
2,21, 1,21, 0,11,30.00,40.00,Monday
250,6.837899390248848
251,34063298.75501196
336,0.0
385,18.06052591104852
386,26.280248655448677
387,3.034653210700819
388,0.0
425,0.0
450,0.0
451,0.0
452,9.95013312167088
453,0.0
490,0.0
515,0.0
516,0.0
542,0.0
592,5847681.4279665835
632,28007071.449852698
686,1.0000000000000004
687,1.0000000000000004
688,2.000000000000001
2,21, 1,21, 0,11,40.00,50.00,Monday
250,7.119270346512739
251,33913361.844521016
336,0.0
385,18.060525911048526
386,26.280248655448684
387,3.3137554372202604
388,0.0
425,0.0
450,0.0
451,0.0
452,10.695598953065495
453,0.0
490,0.0
515,0.0
516,0.0
542,0.0
592,5903058.082199926
632,27801728.964971982
686,1.0000000000000009
687,1.0000000000000009
688,2.0000000000000018
2,21, 1,21, 0,11,50.00,60.00,Monday
250,7.4002885393719025
251,33763560.115570225
336,0.0
385,18.060525911048526
386,26.280248655448684
387,3.5907743949372195
388,0.0
425,0.0
450,0.0
451,0.0
452,11.331196856475318
453,0.0
490,0.0
515,0.0
516,0.0
542,0.0
592,5959860.237244541
632,27595079.606800918
686,1.0000000000000009
687,1.0000000000000009
688,2.0000000000000018
2,21, 1,21, 0,12, 0.00,10.00,Monday
250,7.666806246085402
251,33621478.50460897
336,0.0
385,18.06052591104851
386,26.280248655448666
387,3.830750214433716
388,0.0
425,0.0
450,0.0
451,0.0
452,11.83039056288678
453,0.0
490,0.0
515,0.0
516,0.0
542,0.0
592,5991096.197635708
632,27445174.621218808
686,1.0
687,1.0
688,2.0
2,21, 1,21, 0,12,10.00,20.00,Monday
250,7.9300785522357415
251,33484612.404889233
336,0.0
385,18.06052591104851
386,26.280248655448666
387,4.123127606989495
388,0.0
425,0.0
450,0.0
451,0.0
452,12.394382563490607
453,0.0
490,0.0
515,0.0
516,0.0
542,0.0
592,7572016.881221028
632,25725360.684554406
686,1.0
687,1.0
688,2.0
2,21, 1,21, 0,12,20.00,30.00,Monday
250,8.195052673676273
251,33345140.56287585
336,0.0
385,18.06052591104851
386,26.280248655448666
387,4.39223966635347
388,0.0
425,0.0
450,0.0
451,0.0
452,12.909930104068707
453,0.0
490,0.0
515,0.0
516,0.0
542,0.0
592,7609409.155487606
632,25548919.29871808
686,1.0
687,1.0
688,2.0
2,21, 1,21, 0,12,30.00,40.00,Monday
250,8.459753998036259
251,33205818.515682496
336,0.0
385,18.06052591104851
386,26.280248655448666
387,4.651043329753673
388,0.0
425,0.0
450,0.0
451,0.0
452,13.401323614845113
453,0.0
490,0.0
515,0.0
516,0.0
542,0.0
592,7646583.592010485
632,25372349.414317355
686,1.0
687,1.0
688,2.0
2,21, 1,21, 0,12,40.00,50.00,Monday
250,8.724375548198733
251,33066539.054832414
336,0.0
385,18.06052591104851
386,26.280248655448666
387,4.90546115710241
388,0.0
425,0.0
450,0.0
451,0.0
452,13.843071289961514
453,0.0
490,0.0
515,0.0
516,0.0
542,0.0
592,7683540.190789655
632,25196091.609688766
686,1.0
687,1.0
688,2.0
2,21, 1,21, 0,12,50.00,60.00,Monday
250,8.988969088827254
251,32927273.90714887
336,0.0
385,18.06052591104851
386,26.280248655448666
387,5.154400474920859
388,0.0
425,0.0
450,0.0
451,0.0
452,14.210915042709873
453,0.0
490,0.0
515,0.0
516,0.0
542,0.0
592,7720278.951825122
632,25020080.61121493
686,1.0
687,1.0
688,2.0
2,21, 1,21, 0,13, 0.00,10.00,Monday
250,9.171367367387411
251,32829040.992297865
336,0.0
385,18.06052591104851
386,26.280248655448666
387,5.386777263700881
388,0.0
425,0.0
450,0.0
451,0.0
452,14.50219149688391
453,0.0
490,0.0
515,0.0
516,0.0
542,0.0
592,7745410.487127082
632,24918506.789505284
686,1.0
687,1.0
688,2.0
2,21, 1,21, 0,13,10.00,20.00,Monday
250,9.352799949855013
251,32735055.555689923
336,0.0
385,18.06052591104851
386,26.280248655448666
387,5.605547322150578
388,0.0
425,0.0
450,0.0
451,0.0
452,14.731417837935785
453,0.0
490,0.0
515,0.0
516,0.0
542,0.0
592,7770439.060057996
632,24803655.485311937
686,1.0
687,1.0
688,2.0
2,21, 1,21, 0,13,20.00,30.00,Monday
250,9.535524915871136
251,32640579.115093064
336,0.0
385,18.06052591104851
386,26.280248655448666
387,5.810429870996395
388,0.0
425,0.0
450,0.0
451,0.0
452,14.914564250652994
453,0.0
490,0.0
515,0.0
516,0.0
542,0.0
592,7795364.670617863
632,24684963.559814114
686,1.0
687,1.0
688,2.0
2,21, 1,21, 0,13,30.00,40.00,Monday
250,9.717932483628026
251,32546301.105103146
336,0.0
385,18.06052591104851
386,26.280248655448666
387,6.005444558001074
388,0.0
425,0.0
450,0.0
451,0.0
452,15.06344515433916
453,0.0
490,0.0
515,0.0
516,0.0
542,0.0
592,7820187.318806681
632,24565704.24244893
686,1.0
687,1.0
688,2.0
2,21, 1,21, 0,13,40.00,50.00,Monday
250,9.90024669391533
251,32452107.035502646
336,0.0
385,18.06052591104851
386,26.280248655448666
387,6.194340412156798
388,0.0
425,0.0
450,0.0
451,0.0
452,15.182728357120412
453,0.0
490,0.0
515,0.0
516,0.0
542,0.0
592,7844907.004624449
632,24446752.93761385
686,1.0
687,1.0
688,2.0
2,21, 1,21, 0,13,50.00,60.00,Monday
250,10.082483705614996
251,32357987.71717213
336,0.0
385,18.06052591104851
386,26.280248655448666
387,6.378417779205043
388,0.0
425,0.0
450,0.0
451,0.0
452,15.276063978964881
453,0.0
490,0.0
515,0.0
516,0.0
542,0.0
592,7869523.728071173
632,24327988.23846284
686,1.0
687,1.0
688,2.0
2,21, 1,21, 0,14, 0.00,10.00,Monday
250,10.282243385579942
251,32254437.11733465
336,0.0
385,18.06052591104851
386,26.280248655448666
387,6.560512993567663
388,0.0
425,0.0
450,0.0
451,0.0
452,15.33206584651394
453,0.0
490,0.0
515,0.0
516,0.0
542,0.0
592,7896260.907308882
632,24207177.91745423
686,1.0
687,1.0
688,2.0
2,21, 1,21, 0,14,10.00,20.00,Monday
250,10.481062827290014
251,32151011.801165696
336,0.0
385,18.06052591104851
386,26.280248655448666
387,6.740757431131389
388,0.0
425,0.0
450,0.0
451,0.0
452,15.3324297834296
453,0.0
490,0.0
515,0.0
516,0.0
542,0.0
592,7922875.552815756
632,24076643.347379453
686,1.0
687,1.0
688,2.0
2,21, 1,21, 0,14,20.00,30.00,Monday
250,10.679554282376635
251,32047762.990683757
336,0.0
385,18.06052591104851
386,26.280248655448666
387,6.916996035665054
388,0.0
425,0.0
450,0.0
451,0.0
452,15.276705447336354
453,0.0
490,0.0
515,0.0
516,0.0
542,0.0
592,7949367.664591796
632,23946738.545395102
686,1.0
687,1.0
688,2.0
2,21, 1,21, 0,14,30.00,40.00,Monday
250,10.87785567101176
251,31944644.81239575
336,0.0
385,18.06052591104851
386,26.280248655448666
387,7.083280680140357
388,0.0
425,0.0
450,0.0
451,0.0
452,15.154377673565753
453,0.0
490,0.0
515,0.0
516,0.0
542,0.0
592,7975737.242637001
632,23817161.568635024
686,1.0
687,1.0
688,2.0
2,21, 1,21, 0,14,40.00,50.00,Monday
250,11.075985371959236
251,31841640.801149175
336,0.0
385,18.06052591104851
386,26.280248655448666
387,7.235918413312943
388,0.0
425,0.0
450,0.0
451,0.0
452,14.945728883753885
453,0.0
490,0.0
515,0.0
516,0.0
542,0.0
592,8001984.286951372
632,23687831.360886686
686,1.0
687,1.0
688,2.0
2,21, 1,21, 0,14,50.00,60.00,Monday
250,11.274010854437181
251,31738715.20927663
336,0.0
385,18.06052591104851
386,26.280248655448666
387,7.3751986312546505
388,0.0
425,0.0
450,0.0
451,0.0
452,14.653804907644838
453,0.0
490,0.0
515,0.0
516,0.0
542,0.0
592,8028108.797534915
632,23558738.712936144
686,1.0
687,1.0
688,2.0
2,21, 1,21, 0,15, 0.00,10.00,Monday
250,11.537967571628064
251,31600917.427888677
336,0.0
385,18.06052591104851
386,26.280248655448666
387,7.496127037022173
388,0.0