Program Version,EnergyPlus, Version 24.2.0-94a887817b, YMD=2025.02.04 15:37
1,5,Environment Title[],Latitude[deg],Longitude[deg],Time Zone[],Elevation[m]
2,8,Day of Simulation[],Month[],Day of Month[],DST Indicator[1=yes 0=no],Hour[],StartMinute[],EndMinute[],DayType
3,5,Cumulative Day of Simulation[],Month[],Day of Month[],DST Indicator[1=yes 0=no],DayType  ! When Daily Meters Requested
4,2,Cumulative Days of Simulation[],Month[]  ! When Monthly Meters Requested
5,1,Cumulative Days of Simulation[] ! When Run Period Meters Requested
6,1,Calendar Year of Simulation[] ! When Annual Meters Requested
11,9,Electricity:Facility [J] !Monthly [Value,Min,Day,Hour,Minute,Max,Day,Hour,Minute]
23,9,Electricity:Building [J] !Monthly [Value,Min,Day,Hour,Minute,Max,Day,Hour,Minute]
59,9,InteriorLights:Electricity [J] !Monthly [Value,Min,Day,Hour,Minute,Max,Day,Hour,Minute]
521,9,Electricity:HVAC [J] !Monthly [Value,Min,Day,Hour,Minute,Max,Day,Hour,Minute]
637,9,NaturalGas:Facility [J] !Monthly [Value,Min,Day,Hour,Minute,Max,Day,Hour,Minute]
649,9,NaturalGas:HVAC [J] !Monthly [Value,Min,Day,Hour,Minute,Max,Day,Hour,Minute]
13,11,Electricity:Facility [J] !RunPeriod [Value,Min,Month,Day,Hour,Minute,Max,Month,Day,Hour,Minute]
25,11,Electricity:Building [J] !RunPeriod [Value,Min,Month,Day,Hour,Minute,Max,Month,Day,Hour,Minute]
61,11,InteriorLights:Electricity [J] !RunPeriod [Value,Min,Month,Day,Hour,Minute,Max,Month,Day,Hour,Minute]
523,11,Electricity:HVAC [J] !RunPeriod [Value,Min,Month,Day,Hour,Minute,Max,Month,Day,Hour,Minute]
639,11,NaturalGas:Facility [J] !RunPeriod [Value,Min,Month,Day,Hour,Minute,Max,Month,Day,Hour,Minute]
651,11,NaturalGas:HVAC [J] !RunPeriod [Value,Min,Month,Day,Hour,Minute,Max,Month,Day,Hour,Minute]
End of Data Dictionary
1,RUN PERIOD 1,  41.98, -87.92,  -6.00, 201.00
4,31, 1
11,9813859041.284998,408891.4285714286, 5, 6,60,2972813.051414753,16,13,60
23,974808940.054012,30000.0, 1, 1,10,603339.8116333283, 1, 9,10
59,970200000.0,30000.0, 1, 1,10,600000.0, 1, 8,10
521,8839050101.230986,378891.4285714286, 5, 6,60,2369473.239781425,16,13,60
637,174360831313.39963,26366813.668291874,21,16,10,41250000.0, 1, 1,30
649,174360831313.39963,26366813.668291874,21,16,10,41250000.0, 1, 1,30
4,59, 2
11,9348543895.023865,99999999999999.0, 5, 6,60,3014274.491677875,22,15,30
23,852167773.9600096,99999999999999.0, 1, 1,10,-99999999999999.0, 1, 9,10
59,848160000.0,99999999999999.0, 1, 1,10,-99999999999999.0, 1, 8,10
521,8496376121.063895,99999999999999.0, 5, 6,60,2410934.680044547,22,15,30
637,152863868438.8886,24738321.454377137,23,12,50,-99999999999999.0, 1, 1,30
649,152863868438.8886,24738321.454377137,23,12,50,-99999999999999.0, 1, 1,30
4,90, 3
11,10863595734.271605,303339.8116333283,27,18,10,3144857.304505257,26,14,30
23,908160437.1338861,99999999999999.0, 1, 1,10,686730.8493580645,26,14,30
59,897480000.0,99999999999999.0, 1, 1,10,-99999999999999.0, 1, 8,10
521,9955435297.137667,0.0,19,16,60,2459262.3789038328,10,13,60
637,152450224552.44882,0.0,19,16,60,-99999999999999.0, 1, 1,30
649,152450224552.44882,0.0,19,16,60,-99999999999999.0, 1, 1,30
4,120, 4
11,9302302181.181852,30000.0,11,19,10,-99999999999999.0,26,14,30
23,946830029.992184,99999999999999.0, 1, 1,10,690561.7105535787,24,17,10
59,929520000.0,99999999999999.0, 1, 1,10,-99999999999999.0, 1, 8,10
521,8355472151.18973,99999999999999.0,19,16,60,-99999999999999.0,10,13,60
637,109653589927.90689,99999999999999.0,19,16,60,-99999999999999.0, 1, 1,30
649,109653589927.90689,99999999999999.0,19,16,60,-99999999999999.0, 1, 1,30
4,151, 5
11,8226442917.856595,99999999999999.0,11,19,10,-99999999999999.0,26,14,30
23,1009604580.5642318,99999999999999.0, 1, 1,10,693044.6981028528,10,11,20
59,970200000.0,99999999999999.0, 1, 1,10,-99999999999999.0, 1, 8,10
521,7216838337.292454,99999999999999.0,19,16,60,-99999999999999.0,10,13,60
637,76499738148.33344,99999999999999.0,19,16,60,-99999999999999.0, 1, 1,30
649,76499738148.33344,99999999999999.0,19,16,60,-99999999999999.0, 1, 1,30
4,181, 6
11,6123493127.534674,99999999999999.0,11,19,10,-99999999999999.0,26,14,30
23,890247426.0793139,99999999999999.0, 1, 1,10,693069.9160577141,10,14,60
59,856800000.0,99999999999999.0, 1, 1,10,-99999999999999.0, 1, 8,10
521,5233245701.455452,99999999999999.0,19,16,60,-99999999999999.0,10,13,60
637,25962800671.93949,99999999999999.0,19,16,60,-99999999999999.0, 1, 1,30
649,25962800671.93949,99999999999999.0,19,16,60,-99999999999999.0, 1, 1,30
4,212, 7
11,6124503105.340956,99999999999999.0,11,19,10,-99999999999999.0,26,14,30
23,986308353.190486,99999999999999.0, 1, 1,10,-99999999999999.0,10,14,60
59,970200000.0,99999999999999.0, 1, 1,10,-99999999999999.0, 1, 8,10
521,5138194752.150487,99999999999999.0,19,16,60,-99999999999999.0,10,13,60
637,5629082190.970178,99999999999999.0,19,16,60,-99999999999999.0, 1, 1,30
649,5629082190.970178,99999999999999.0,19,16,60,-99999999999999.0, 1, 1,30
4,243, 8
11,4853483879.660535,99999999999999.0,11,19,10,-99999999999999.0,26,14,30
23,957924164.510897,99999999999999.0, 1, 1,10,-99999999999999.0,10,14,60
59,933840000.0,99999999999999.0, 1, 1,10,-99999999999999.0, 1, 8,10
521,3895559715.149727,99999999999999.0,19,16,60,-99999999999999.0,10,13,60
637,12985538643.122715,99999999999999.0,19,16,60,-99999999999999.0, 1, 1,30
649,12985538643.122715,99999999999999.0,19,16,60,-99999999999999.0, 1, 1,30
4,273, 9
11,5781375163.990048,99999999999999.0,11,19,10,-99999999999999.0,26,14,30
23,929168837.0294621,99999999999999.0, 1, 1,10,-99999999999999.0,10,14,60
59,893160000.0,99999999999999.0, 1, 1,10,-99999999999999.0, 1, 8,10
521,4852206326.960703,99999999999999.0,19,16,60,2460034.5706523336,22,10,60
637,42396343021.12454,99999999999999.0,19,16,60,-99999999999999.0, 1, 1,30
649,42396343021.12454,99999999999999.0,19,16,60,-99999999999999.0, 1, 1,30
4,304,10
11,10124653490.418806,99999999999999.0,11,19,10,-99999999999999.0,26,14,30
23,1011377157.6308371,99999999999999.0, 1, 1,10,-99999999999999.0,10,14,60
59,970200000.0,99999999999999.0, 1, 1,10,-99999999999999.0, 1, 8,10
521,9113276332.78799,99999999999999.0,19,16,60,-99999999999999.0,22,10,60
637,114986890667.7931,99999999999999.0,19,16,60,-99999999999999.0, 1, 1,30
649,114986890667.7931,99999999999999.0,19,16,60,-99999999999999.0, 1, 1,30
4,334,11
11,10191201534.364481,99999999999999.0,11,19,10,-99999999999999.0,26,14,30
23,921758162.7987058,99999999999999.0, 1, 1,10,-99999999999999.0,10,14,60
59,893160000.0,99999999999999.0, 1, 1,10,-99999999999999.0, 1, 8,10
521,9269443371.565786,99999999999999.0,19,16,60,2460171.844565304, 9,12,60
637,137460672762.2716,99999999999999.0,19,16,60,-99999999999999.0, 1, 1,30
649,137460672762.2716,99999999999999.0,19,16,60,-99999999999999.0, 1, 1,30
4,365,12
11,10427199171.73981,99999999999999.0,11,19,10,-99999999999999.0,26,14,30
23,938248551.3560112,99999999999999.0, 1, 1,10,-99999999999999.0,10,14,60
59,933840000.0,99999999999999.0, 1, 1,10,-99999999999999.0, 1, 8,10
521,9488950620.383821,99999999999999.0,19,16,60,-99999999999999.0, 9,12,60
637,174919993843.7946,99999999999999.0,19,16,60,-99999999999999.0, 1, 1,30
649,174919993843.7946,99999999999999.0,19,16,60,-99999999999999.0, 1, 1,30
5,365
13,101180653242.66203,30000.0, 4,11,19,10,3144857.304505257, 3,26,14,30
25,11326604414.300655,30000.0, 1, 1, 1,10,693069.9160577141, 6,10,14,60
61,11066760000.0,30000.0, 1, 1, 1,10,600000.0, 1, 1, 8,10
523,89854048828.37228,0.0, 3,19,16,60,2460171.844565304,11, 9,12,60
639,1180169574182.0024,0.0, 3,19,16,60,41250000.0, 1, 1, 1,30
651,1180169574182.0024,0.0, 3,19,16,60,41250000.0, 1, 1, 1,30
1,RUN PERIOD 2,  41.98, -87.92,  -6.00, 201.00
4,1, 7
11,132538535.45541468,99999999999999.0,11,19,10,-99999999999999.0,26,14,30
23,40880388.69799971,99999999999999.0, 1, 1,10,-99999999999999.0,10,14,60
59,40680000.0,99999999999999.0, 1, 1,10,-99999999999999.0, 1, 8,10
521,91658146.757415,99999999999999.0,19,16,60,-99999999999999.0, 9,12,60
637,0.0,99999999999999.0,19,16,60,-99999999999999.0, 1, 1,30
649,0.0,99999999999999.0,19,16,60,-99999999999999.0, 1, 1,30
5,1
13,132538535.45541468,99999999999999.0, 4,11,19,10,-99999999999999.0, 3,26,14,30
25,40880388.69799971,99999999999999.0, 1, 1, 1,10,-99999999999999.0, 6,10,14,60
61,40680000.0,99999999999999.0, 1, 1, 1,10,-99999999999999.0, 1, 1, 8,10
523,91658146.757415,99999999999999.0, 3,19,16,60,-99999999999999.0,11, 9,12,60
639,0.0,99999999999999.0, 3,19,16,60,-99999999999999.0, 1, 1, 1,30
651,0.0,99999999999999.0, 3,19,16,60,-99999999999999.0, 1, 1, 1,30
End of Data
 Number of Records Written=          90
