Program Version,EnergyPlus, Version 24.2.0-94a887817b, YMD=2025.01.21 11:39
1,5,Environment Title[],Latitude[deg],Longitude[deg],Time Zone[],Elevation[m]
2,8,Day of Simulation[],Month[],Day of Month[],DST Indicator[1=yes 0=no],Hour[],StartMinute[],EndMinute[],DayType
3,5,Cumulative Day of Simulation[],Month[],Day of Month[],DST Indicator[1=yes 0=no],DayType  ! When Daily Report Variables Requested
4,2,Cumulative Days of Simulation[],Month[]  ! When Monthly Report Variables Requested
5,1,Cumulative Days of Simulation[] ! When Run Period Report Variables Requested
6,1,Calendar Year of Simulation[] ! When Annual Report Variables Requested
250,1,LIVING ZONE,Zone Air Temperature [C] !TimeStep,REPORTSCH
251,1,LIVING ZONE,Zone Air System Sensible Heating Energy [J] !TimeStep,REPORTSCH
336,1,LIVING ZONE,Zone Air System Sensible Cooling Energy [J] !TimeStep,REPORTSCH
385,1,LIVING ZONE,Zone Thermostat Heating Setpoint Temperature [C] !TimeStep,REPORTSCH
386,1,LIVING ZONE,Zone Thermostat Cooling Setpoint Temperature [C] !TimeStep,REPORTSCH
387,1,GARAGE ZONE,Zone Air Temperature [C] !TimeStep,REPORTSCH
388,1,GARAGE ZONE,Zone Air System Sensible Heating Energy [J] !TimeStep,REPORTSCH
425,1,GARAGE ZONE,Zone Air System Sensible Cooling Energy [J] !TimeStep,REPORTSCH
450,1,GARAGE ZONE,Zone Thermostat Heating Setpoint Temperature [C] !TimeStep,REPORTSCH
451,1,GARAGE ZONE,Zone Thermostat Cooling Setpoint Temperature [C] !TimeStep,REPORTSCH
452,1,ATTIC ZONE,Zone Air Temperature [C] !TimeStep,REPORTSCH
453,1,ATTIC ZONE,Zone Air System Sensible Heating Energy [J] !TimeStep,REPORTSCH
490,1,ATTIC ZONE,Zone Air System Sensible Cooling Energy [J] !TimeStep,REPORTSCH
515,1,ATTIC ZONE,Zone Thermostat Heating Setpoint Temperature [C] !TimeStep,REPORTSCH
516,1,ATTIC ZONE,Zone Thermostat Cooling Setpoint Temperature [C] !TimeStep,REPORTSCH
542,1,ACDXCOIL 1,Cooling Coil Total Cooling Energy [J] !TimeStep,REPORTSCH
592,1,HEAT PUMP DX HEATING COIL 1,Heating Coil Heating Energy [J] !TimeStep,REPORTSCH
632,1,SUPP HEATING COIL 1,Heating Coil Heating Energy [J] !TimeStep,REPORTSCH
686,1,TWOSPEED HEAT PUMP 1,Unitary System DX Coil Cycling Ratio [] !TimeStep,REPORTSCH
687,1,TWOSPEED HEAT PUMP 1,Unitary System DX Coil Speed Ratio [] !TimeStep,REPORTSCH
688,1,TWOSPEED HEAT PUMP 1,Unitary System DX Coil Speed Level [] !TimeStep,REPORTSCH
End of Data Dictionary
1,CHICAGO_IL_USA ANNUAL HEATING 99% DESIGN CONDITIONS DB,  41.98, -87.92,  -6.00, 201.00
2,1, 1,21, 0, 1, 0.00,10.00,WinterDesignDay
250,-17.038652466263702
251,33258891.42863625
336,0.0
385,18.685584144608143
386,28.33397792876063
387,-18.498312175562575
388,0.0
425,0.0
450,0.0
451,0.0
452,-19.361049999306072
453,0.0
490,0.0
515,0.0
516,0.0
542,0.0
592,0.0
632,33000000.0
686,1.0
687,1.0
688,2.0
2,1, 1,21, 0, 1,10.00,20.00,WinterDesignDay
250,-17.038652466383
251,33258891.42863539
336,0.0
385,18.685584144608143
386,28.33397792876063
387,-18.498313663365977
388,0.0
425,0.0
450,0.0
451,0.0
452,-19.36105020675998
453,0.0
490,0.0
515,0.0
516,0.0
542,0.0
592,0.0
632,33000000.0
686,1.0
687,1.0
688,2.0
2,1, 1,21, 0, 1,20.00,30.00,WinterDesignDay
250,-17.03865246650071
251,33258891.428634543
336,0.0
385,18.685584144608143
386,28.33397792876063
387,-18.498315131772095
388,0.0
425,0.0
450,0.0
451,0.0
452,-19.3610504115086
453,0.0
490,0.0
515,0.0
516,0.0
542,0.0
592,0.0
632,33000000.0
686,1.0
687,1.0
688,2.0
2,1, 1,21, 0, 1,30.00,40.00,WinterDesignDay
250,-17.038652466616863
251,33258891.428633705
336,0.0
385,18.685584144608143
386,28.33397792876063
387,-18.498316581033905
388,0.0
425,0.0
450,0.0
451,0.0
452,-19.361050613587217
453,0.0
490,0.0
515,0.0
516,0.0
542,0.0
592,0.0
632,33000000.0
686,1.0
687,1.0
688,2.0
2,1, 1,21, 0, 1,40.00,50.00,WinterDesignDay
250,-17.03865246673147
251,33258891.428632878
336,0.0
385,18.685584144608143
386,28.33397792876063
387,-18.498318011401057
388,0.0
425,0.0
450,0.0
451,0.0
452,-19.361050813030655
453,0.0
490,0.0
515,0.0
516,0.0
542,0.0
592,0.0
632,33000000.0
686,1.0
687,1.0
688,2.0
2,1, 1,21, 0, 1,50.00,60.00,WinterDesignDay
250,-17.03865246684456
251,33258891.428632062
336,0.0
385,18.685584144608143
386,28.33397792876063
387,-18.498319423119725
388,0.0
425,0.0
450,0.0
451,0.0
452,-19.36105100987328
453,0.0
490,0.0
515,0.0
516,0.0
542,0.0
592,0.0
632,33000000.0
686,1.0
687,1.0
688,2.0
2,1, 1,21, 0, 2, 0.00,10.00,WinterDesignDay
250,-17.038652466956144
251,33258891.428631254
336,0.0
385,18.685584144608143
386,28.33397792876063
387,-18.498320816433193
388,0.0
425,0.0
450,0.0
451,0.0
452,-19.361051204149007
453,0.0
490,0.0
515,0.0
516,0.0
542,0.0
592,0.0
632,33000000.0
686,1.0
687,1.0
688,2.0
2,1, 1,21, 0, 2,10.00,20.00,WinterDesignDay
250,-17.03865246706625
251,33258891.42863046
336,0.0
385,18.685584144608143
386,28.33397792876063
387,-18.49832219158137
388,0.0
425,0.0
450,0.0
451,0.0
452,-19.36105139589132
453,0.0
490,0.0
515,0.0
516,0.0
542,0.0
592,0.0
632,33000000.0
686,1.0
687,1.0
688,2.0
2,1, 1,21, 0, 2,20.00,30.00,WinterDesignDay
250,-17.038652467174895
251,33258891.428629678
336,0.0
385,18.685584144608143
386,28.33397792876063
387,-18.49832354880108
388,0.0
425,0.0
450,0.0
451,0.0
452,-19.361051585133257
453,0.0
490,0.0
515,0.0
516,0.0
542,0.0
592,0.0
632,33000000.0
686,1.0
687,1.0
688,2.0
2,1, 1,21, 0, 2,30.00,40.00,WinterDesignDay
250,-17.038652467282102
251,33258891.428628907
336,0.0
385,18.685584144608143
386,28.33397792876063
387,-18.49832488832587
388,0.0
425,0.0
450,0.0
451,0.0
452,-19.361051771907434
453,0.0
490,0.0
515,0.0
516,0.0
542,0.0
592,0.0
632,33000000.0
686,1.0
687,1.0
688,2.0
2,1, 1,21, 0, 2,40.00,50.00,WinterDesignDay
250,-17.03865246738788
251,33258891.428628143
336,0.0
385,18.685584144608143
386,28.33397792876063
387,-18.49832621038645
388,0.0
425,0.0
450,0.0
451,0.0
452,-19.36105195624603
453,0.0
490,0.0
515,0.0
516,0.0
542,0.0
592,0.0
632,33000000.0
686,1.0
687,1.0
688,2.0
2,1, 1,21, 0, 2,50.00,60.00,WinterDesignDay
250,-17.03865246749226
251,33258891.42862739
336,0.0
385,18.685584144608143
386,28.33397792876063
387,-18.49832751521066
388,0.0
425,0.0
450,0.0
451,0.0
452,-19.361052138180813
453,0.0
490,0.0
515,0.0
516,0.0
542,0.0
592,0.0
632,33000000.0
686,1.0
687,1.0
688,2.0
2,1, 1,21, 0, 3, 0.00,10.00,WinterDesignDay
250,-17.03865246759526
251,33258891.42862665
336,0.0
385,18.685584144608143
386,28.33397792876063
387,-18.49832880302344
388,0.0
425,0.0
450,0.0
451,0.0
452,-19.36105231774313
453,0.0
490,0.0
515,0.0
516,0.0
542,0.0
592,0.0
632,33000000.0
686,1.0
687,1.0
688,2.0
2,1, 1,21, 0, 3,10.00,20.00,WinterDesignDay
250,-17.03865246769689
251,33258891.42862592
336,0.0
385,18.685584144608143
386,28.33397792876063
387,-18.498330074046272
388,0.0
425,0.0
450,0.0
451,0.0
452,-19.36105249496393
453,0.0
490,0.0
515,0.0
516,0.0
542,0.0
592,0.0
632,33000000.0
686,1.0
687,1.0
688,2.0
2,1, 1,21, 0, 3,20.00,30.00,WinterDesignDay
250,-17.038652467797174
251,33258891.428625196
336,0.0
385,18.685584144608143
386,28.33397792876063
387,-18.498331328497805
388,0.0
425,0.0
450,0.0
451,0.0
452,-19.361052669873743
453,0.0
490,0.0
515,0.0
516,0.0
542,0.0
592,0.0
632,33000000.0
686,1.0
687,1.0
688,2.0
2,1, 1,21, 0, 3,30.00,40.00,WinterDesignDay
250,-17.03865246789613
251,33258891.428624485
336,0.0
385,18.685584144608143
386,28.33397792876063
387,-18.498332566594275
388,0.0
425,0.0
450,0.0
451,0.0
452,-19.361052842502716
453,0.0
490,0.0
515,0.0
516,0.0
542,0.0
592,0.0
632,33000000.0
686,1.0
687,1.0
688,2.0
2,1, 1,21, 0, 3,40.00,50.00,WinterDesignDay
250,-17.038652467993774
251,33258891.42862378
336,0.0
385,18.685584144608143
386,28.33397792876063
387,-18.498333788549214
388,0.0
425,0.0
450,0.0
451,0.0
452,-19.36105301288059
453,0.0
490,0.0
515,0.0
516,0.0
542,0.0
592,0.0
632,33000000.0
686,1.0
687,1.0
688,2.0
2,1, 1,21, 0, 3,50.00,60.00,WinterDesignDay
250,-17.038652468090124
251,33258891.428623088
336,0.0
385,18.685584144608143
386,28.33397792876063
387,-18.498334994572925
388,0.0
425,0.0
450,0.0
451,0.0
452,-19.361053181036716
453,0.0
490,0.0
515,0.0
516,0.0
542,0.0
592,0.0
632,33000000.0
686,1.0
687,1.0
688,2.0
2,1, 1,21, 0, 4, 0.00,10.00,WinterDesignDay
250,-17.038652468185195
251,33258891.4286224
336,0.0
385,18.685584144608143
386,28.33397792876063
387,-18.49833618487284
388,0.0
425,0.0
450,0.0
451,0.0
452,-19.361053347000084
453,0.0
490,0.0
515,0.0
516,0.0
542,0.0
592,0.0
632,33000000.0
686,1.0
687,1.0
688,2.0
2,1, 1,21, 0, 4,10.00,20.00,WinterDesignDay
250,-17.03865246827901
251,33258891.428621724
336,0.0
385,18.685584144608143
386,28.33397792876063
387,-18.498337359653952
388,0.0
425,0.0
450,0.0
451,0.0
452,-19.361053510799284
453,0.0
490,0.0
515,0.0
516,0.0
542,0.0
592,0.0
632,33000000.0
686,1.0
687,1.0
688,2.0
2,1, 1,21, 0, 4,20.00,30.00,WinterDesignDay
250,-17.038652468371584
251,33258891.42862106
336,0.0
385,18.685584144608143
386,28.33397792876063
387,-18.49833851911882
388,0.0
425,0.0
450,0.0
451,0.0
452,-19.361053672462536
453,0.0
490,0.0
515,0.0
516,0.0
542,0.0
592,0.0
632,33000000.0
686,1.0
687,1.0
688,2.0
2,1, 1,21, 0, 4,30.00,40.00,WinterDesignDay
250,-17.03865246846293
251,33258891.428620405
336,0.0
385,18.685584144608143
386,28.33397792876063
387,-18.498339663466993
388,0.0
425,0.0
450,0.0
451,0.0
452,-19.361053832017703
453,0.0
490,0.0
515,0.0
516,0.0
542,0.0
592,0.0
632,33000000.0
686,1.0
687,1.0
688,2.0
2,1, 1,21, 0, 4,40.00,50.00,WinterDesignDay
250,-17.03865246855307
251,33258891.42861976
336,0.0
385,18.685584144608143
386,28.33397792876063
387,-18.498340792895657
388,0.0
425,0.0
450,0.0
451,0.0
452,-19.361053989492277
453,0.0
490,0.0
515,0.0
516,0.0
542,0.0
592,0.0
632,33000000.0
686,1.0
687,1.0
688,2.0
2,1, 1,21, 0, 4,50.00,60.00,WinterDesignDay
250,-17.038652468642013
251,33258891.428619113
336,0.0
385,18.685584144608143
386,28.33397792876063
387,-18.498341907599354
388,0.0
425,0.0
450,0.0
451,0.0
452,-19.361054144913393
453,0.0
490,0.0
515,0.0
516,0.0
542,0.0
592,0.0
632,33000000.0
686,1.0
687,1.0
688,2.0
2,1, 1,21, 0, 5, 0.00,10.00,WinterDesignDay
250,-17.03865246872978
251,33258891.42861849
336,0.0
385,18.685584144608143
386,28.33397792876063
387,-18.498343007769943
388,0.0
425,0.0
450,0.0
451,0.0
452,-19.361054298307828
453,0.0
490,0.0
515,0.0
516,0.0
542,0.0
592,0.0
632,33000000.0
686,1.0
687,1.0
688,2.0
2,1, 1,21, 0, 5,10.00,20.00,WinterDesignDay
250,-17.038652468816384
251,33258891.428617865
336,0.0
385,18.685584144608143
386,28.33397792876063
387,-18.498344093596838
388,0.0
425,0.0
450,0.0
451,0.0
452,-19.36105444970201
453,0.0
490,0.0
515,0.0
516,0.0
542,0.0
592,0.0
632,33000000.0
686,1.0
687,1.0
688,2.0
2,1, 1,21, 0, 5,20.00,30.00,WinterDesignDay
250,-17.038652468901848
251,33258891.42861725
336,0.0
385,18.685584144608143
386,28.33397792876063
387,-18.498345165266983
388,0.0
425,0.0
450,0.0
451,0.0
452,-19.36105459912203
453,0.0
490,0.0
515,0.0
516,0.0
542,0.0
592,0.0
632,33000000.0
686,1.0
687,1.0
688,2.0
2,1, 1,21, 0, 5,30.00,40.00,WinterDesignDay
250,-17.038652468986175
251,33258891.42861664
336,0.0
385,18.685584144608143
386,28.33397792876063
387,-18.498346222965118
388,0.0
425,0.0
450,0.0
451,0.0
452,-19.361054746593634
453,0.0
490,0.0
515,0.0
516,0.0
542,0.0
592,0.0
632,33000000.0
686,1.0
687,1.0
688,2.0
2,1, 1,21, 0, 5,40.00,50.00,WinterDesignDay
250,-17.038652469069387
251,33258891.42861604
336,0.0
385,18.685584144608143
386,28.33397792876063
387,-18.498347266873353
388,0.0
425,0.0
450,0.0
451,0.0
452,-19.36105489214223
453,0.0
490,0.0
515,0.0
516,0.0
542,0.0
592,0.0
632,33000000.0
686,1.0
687,1.0
688,2.0
2,1, 1,21, 0, 5,50.00,60.00,WinterDesignDay
250,-17.0386524691515
251,33258891.42861545
336,0.0
385,18.685584144608143
386,28.33397792876063
387,-18.49834829717162
388,0.0
425,0.0
450,0.0
451,0.0
452,-19.361055035792898
453,0.0
490,0.0
515,0.0
516,0.0
542,0.0
592,0.0
632,33000000.0
686,1.0
687,1.0
688,2.0
2,1, 1,21, 0, 6, 0.00,10.00,WinterDesignDay
250,-17.03865246923253
251,33258891.42861487
336,0.0
385,18.685584144608143
386,28.33397792876063
387,-18.498349314037313
388,0.0
425,0.0
450,0.0
451,0.0
452,-19.361055177570385
453,0.0
490,0.0
515,0.0
516,0.0
542,0.0
592,0.0
632,33000000.0
686,1.0
687,1.0
688,2.0
2,1, 1,21, 0, 6,10.00,20.00,WinterDesignDay
250,-17.03865246931248
251,33258891.428614296
336,0.0
385,18.685584144608143
386,28.33397792876063
387,-18.498350317645286
388,0.0
425,0.0
450,0.0
451,0.0
452,-19.36105531749913
453,0.0
490,0.0
515,0.0
516,0.0
542,0.0
592,0.0
632,33000000.0
686,1.0
687,1.0
688,2.0
2,1, 1,21, 0, 6,20.00,30.00,WinterDesignDay
250,-17.03865246939138
251,33258891.42861373
336,0.0
385,18.685584144608143
386,28.33397792876063
387,-18.4983513081684
388,0.0
425,0.0
450,0.0
451,0.0
452,-19.361055455603232
453,0.0
490,0.0
515,0.0
516,0.0
542,0.0
592,0.0
632,33000000.0
686,1.0
687,1.0
688,2.0
2,1, 1,21, 0, 6,30.00,40.00,WinterDesignDay
250,-17.038652469469234
251,33258891.42861317
336,0.0
385,18.685584144608143
386,28.33397792876063
387,-18.49835228577756
388,0.0
425,0.0
450,0.0
451,0.0
452,-19.361055591906492
453,0.0
490,0.0
515,0.0
516,0.0
542,0.0
592,0.0
632,33000000.0
686,1.0
687,1.0
688,2.0
2,1, 1,21, 0, 6,40.00,50.00,WinterDesignDay
250,-17.03865246954606
251,33258891.42861262
336,0.0
385,18.685584144608143
386,28.33397792876063
387,-18.49835325064089
388,0.0
425,0.0
450,0.0
451,0.0
452,-19.361055726432394
453,0.0
490,0.0
515,0.0
516,0.0
542,0.0
592,0.0
632,33000000.0
686,1.0
687,1.0
688,2.0
2,1, 1,21, 0, 6,50.00,60.00,WinterDesignDay
250,-17.038652469621873
251,33258891.428612076
336,0.0
385,18.685584144608143
386,28.33397792876063
387,-18.498354202924585
388,0.0
425,0.0
450,0.0
451,0.0
452,-19.361055859204118
453,0.0
490,0.0
515,0.0
516,0.0
542,0.0
592,0.0
632,33000000.0
686,1.0
687,1.0
688,2.0
2,1, 1,21, 0, 7, 0.00,10.00,WinterDesignDay
250,-17.03865246969668
251,33258891.428611536
336,0.0
385,18.685584144608143
386,28.33397792876063
387,-18.498355142792633
388,0.0
425,0.0
450,0.0
451,0.0
452,-19.361055990244534
453,0.0
490,0.0
515,0.0
516,0.0
542,0.0
592,0.0
632,33000000.0
686,1.0
687,1.0
688,2.0
2,1, 1,21, 0, 7,10.00,20.00,WinterDesignDay
250,-17.038652469770504
251,33258891.428611007
336,0.0
385,18.685584144608143
386,28.33397792876063
387,-18.49835607040704
388,0.0
425,0.0
450,0.0
451,0.0
452,-19.36105611957622
453,0.0
490,0.0
515,0.0
516,0.0
542,0.0
592,0.0
632,33000000.0
686,1.0
687,1.0
688,2.0
2,1, 1,21, 0, 7,20.00,30.00,WinterDesignDay
250,-17.038652469843345
251,33258891.42861048
336,0.0
385,18.685584144608143
386,28.33397792876063
387,-18.49835698592749
388,0.0
425,0.0
450,0.0
451,0.0
452,-19.36105624722147
453,0.0
490,0.0
515,0.0
516,0.0
542,0.0
592,0.0
632,33000000.0
686,1.0
687,1.0
688,2.0
2,1, 1,21, 0, 7,30.00,40.00,WinterDesignDay
250,-17.038652469915235
251,33258891.42860997
336,0.0
385,18.685584144608143
386,28.33397792876063
387,-18.49835788951177
388,0.0
425,0.0
450,0.0
451,0.0
452,-19.36105637320227
453,0.0
490,0.0
515,0.0
516,0.0
542,0.0
592,0.0
632,33000000.0
686,1.0
687,1.0
688,2.0
2,1, 1,21, 0, 7,40.00,50.00,WinterDesignDay
250,-17.038652469986165
251,33258891.42860946
336,0.0
385,18.685584144608143
386,28.33397792876063
387,-18.49835878131522
388,0.0
425,0.0
450,0.0
451,0.0
452,-19.361056497540325
453,0.0
490,0.0
515,0.0
516,0.0
542,0.0
592,0.0
632,33000000.0
686,1.0
687,1.0
688,2.0
2,1, 1,21, 0, 7,50.00,60.00,WinterDesignDay
250,-17.03865247005616
251,33258891.428608954
336,0.0
385,18.685584144608143
386,28.33397792876063
387,-18.49835966149136
388,0.0
425,0.0
450,0.0
451,0.0
452,-19.361056620257063
453,0.0
490,0.0
515,0.0
516,0.0
542,0.0
592,0.0
632,33000000.0
686,1.0
687,1.0
688,2.0
2,1, 1,21, 0, 8, 0.00,10.00,WinterDesignDay
250,-17.038652470125232
251,33258891.428608462
336,0.0
385,18.685584144608143
386,28.33397792876063
387,-18.498360530192098
388,0.0
425,0.0
450,0.0
451,0.0
452,-19.36105674137362
453,0.0
490,0.0
515,0.0
516,0.0
542,0.0
592,0.0
632,33000000.0
686,1.0
687,1.0
688,2.0
2,1, 1,21, 0, 8,10.00,20.00,WinterDesignDay
250,-17.038652470193394
251,33258891.428607978
336,0.0
385,18.685584144608143
386,28.33397792876063
387,-18.498361387567073
388,0.0
425,0.0
450,0.0
451,0.0
452,-19.361056860910864
453,0.0
490,0.0
515,0.0
516,0.0
542,0.0
592,0.0
632,33000000.0
686,1.0
687,1.0
688,2.0
2,1, 1,21, 0, 8,20.00,30.00,WinterDesignDay
250,-17.038652470260654
251,33258891.42860749
336,0.0
385,18.685584144608143
386,28.33397792876063
387,-18.498362233763938
388,0.0
425,0.0
450,0.0
451,0.0
452,-19.361056978889394
453,0.0
490,0.0
515,0.0
516,0.0
542,0.0
592,0.0
632,33000000.0
686,1.0
687,1.0
688,2.0
2,1, 1,21, 0, 8,30.00,40.00,WinterDesignDay
250,-17.038652470327026
251,33258891.428607017
336,0.0
385,18.685584144608143
386,28.33397792876063
387,-18.498363068928356
388,0.0
425,0.0
450,0.0
451,0.0
452,-19.36105709532954
453,0.0
490,0.0
515,0.0
516,0.0
542,0.0
592,0.0
632,33000000.0
686,1.0
687,1.0
688,2.0
2,1, 1,21, 0, 8,40.00,50.00,WinterDesignDay
250,-17.038652470392517
251,33258891.428606536
336,0.0
385,18.685584144608143
386,28.33397792876063
387,-18.498363893204004
388,0.0
425,0.0
450,0.0
451,0.0
452,-19.361057210251357
453,0.0
490,0.0
515,0.0
516,0.0
542,0.0
592,0.0
632,33000000.0
686,1.0
687,1.0
688,2.0
2,1, 1,21, 0, 8,50.00,60.00,WinterDesignDay
250,-17.03865247045715
251,33258891.42860608
336,0.0
385,18.685584144608143
386,28.33397792876063
387,-18.49836470673297
388,0.0
425,0.0
450,0.0
451,0.0
452,-19.361057323674654
453,0.0
490,0.0
515,0.0
516,0.0
542,0.0
592,0.0
632,33000000.0
686,1.0
687,1.0
688,2.0
2,1, 1,21, 0, 9, 0.00,10.00,WinterDesignDay
250,-17.03865247052093
251,33258891.428605624
336,0.0
385,18.685584144608143
386,28.33397792876063
387,-18.498365509655294
388,0.0
425,0.0
450,0.0
451,0.0
452,-19.361057435618967
453,0.0
490,0.0
515,0.0
516,0.0
542,0.0
592,0.0
632,33000000.0
686,1.0
687,1.0
688,2.0
2,1, 1,21, 0, 9,10.00,20.00,WinterDesignDay
250,-17.03865247058387
251,33258891.428605173
336,0.0
385,18.685584144608143
386,28.33397792876063
387,-18.498366302109215
388,0.0
425,0.0
450,0.0
451,0.0
452,-19.361057546103584
453,0.0
490,0.0
515,0.0
516,0.0
542,0.0
592,0.0
632,33000000.0
686,1.0
687,1.0
688,2.0
2,1, 1,21, 0, 9,20.00,30.00,WinterDesignDay
250,-17.03865247064597
251,33258891.428604726
336,0.0
385,18.685584144608143
386,28.33397792876063
387,-18.498367084231297
388,0.0
425,0.0
450,0.0
451,0.0
452,-19.361057655147537
453,0.0
490,0.0
515,0.0
516,0.0
542,0.0
592,0.0
632,33000000.0
686,1.0
687,1.0
688,2.0
2,1, 1,21, 0, 9,30.00,40.00,WinterDesignDay
250,-17.038652470707262
251,33258891.428604294
336,0.0
385,18.685584144608143
386,28.33397792876063
387,-18.49836785615617
388,0.0
425,0.0
450,0.0
451,0.0
452,-19.36105776276962
453,0.0
490,0.0
515,0.0
516,0.0
542,0.0
592,0.0
632,33000000.0
686,1.0
687,1.0
688,2.0
2,1, 1,21, 0, 9,40.00,50.00,WinterDesignDay
250,-17.038652470767737
251,33258891.42860385
336,0.0
385,18.685584144608143
386,28.33397792876063
387,-18.49836861801686
388,0.0
425,0.0
450,0.0
451,0.0
452,-19.361057868988368
453,0.0
490,0.0
515,0.0
516,0.0
542,0.0
592,0.0
632,33000000.0
686,1.0
687,1.0
688,2.0
2,1, 1,21, 0, 9,50.00,60.00,WinterDesignDay
250,-17.03865247082742
251,33258891.428603426
336,0.0
385,18.685584144608143
386,28.33397792876063
387,-18.498369369944673
388,0.0
425,0.0
450,0.0
451,0.0
452,-19.36105797382208
453,0.0
490,0.0
515,0.0
516,0.0
542,0.0
592,0.0
632,33000000.0
686,1.0
687,1.0
688,2.0
2,1, 1,21, 0,10, 0.00,10.00,WinterDesignDay
250,-17.038652470886316
251,33258891.42860301
336,0.0
385,18.685584144608143
386,28.33397792876063
387,-18.49837011206907
388,0.0
425,0.0
450,0.0
451,0.0
452,-19.36105807728882
453,0.0
490,0.0
515,0.0
516,0.0
542,0.0
592,0.0
632,33000000.0
686,1.0
687,1.0
688,2.0
2,1, 1,21, 0,10,10.00,20.00,WinterDesignDay
250,-17.03865247094443
251,33258891.428602587
336,0.0
385,18.685584144608143
386,28.33397792876063
387,-18.498370844517723
388,0.0
425,0.0
450,0.0
451,0.0
452,-19.36105817940642
453,0.0
490,0.0
515,0.0
516,0.0
542,0.0
592,0.0
632,33000000.0
686,1.0
687,1.0
688,2.0
2,1, 1,21, 0,10,20.00,30.00,WinterDesignDay
250,-17.03865247100178
251,33258891.428602174
336,0.0
385,18.685584144608143
386,28.33397792876063
387,-18.498371567416953
388,0.0
425,0.0
450,0.0
451,0.0
452,-19.36105828019247
453,0.0
490,0.0
515,0.0
516,0.0
542,0.0
592,0.0
632,33000000.0
686,1.0
687,1.0
688,2.0
2,1, 1,21, 0,10,30.00,40.00,WinterDesignDay
250,-17.038652471058374
251,33258891.428601775
336,0.0
385,18.685584144608143
386,28.33397792876063
387,-18.498372280891147
388,0.0
425,0.0
450,0.0
451,0.0
452,-19.361058379664332
453,0.0
490,0.0
515,0.0
516,0.0
542,0.0
592,0.0
632,33000000.0
686,1.0
687,1.0
688,2.0
2,1, 1,21, 0,10,40.00,50.00,WinterDesignDay
250,-17.038652471114226
251,33258891.428601373
336,0.0
385,18.685584144608143
386,28.33397792876063
387,-18.498372985063188
388,0.0
425,0.0
450,0.0
451,0.0
452,-19.361058477839144
453,0.0
490,0.0
515,0.0
516,0.0
542,0.0
592,0.0
632,33000000.0
686,1.0
687,1.0
688,2.0
2,1, 1,21, 0,10,50.00,60.00,WinterDesignDay
250,-17.03865247116934
251,33258891.428600974
336,0.0
385,18.685584144608143
386,28.33397792876063
387,-18.498373680054364
388,0.0
425,0.0
450,0.0
451,0.0
452,-19.361058574733818
453,0.0
490,0.0
515,0.0
516,0.0
542,0.0
592,0.0
632,33000000.0
686,1.0
687,1.0
688,2.0
2,1, 1,21, 0,11, 0.00,10.00,WinterDesignDay
250,-17.03865247122372
251,33258891.428600587
336,0.0
385,18.685584144608143
386,28.33397792876063
387,-18.498374365984233
388,0.0
425,0.0
450,0.0
451,0.0
452,-19.36105867036505
453,0.0
490,0.0
515,0.0
516,0.0
542,0.0
592,0.0
632,33000000.0
686,1.0
687,1.0
688,2.0
2,1, 1,21, 0,11,10.00,20.00,WinterDesignDay
250,-17.03865247127739
251,33258891.428600203
336,0.0
385,18.685584144608143
386,28.33397792876063
387,-18.49837504297096
388,0.0
425,0.0
450,0.0
451,0.0
452,-19.36105876474932
453,0.0
490,0.0
515,0.0
516,0.0
542,0.0
592,0.0
632,33000000.0
686,1.0
687,1.0
688,2.0
2,1, 1,21, 0,11,20.00,30.00,WinterDesignDay
250,-17.03865247133035
251,33258891.428599823
336,0.0
385,18.685584144608143
386,28.33397792876063
387,-18.498375711131274
388,0.0
425,0.0
450,0.0
451,0.0
452,-19.361058857902883
453,0.0
490,0.0
515,0.0
516,0.0
542,0.0
592,0.0
632,33000000.0
686,1.0
687,1.0
688,2.0
2,1, 1,21, 0,11,30.00,40.00,WinterDesignDay
250,-17.03865247138262
251,33258891.428599454
336,0.0
385,18.685584144608143
386,28.33397792876063
387,-18.498376370580495
388,0.0
425,0.0
450,0.0
451,0.0
452,-19.361058949841784
453,0.0
490,0.0
515,0.0
516,0.0
542,0.0
592,0.0
632,33000000.0
686,1.0
687,1.0
688,2.0
2,1, 1,21, 0,11,40.00,50.00,WinterDesignDay
250,-17.03865247143419
251,33258891.428599082
336,0.0
385,18.685584144608143
386,28.33397792876063
387,-18.498377021432148
388,0.0
425,0.0
450,0.0
451,0.0
452,-19.361059040581864
453,0.0
490,0.0
515,0.0
516,0.0
542,0.0
592,0.0
632,33000000.0
686,1.0
687,1.0
688,2.0
2,1, 1,21, 0,11,50.00,60.00,WinterDesignDay
250,-17.038652471485086
251,33258891.428598717
336,0.0
385,18.685584144608143
386,28.33397792876063
387,-18.498377663798028
388,0.0
425,0.0
450,0.0
451,0.0
452,-19.36105913013876
453,0.0
490,0.0
515,0.0
516,0.0
542,0.0
592,0.0
632,33000000.0
686,1.0
687,1.0
688,2.0
2,1, 1,21, 0,12, 0.00,10.00,WinterDesignDay
250,-17.038652471535315
251,33258891.42859836
336,0.0
385,18.685584144608143
386,28.33397792876063
387,-18.49837829778849
388,0.0
425,0.0
450,0.0
451,0.0
452,-19.361059218527906
453,0.0
490,0.0
515,0.0
516,0.0
542,0.0
592,0.0
632,33000000.0
686,1.0
687,1.0
688,2.0
2,1, 1,21, 0,12,10.00,20.00,WinterDesignDay
250,-17.038652471584875
251,33258891.428598
336,0.0
385,18.685584144608143
386,28.33397792876063
387,-18.498378923513055
388,0.0
425,0.0
450,0.0
451,0.0
452,-19.361059305764527
453,0.0
490,0.0
515,0.0
516,0.0
542,0.0
592,0.0
632,33000000.0
686,1.0
687,1.0
688,2.0
2,1, 1,21, 0,12,20.00,30.00,WinterDesignDay
250,-17.038652471633792
251,33258891.42859766
336,0.0
385,18.685584144608143
386,28.33397792876063
387,-18.49837954107964
388,0.0
425,0.0
450,0.0
451,0.0
452,-19.361059391863648
453,0.0
490,0.0
515,0.0
516,0.0
542,0.0
592,0.0
632,33000000.0
686,1.0
687,1.0
688,2.0
2,1, 1,21, 0,12,30.00,40.00,WinterDesignDay
250,-17.038652471682056
251,33258891.428597305
336,0.0
385,18.685584144608143
386,28.33397792876063
387,-18.49838015059457
388,0.0
425,0.0
450,0.0
451,0.0
452,-19.3610594768401
453,0.0
490,0.0
515,0.0
516,0.0
542,0.0
592,0.0
632,33000000.0
686,1.0
687,1.0
688,2.0
2,1, 1,21, 0,12,40.00,50.00,WinterDesignDay
250,-17.038652471729687
251,33258891.428596966
336,0.0
385,18.685584144608143
386,28.33397792876063
387,-18.498380752162813
388,0.0
425,0.0
450,0.0
451,0.0
452,-19.361059560708526
453,0.0
490,0.0
515,0.0
516,0.0
542,0.0
592,0.0
632,33000000.0
686,1.0
687,1.0
688,2.0
2,1, 1,21, 0,12,50.00,60.00,WinterDesignDay
250,-17.03865247177669
251,33258891.428596627
336,0.0
385,18.685584144608143
386,28.33397792876063
387,-18.49838134588785
388,0.0
425,0.0
450,0.0
451,0.0
452,-19.361059643483372
453,0.0
490,0.0
515,0.0
516,0.0
542,0.0
592,0.0
632,33000000.0
686,1.0
687,1.0
688,2.0
2,1, 1,21, 0,13, 0.00,10.00,WinterDesignDay
250,-17.038652471823074
251,33258891.4285963
336,0.0
385,18.685584144608143
386,28.33397792876063
387,-18.498381931871805
388,0.0
425,0.0
450,0.0
451,0.0
452,-19.361059725178905
453,0.0
490,0.0
515,0.0
516,0.0
542,0.0
592,0.0
632,33000000.0
686,1.0
687,1.0
688,2.0
2,1, 1,21, 0,13,10.00,20.00,WinterDesignDay
250,-17.038652471868847
251,33258891.428595968
336,0.0
385,18.685584144608143
386,28.33397792876063
387,-18.498382510215695
388,0.0
425,0.0
450,0.0
451,0.0
452,-19.3610598058092
453,0.0
490,0.0
515,0.0
516,0.0
542,0.0
592,0.0
632,33000000.0
686,1.0
687,1.0
688,2.0
2,1, 1,21, 0,13,20.00,30.00,WinterDesignDay
250,-17.038652471914023
251,33258891.428595647
336,0.0
385,18.685584144608143
386,28.33397792876063
387,-18.498383081019444
388,0.0
425,0.0
450,0.0
451,0.0
452,-19.361059885388144
453,0.0
490,0.0
515,0.0
516,0.0
542,0.0
592,0.0
632,33000000.0
686,1.0
687,1.0
688,2.0
2,1, 1,21, 0,13,30.00,40.00,WinterDesignDay
250,-17.0386524719586
251,33258891.428595327
336,0.0
385,18.685584144608143
386,28.33397792876063
387,-18.498383644381185
388,0.0
425,0.0
450,0.0
451,0.0
452,-19.361059963929442
453,0.0
490,0.0
515,0.0
516,0.0
542,0.0
592,0.0
632,33000000.0
686,1.0
687,1.0
688,2.0
2,1, 1,21, 0,13,40.00,50.00,WinterDesignDay
250,-17.03865247200259
251,33258891.428595018
336,0.0
385,18.685584144608143
386,28.33397792876063
387,-18.498384200397844
388,0.0
425,0.0
450,0.0
451,0.0
452,-19.361060041446628
453,0.0
490,0.0
515,0.0
516,0.0
542,0.0
592,0.0
632,33000000.0
686,1.0
687,1.0
688,2.0
2,1, 1,21, 0,13,50.00,60.00,WinterDesignDay
250,-17.038652472046
251,33258891.4285947
336,0.0
385,18.685584144608143
386,28.33397792876063
387,-18.498384749165222
388,0.0
425,0.0
450,0.0
451,0.0
452,-19.361060117953055
453,0.0
490,0.0
515,0.0
516,0.0
542,0.0
592,0.0
632,33000000.0
686,1.0
687,1.0
688,2.0
2,1, 1,21, 0,14, 0.00,10.00,WinterDesignDay
250,-17.03865247208884
251,33258891.428594396
336,0.0
385,18.685584144608143
386,28.33397792876063
387,-18.49838529077783
388,0.0
425,0.0
450,0.0
451,0.0
452,-19.36106019346191
453,0.0
490,0.0
515,0.0
516,0.0
542,0.0
592,0.0
632,33000000.0
686,1.0
687,1.0
688,2.0
2,1, 1,21, 0,14,10.00,20.00,WinterDesignDay
250,-17.03865247213112
251,33258891.428594097
336,0.0
385,18.685584144608143
386,28.33397792876063
387,-18.49838582532894
388,0.0
425,0.0
450,0.0
451,0.0
452,-19.361060267986193
453,0.0
490,0.0
515,0.0
516,0.0
542,0.0
592,0.0
632,33000000.0
686,1.0
687,1.0
688,2.0
2,1, 1,21, 0,14,20.00,30.00,WinterDesignDay
250,-17.03865247217284
251,33258891.4285938
336,0.0
385,18.685584144608143
386,28.33397792876063
387,-18.4983863529107
388,0.0
425,0.0
450,0.0
451,0.0
452,-19.36106034153875
453,0.0
490,0.0
515,0.0
516,0.0
542,0.0
592,0.0
632,33000000.0
686,1.0
687,1.0
688,2.0
2,1, 1,21, 0,14,30.00,40.00,WinterDesignDay
250,-17.03865247221401
251,33258891.428593505
336,0.0
385,18.685584144608143
386,28.33397792876063
387,-18.49838687361396
388,0.0
425,0.0
450,0.0
451,0.0
452,-19.36106041413225
453,0.0
490,0.0
515,0.0
516,0.0
542,0.0
592,0.0
632,33000000.0
686,1.0
687,1.0
688,2.0
2,1, 1,21, 0,14,40.00,50.00,WinterDesignDay
250,-17.03865247225464
251,33258891.42859322
336,0.0
385,18.685584144608143
386,28.33397792876063
387,-18.49838738752811
388,0.0
425,0.0
450,0.0
451,0.0
452,-19.3610604857792
453,0.0
490,0.0
515,0.0
516,0.0
542,0.0
592,0.0
632,33000000.0
686,1.0
687,1.0
688,2.0
2,1, 1,21, 0,14,50.00,60.00,WinterDesignDay
250,-17.038652472294732
251,33258891.428592928
336,0.0
385,18.685584144608143
386,28.33397792876063
387,-18.498387894741878
388,0.0
425,0.0
450,0.0
451,0.0
452,-19.36106055649194
453,0.0
490,0.0
515,0.0
516,0.0
542,0.0
592,0.0
632,33000000.0
686,1.0
687,1.0
688,2.0
2,1, 1,21, 0,15, 0.00,10.00,WinterDesignDay
250,-17.038652472334302
251,33258891.42859264
336,0.0
385,18.685584144608143
386,28.33397792876063
387,-18.498388395342612
388,0.0
425,0.0
450,0.0
451,0.0
452,-19.361060626282647
453,0.0
490,0.0
515,0.0
516,0.0
542,0.0
592,0.0
632,33000000.0
686,1.0
687,1.0
688,2.0
2,1, 1,21, 0,15,10.00,20.00,WinterDesignDay
250,-17.038652472373354
251,33258891.428592365
336,0.0
385,18.685584144608143
386,28.33397792876063
387,-18.49838888941671
388,0.0
425,0.0
450,0.0
451,0.0
452,-19.361060695163353
453,0.0
490,0.0
515,0.0
516,0.0
542,0.0
592,0.0
632,33000000.0
686,1.0
687,1.0
688,2.0
2,1, 1,21, 0,15,20.00,30.00,WinterDesignDay
250,-17.038652472411886
251,33258891.42859209
336,0.0
385,18.685584144608143
386,28.33397792876063
387,-18.49838937704922
388,0.0
425,0.0
450,0.0
451,0.0
452,-19.36106076314592
453,0.0
490,0.0
515,0.0
516,0.0
542,0.0
592,0.0
632,33000000.0
686,1.0
687,1.0
688,2.0
2,1, 1,21, 0,15,30.00,40.00,WinterDesignDay
250,-17.038652472449915
251,33258891.428591818
336,0.0
385,18.685584144608143
386,28.33397792876063
387,-18.49838985832407
388,0.0
425,0.0
450,0.0
451,0.0
452,-19.36106083024206
453,0.0
490,0.0
515,0.0
516,0.0
542,0.0
592,0.0
632,33000000.0
686,1.0
687,1.0
688,2.0
2,1, 1,21, 0,15,40.00,50.00,WinterDesignDay
250,-17.038652472487442
251,33258891.42859155
336,0.0
385,18.685584144608143
386,28.33397792876063
387,-18.49839033332403
388,0.0
425,0.0
450,0.0
451,0.0
452,-19.361060896463332
453,0.0
490,0.0
515,0.0
516,0.0
542,0.0
592,0.0
632,33000000.0
686,1.0
687,1.0
688,2.0