Program Version,EnergyPlus, Version 24.2.0-94a887817b, YMD=2025.02.04 15:40
1,5,Environment Title[],Latitude[deg],Longitude[deg],Time Zone[],Elevation[m]
2,8,Day of Simulation[],Month[],Day of Month[],DST Indicator[1=yes 0=no],Hour[],StartMinute[],EndMinute[],DayType
3,5,Cumulative Day of Simulation[],Month[],Day of Month[],DST Indicator[1=yes 0=no],DayType  ! When Daily Meters Requested
4,2,Cumulative Days of Simulation[],Month[]  ! When Monthly Meters Requested
5,1,Cumulative Days of Simulation[] ! When Run Period Meters Requested
6,1,Calendar Year of Simulation[] ! When Annual Meters Requested
11,9,Electricity:Facility [J] !Monthly [Value,Min,Day,Hour,Minute,Max,Day,Hour,Minute]
23,9,Electricity:Building [J] !Monthly [Value,Min,Day,Hour,Minute,Max,Day,Hour,Minute]
59,9,InteriorLights:Electricity [J] !Monthly [Value,Min,Day,Hour,Minute,Max,Day,Hour,Minute]
521,9,Electricity:HVAC [J] !Monthly [Value,Min,Day,Hour,Minute,Max,Day,Hour,Minute]
637,9,NaturalGas:Facility [J] !Monthly [Value,Min,Day,Hour,Minute,Max,Day,Hour,Minute]
649,9,NaturalGas:HVAC [J] !Monthly [Value,Min,Day,Hour,Minute,Max,Day,Hour,Minute]
13,11,Electricity:Facility [J] !RunPeriod [Value,Min,Month,Day,Hour,Minute,Max,Month,Day,Hour,Minute]
25,11,Electricity:Building [J] !RunPeriod [Value,Min,Month,Day,Hour,Minute,Max,Month,Day,Hour,Minute]
61,11,InteriorLights:Electricity [J] !RunPeriod [Value,Min,Month,Day,Hour,Minute,Max,Month,Day,Hour,Minute]
523,11,Electricity:HVAC [J] !RunPeriod [Value,Min,Month,Day,Hour,Minute,Max,Month,Day,Hour,Minute]
639,11,NaturalGas:Facility [J] !RunPeriod [Value,Min,Month,Day,Hour,Minute,Max,Month,Day,Hour,Minute]
651,11,NaturalGas:HVAC [J] !RunPeriod [Value,Min,Month,Day,Hour,Minute,Max,Month,Day,Hour,Minute]
End of Data Dictionary
1,RUN PERIOD 1,  41.98, -87.92,  -6.00, 201.00
4,31, 1
11,9811265142.657513,408891.4285714286, 5, 6,50,2970933.414728167,16,13,60
23,972215041.4265264,30000.0, 1, 1,10,601460.1749467427, 1, 9,10
59,970200000.0,30000.0, 1, 1,10,600000.0, 1, 8,10
521,8839050101.230986,378891.4285714286, 5, 6,50,2369473.239781425,16,13,60
637,177366926461.04474,27493548.43056306,21,16,10,41250000.0, 1, 1,20
649,177366926461.04474,27493548.43056306,21,16,10,41250000.0, 1, 1,20
4,59, 2
11,9346288330.999973,99999999999999.0, 5, 6,50,3012394.85499129,22,15,30
23,849912209.9361056,99999999999999.0, 1, 1,10,-99999999999999.0, 1, 9,10
59,848160000.0,99999999999999.0, 1, 1,10,-99999999999999.0, 1, 8,10
521,8496376121.063895,99999999999999.0, 5, 6,50,2410934.680044547,22,15,30
637,156340107042.94012,25830750.7065842,23,12,10,-99999999999999.0, 1, 1,20
649,156340107042.94012,25830750.7065842,23,12,10,-99999999999999.0, 1, 1,20
4,90, 3
11,10823562983.738646,301460.1749467427,26,18,10,3094750.285652835,26,14,40
23,899669590.2851943,99999999999999.0, 1, 1,10,682449.266071686,26,14,40
59,897480000.0,99999999999999.0, 1, 1,10,-99999999999999.0, 1, 8,10
521,9923893393.453463,0.0,19,16,50,2412487.1147156483, 9,11,60
637,157686010834.61606,0.0,19,16,50,-99999999999999.0, 1, 1,20
649,157686010834.61606,0.0,19,16,50,-99999999999999.0, 1, 1,20
4,120, 4
11,8993058889.73345,30000.0,11,19,10,-99999999999999.0,26,14,40
23,932087623.2668347,99999999999999.0, 1, 1,10,-99999999999999.0,26,14,40
59,929520000.0,99999999999999.0, 1, 1,10,-99999999999999.0, 1, 8,10
521,8060971266.466671,99999999999999.0,19,16,50,2413519.0365437996,10,15,10
637,113433241249.00371,99999999999999.0,19,16,50,-99999999999999.0, 1, 1,20
649,113433241249.00371,99999999999999.0,19,16,50,-99999999999999.0, 1, 1,20
4,151, 5
11,7538736990.290005,99999999999999.0,11,19,10,-99999999999999.0,26,14,40
23,973987503.9685712,99999999999999.0, 1, 1,10,-99999999999999.0,26,14,40
59,970200000.0,99999999999999.0, 1, 1,10,-99999999999999.0, 1, 8,10
521,6564749486.321424,99999999999999.0,19,16,50,2432814.0650110207,10,11,30
637,78490136097.04987,99999999999999.0,19,16,50,-99999999999999.0, 1, 1,20
649,78490136097.04987,99999999999999.0,19,16,50,-99999999999999.0, 1, 1,20
4,181, 6
11,4583230127.149489,99999999999999.0,11,19,10,-99999999999999.0,26,14,40
23,860726066.397118,99999999999999.0, 1, 1,10,-99999999999999.0,26,14,40
59,856800000.0,99999999999999.0, 1, 1,10,-99999999999999.0, 1, 8,10
521,3722504060.752352,99999999999999.0,19,16,50,-99999999999999.0,10,11,30
637,25320827309.179634,99999999999999.0,19,16,50,-99999999999999.0, 1, 1,20
649,25320827309.179634,99999999999999.0,19,16,50,-99999999999999.0, 1, 1,20
4,212, 7
11,4354833475.996091,99999999999999.0,11,19,10,-99999999999999.0,26,14,40
23,972903927.7904543,99999999999999.0, 1, 1,10,-99999999999999.0,26,14,40
59,970200000.0,99999999999999.0, 1, 1,10,-99999999999999.0, 1, 8,10
521,3381929548.205631,99999999999999.0,19,16,50,-99999999999999.0,10,11,30
637,4463642163.1081085,99999999999999.0,19,16,50,-99999999999999.0, 1, 1,20
649,4463642163.1081085,99999999999999.0,19,16,50,-99999999999999.0, 1, 1,20
4,243, 8
11,3070170207.00259,99999999999999.0,11,19,10,-99999999999999.0,26,14,40
23,936348762.419713,99999999999999.0, 1, 1,10,-99999999999999.0,26,14,40
59,933840000.0,99999999999999.0, 1, 1,10,-99999999999999.0, 1, 8,10
521,2133821444.5828638,99999999999999.0,19,16,50,-99999999999999.0,10,11,30
637,9898863575.331326,99999999999999.0,19,16,50,-99999999999999.0, 1, 1,20
649,9898863575.331326,99999999999999.0,19,16,50,-99999999999999.0, 1, 1,20
4,273, 9
11,4687496934.8244095,99999999999999.0,11,19,10,-99999999999999.0,26,14,40
23,896547194.088556,99999999999999.0, 1, 1,10,-99999999999999.0,26,14,40
59,893160000.0,99999999999999.0, 1, 1,10,-99999999999999.0, 1, 8,10
521,3790949740.7358403,99999999999999.0,19,16,50,-99999999999999.0,10,11,30
637,41331497501.500145,99999999999999.0,19,16,50,-99999999999999.0, 1, 1,20
649,41331497501.500145,99999999999999.0,19,16,50,-99999999999999.0, 1, 1,20
4,304,10
11,9860111161.472029,99999999999999.0,11,19,10,-99999999999999.0,26,14,40
23,974338237.3130522,99999999999999.0, 1, 1,10,-99999999999999.0,26,14,40
59,970200000.0,99999999999999.0, 1, 1,10,-99999999999999.0, 1, 8,10
521,8885772924.159042,99999999999999.0,19,16,50,-99999999999999.0,10,11,30
637,118688266437.54845,99999999999999.0,19,16,50,-99999999999999.0, 1, 1,20
649,118688266437.54845,99999999999999.0,19,16,50,-99999999999999.0, 1, 1,20
4,334,11
11,9961016564.470348,99999999999999.0,11,19,10,-99999999999999.0,26,14,40
23,895521654.0556158,99999999999999.0, 1, 1,10,-99999999999999.0,26,14,40
59,893160000.0,99999999999999.0, 1, 1,10,-99999999999999.0, 1, 8,10
521,9065494910.414768,99999999999999.0,19,16,50,-99999999999999.0,10,11,30
637,140222663164.12906,99999999999999.0,19,16,50,-99999999999999.0, 1, 1,20
649,140222663164.12906,99999999999999.0,19,16,50,-99999999999999.0, 1, 1,20
4,365,12
11,10424718051.313515,99999999999999.0,11,19,10,-99999999999999.0,26,14,40
23,935767430.9297196,99999999999999.0, 1, 1,10,-99999999999999.0,26,14,40
59,933840000.0,99999999999999.0, 1, 1,10,-99999999999999.0, 1, 8,10
521,9488950620.383821,99999999999999.0,19,16,50,-99999999999999.0,10,11,30
637,178051736681.51895,99999999999999.0,19,16,50,-99999999999999.0, 1, 1,20
649,178051736681.51895,99999999999999.0,19,16,50,-99999999999999.0, 1, 1,20
5,365
13,93454488859.66122,30000.0, 4,11,19,10,3094750.285652835, 3,26,14,40
25,11100025241.8745,30000.0, 1, 1, 1,10,682449.266071686, 3,26,14,40
61,11066760000.0,30000.0, 1, 1, 1,10,600000.0, 1, 1, 8,10
523,82354463617.77425,0.0, 3,19,16,50,2432814.0650110207, 5,10,11,30
639,1201293918516.9617,0.0, 3,19,16,50,41250000.0, 1, 1, 1,20
651,1201293918516.9617,0.0, 3,19,16,50,41250000.0, 1, 1, 1,20
1,RUN PERIOD 2,  41.98, -87.92,  -6.00, 201.00
4,1, 7
11,94385894.42239225,99999999999999.0,11,19,10,-99999999999999.0,26,14,40
23,40767610.49680456,99999999999999.0, 1, 1,10,-99999999999999.0,26,14,40
59,40680000.0,99999999999999.0, 1, 1,10,-99999999999999.0, 1, 8,10
521,53618283.92558773,99999999999999.0,19,16,50,-99999999999999.0,10,11,30
637,0.0,99999999999999.0,19,16,50,-99999999999999.0, 1, 1,20
649,0.0,99999999999999.0,19,16,50,-99999999999999.0, 1, 1,20
5,1
13,94385894.42239225,99999999999999.0, 4,11,19,10,-99999999999999.0, 3,26,14,40
25,40767610.49680456,99999999999999.0, 1, 1, 1,10,-99999999999999.0, 3,26,14,40
61,40680000.0,99999999999999.0, 1, 1, 1,10,-99999999999999.0, 1, 1, 8,10
523,53618283.92558773,99999999999999.0, 3,19,16,50,-99999999999999.0, 5,10,11,30
639,0.0,99999999999999.0, 3,19,16,50,-99999999999999.0, 1, 1, 1,20
651,0.0,99999999999999.0, 3,19,16,50,-99999999999999.0, 1, 1, 1,20
End of Data
 Number of Records Written=          90
