Program Version,EnergyPlus, Version 24.2.0-94a887817b, YMD=2025.01.30 20:34
1,5,Environment Title[],Latitude[deg],Longitude[deg],Time Zone[],Elevation[m]
2,8,Day of Simulation[],Month[],Day of Month[],DST Indicator[1=yes 0=no],Hour[],StartMinute[],EndMinute[],DayType
3,5,Cumulative Day of Simulation[],Month[],Day of Month[],DST Indicator[1=yes 0=no],DayType  ! When Daily Report Variables Requested
4,2,Cumulative Days of Simulation[],Month[]  ! When Monthly Report Variables Requested
5,1,Cumulative Days of Simulation[] ! When Run Period Report Variables Requested
6,1,Calendar Year of Simulation[] ! When Annual Report Variables Requested
250,1,LIVING ZONE,Zone Air Temperature [C] !TimeStep,REPORTSCH
251,1,LIVING ZONE,Zone Air System Sensible Heating Energy [J] !TimeStep,REPORTSCH
336,1,LIVING ZONE,Zone Air System Sensible Cooling Energy [J] !TimeStep,REPORTSCH
385,1,LIVING ZONE,Zone Thermostat Heating Setpoint Temperature [C] !TimeStep,REPORTSCH
386,1,LIVING ZONE,Zone Thermostat Cooling Setpoint Temperature [C] !TimeStep,REPORTSCH
387,1,GARAGE ZONE,Zone Air Temperature [C] !TimeStep,REPORTSCH
388,1,GARAGE ZONE,Zone Air System Sensible Heating Energy [J] !TimeStep,REPORTSCH
425,1,GARAGE ZONE,Zone Air System Sensible Cooling Energy [J] !TimeStep,REPORTSCH
450,1,GARAGE ZONE,Zone Thermostat Heating Setpoint Temperature [C] !TimeStep,REPORTSCH
451,1,GARAGE ZONE,Zone Thermostat Cooling Setpoint Temperature [C] !TimeStep,REPORTSCH
452,1,ATTIC ZONE,Zone Air Temperature [C] !TimeStep,REPORTSCH
453,1,ATTIC ZONE,Zone Air System Sensible Heating Energy [J] !TimeStep,REPORTSCH
490,1,ATTIC ZONE,Zone Air System Sensible Cooling Energy [J] !TimeStep,REPORTSCH
515,1,ATTIC ZONE,Zone Thermostat Heating Setpoint Temperature [C] !TimeStep,REPORTSCH
516,1,ATTIC ZONE,Zone Thermostat Cooling Setpoint Temperature [C] !TimeStep,REPORTSCH
542,1,ACDXCOIL 1,Cooling Coil Total Cooling Energy [J] !TimeStep,REPORTSCH
592,1,HEAT PUMP DX HEATING COIL 1,Heating Coil Heating Energy [J] !TimeStep,REPORTSCH
632,1,SUPP HEATING COIL 1,Heating Coil Heating Energy [J] !TimeStep,REPORTSCH
686,1,TWOSPEED HEAT PUMP 1,Unitary System DX Coil Cycling Ratio [] !TimeStep,REPORTSCH
687,1,TWOSPEED HEAT PUMP 1,Unitary System DX Coil Speed Ratio [] !TimeStep,REPORTSCH
688,1,TWOSPEED HEAT PUMP 1,Unitary System DX Coil Speed Level [] !TimeStep,REPORTSCH
End of Data Dictionary
1,RUN PERIOD 1,  41.98, -87.92,  -6.00, 201.00
2,21, 1,21, 0, 1, 0.00,10.00,Monday
250,21.09024886669442
251,5044525.536098717
336,0.0
385,20.816666666666663
386,41.81
387,-0.42930769844289884
388,0.0
425,0.0
450,0.0
451,0.0
452,-1.4037737918600945
453,0.0
490,0.0
515,0.0
516,0.0
542,0.0
592,2257504.877339428
632,2699427.759208777
686,0.5100016365410962
687,0.33641961359582917
688,1.1666666666666667
2,21, 1,21, 0, 1,10.00,20.00,Monday
250,22.04439370501953
251,7123666.202897234
336,0.0
385,22.15
386,41.81
387,-0.43769309358604624
388,0.0
425,0.0
450,0.0
451,0.0
452,-1.3884100742790586
453,0.0
490,0.0
515,0.0
516,0.0
542,0.0
592,4854073.24078419
632,2287666.8543053595
686,1.0
687,1.0
688,2.0
2,21, 1,21, 0, 1,20.00,30.00,Monday
250,22.14280504112984
251,6349796.817488867
336,0.0
385,22.15
386,41.81
387,-0.4483575950168378
388,0.0
425,0.0
450,0.0
451,0.0
452,-1.38400578566215
453,0.0
490,0.0
515,0.0
516,0.0
542,0.0
592,4838980.74381737
632,1264595.1947947277
686,1.0
687,1.0
688,2.0
2,21, 1,21, 0, 1,30.00,40.00,Monday
250,21.095959858066337
251,4924815.17433711
336,0.0
385,20.81666666666665
386,41.809999999999974
387,-0.45806224373556265
388,0.0
425,0.0
450,0.0
451,0.0
452,-1.3953248828687634
453,0.0
490,0.0
515,0.0
516,0.0
542,0.0
592,2174857.5698282514
632,2666781.619451053
686,0.49404727645747626
687,0.33333333333333287
688,0.9999999999999989
2,21, 1,21, 0, 1,40.00,50.00,Monday
250,22.044819682936613
251,7003068.686175277
336,0.0
385,22.15
386,41.81
387,-0.4694520326449543
388,0.0
425,0.0
450,0.0
451,0.0
452,-1.4180909977155967
453,0.0
490,0.0
515,0.0
516,0.0
542,0.0
592,4805949.009659398
632,2213723.1459832997
686,1.0
687,1.0
688,2.0
2,21, 1,21, 0, 1,50.00,60.00,Monday
250,22.142811314405606
251,6232481.230077266
336,0.0
385,22.15
386,41.81
387,-0.4842464333935203
388,0.0
425,0.0
450,0.0
451,0.0
452,-1.4564500557412425
453,0.0
490,0.0
515,0.0
516,0.0
542,0.0
592,4790833.313218326
632,1195382.1650699105
686,1.0
687,1.0
688,2.0
2,21, 1,21, 0, 2, 0.00,10.00,Monday
250,21.098558229778195
251,4870365.047060303
336,0.0
385,20.816666666666663
386,41.81
387,-0.4970573272634316
388,0.0
425,0.0
450,0.0
451,0.0
452,-1.4935106326730407
453,0.0
490,0.0
515,0.0
516,0.0
542,0.0
592,2133865.1753426683
632,2655353.351930532
686,0.48649300519303584
687,0.33333333333333326
688,1.0
2,21, 1,21, 0, 2,10.00,20.00,Monday
250,22.04514656867112
251,7017885.868602933
336,0.0
385,22.15
386,41.81
387,-0.5110273120268625
388,0.0
425,0.0
450,0.0
451,0.0
452,-1.5290524702456465
453,0.0
490,0.0
515,0.0
516,0.0
542,0.0
592,4789906.326137368
632,2243950.858849453
686,1.0
687,1.0
688,2.0
2,21, 1,21, 0, 2,20.00,30.00,Monday
250,22.142848530500753
251,6319382.464106008
336,0.0
385,22.15
386,41.81
387,-0.5275403433014129
388,0.0
425,0.0
450,0.0
451,0.0
452,-1.5617545327810989
453,0.0
490,0.0
515,0.0
516,0.0
542,0.0
592,4790833.316152007
632,1282245.6926424084
686,1.0
687,1.0
688,2.0
2,21, 1,21, 0, 2,30.00,40.00,Monday
250,21.094655280729317
251,4954255.225414334
336,0.0
385,20.81666666666665
386,41.809999999999974
387,-0.5403769439613317
388,0.0
425,0.0
450,0.0
451,0.0
452,-1.5778357213040728
453,0.0
490,0.0
515,0.0
516,0.0
542,0.0
592,2180477.401490887
632,2688643.4030607543
686,0.4997692383571344
687,0.33333333333333287
688,0.9999999999999989
2,21, 1,21, 0, 2,40.00,50.00,Monday
250,22.044942331324886
251,7104774.324170981
336,0.0
385,22.15
386,41.81
387,-0.5534904485925878
388,0.0
425,0.0
450,0.0
451,0.0
452,-1.5888315876666177
453,0.0
490,0.0
515,0.0
516,0.0
542,0.0
592,4789899.3132014815
632,2331917.3807727178
686,1.0
687,1.0
688,2.0
2,21, 1,21, 0, 2,50.00,60.00,Monday
250,22.142855695296838
251,6401115.416823494
336,0.0
385,22.15
386,41.81
387,-0.5681829014786827
388,0.0
425,0.0
450,0.0
451,0.0
452,-1.5956526429144466
453,0.0
490,0.0
515,0.0
516,0.0
542,0.0
592,4790833.312923059
632,1363993.9026818578
686,1.0
687,1.0
688,2.0
2,21, 1,21, 0, 3, 0.00,10.00,Monday
250,21.091438995472757
251,5022016.059541717
336,0.0
385,20.816666666666663
386,41.81
387,-0.5682806784492264
388,0.0
425,0.0
450,0.0
451,0.0
452,-1.5882269283228536
453,0.0
490,0.0
515,0.0
516,0.0
542,0.0
592,2219465.0840131855
632,2714560.3346351082
686,0.5091679054804146
687,0.33672762779961185
688,1.1666666666666667
2,21, 1,21, 0, 3,10.00,20.00,Monday
250,22.04477967942247
251,7160710.05178801
336,0.0
385,22.15
386,41.81
387,-0.5602999896839739
388,0.0
425,0.0
450,0.0
451,0.0
452,-1.5654318651285135
453,0.0
490,0.0
515,0.0
516,0.0
542,0.0
592,4796376.508374501
632,2382255.944159772
686,1.0
687,1.0
688,2.0
2,21, 1,21, 0, 3,20.00,30.00,Monday
250,22.142862499628187
251,6437328.738102721
336,0.0
385,22.15
386,41.81
387,-0.543900330046935
388,0.0
425,0.0
450,0.0
451,0.0
452,-1.5216606007979734
453,0.0
490,0.0
515,0.0
516,0.0
542,0.0
592,4800771.148055175
632,1390281.0555516297
686,1.0
687,1.0
688,2.0
2,21, 1,21, 0, 3,30.00,40.00,Monday
250,21.08968013164763
251,5056147.846646896
336,0.0
385,20.81666666666665
386,41.809999999999974
387,-0.5258689654876424
388,0.0
425,0.0
450,0.0
451,0.0
452,-1.471394135466702
453,0.0
490,0.0
515,0.0
516,0.0
542,0.0
592,2242273.3879850763
632,2725144.4806676363
686,0.5111755353490889
687,0.3454061957056201
688,1.1666666666666659
2,21, 1,21, 0, 3,40.00,50.00,Monday
250,22.04473439399726
251,7196295.280796537
336,0.0
385,22.15
386,41.81
387,-0.5035236539867418
388,0.0
425,0.0
450,0.0
451,0.0
452,-1.4079148881711503
453,0.0
490,0.0
515,0.0
516,0.0
542,0.0
592,4805248.98735524
632,2409468.4151372416
686,1.0
687,1.0
688,2.0
2,21, 1,21, 0, 3,50.00,60.00,Monday
250,22.142874803501353
251,6467791.800007597
336,0.0
385,22.15
386,41.81
387,-0.4740163735565642
388,0.0
425,0.0
450,0.0
451,0.0
452,-1.3248255347408093
453,0.0
490,0.0
515,0.0
516,0.0
542,0.0
592,4809683.229871497
632,1411831.8416094
686,1.0
687,1.0
688,2.0
2,21, 1,21, 0, 4, 0.00,10.00,Monday
250,21.08806007541312
251,5087299.063311614
336,0.0
385,20.816666666666663
386,41.81
387,-0.45890713879625417
388,0.0
425,0.0
450,0.0
451,0.0
452,-1.261056762921827
453,0.0
490,0.0
515,0.0
516,0.0
542,0.0
592,2262296.5304659014
632,2735542.512368804
686,0.513018008783524
687,0.3538535331224093
688,1.1666666666666667
2,21, 1,21, 0, 4,10.00,20.00,Monday
250,22.044645323151023
251,7231034.325926313
336,0.0
385,22.15
386,41.81
387,-0.4483378342597837
388,0.0
425,0.0
450,0.0
451,0.0
452,-1.2016811222320083
453,0.0
490,0.0
515,0.0
516,0.0
542,0.0
592,4807624.462978701
632,2442290.698687117
686,1.0
687,1.0
688,2.0
2,21, 1,21, 0, 4,20.00,30.00,Monday
250,22.142875629010085
251,6502443.985984945
336,0.0
385,22.15
386,41.81
387,-0.4403568441036789
388,0.0
425,0.0
450,0.0
451,0.0
452,-1.1446542597771594
453,0.0
490,0.0
515,0.0
516,0.0
542,0.0
592,4809157.780625453
632,1447016.5512419648
686,1.0
687,1.0
688,2.0
2,21, 1,21, 0, 4,30.00,40.00,Monday
250,21.086298383252885
251,5120992.677918758
336,0.0
385,20.81666666666665
386,41.809999999999974
387,-0.43678559656777627
388,0.0
425,0.0
450,0.0
451,0.0
452,-1.112135094465736
453,0.0
490,0.0
515,0.0
516,0.0
542,0.0
592,2282055.6456639194
632,2748553.6046923287
686,0.5149976838884084
687,0.36412888006745936
688,1.1666666666666659
2,21, 1,21, 0, 4,40.00,50.00,Monday
250,22.044512550492477
251,7264427.335047182
336,0.0
385,22.15
386,41.81
387,-0.4343160339654559
388,0.0
425,0.0
450,0.0
451,0.0
452,-1.084805760734607
453,0.0
490,0.0
515,0.0
516,0.0
542,0.0
592,4807094.367725875
632,2476698.082382382
686,1.0
687,1.0
688,2.0
2,21, 1,21, 0, 4,50.00,60.00,Monday
250,22.142871508419514
251,6533085.670262027
336,0.0
385,22.15
386,41.81
387,-0.4327691717865411
388,0.0
425,0.0
450,0.0
451,0.0
452,-1.05994629908172
453,0.0
490,0.0
515,0.0
516,0.0
542,0.0
592,4808631.789384305
632,1478198.514266387
686,1.0
687,1.0
688,2.0
2,21, 1,21, 0, 5, 0.00,10.00,Monday
250,21.084096637076584
251,5163972.136022337
336,0.0
385,20.816666666666663
386,41.81
387,-0.43261400089498053
388,0.0
425,0.0
450,0.0
451,0.0
452,-1.0453120492183152
453,0.0
490,0.0
515,0.0
516,0.0
542,0.0
592,2302714.880866234
632,2769538.6019946723
686,0.5175300492339191
687,0.3784168269382261
688,1.1666666666666667
2,21, 1,21, 0, 5,10.00,20.00,Monday
250,22.044370110046778
251,7320316.74146481
336,0.0
385,22.15
386,41.81
387,-0.43291559363476695
388,0.0
425,0.0
450,0.0
451,0.0
452,-1.0314393298772502
453,0.0
490,0.0
515,0.0
516,0.0
542,0.0
592,4781046.532492199
632,2559234.408673524
686,1.0
687,1.0
688,2.0
2,21, 1,21, 0, 5,20.00,30.00,Monday
250,22.142873138890412
251,6599426.953863199
336,0.0
385,22.15
386,41.81
387,-0.4337637593830953
388,0.0
425,0.0
450,0.0
451,0.0
452,-1.016322382058893
453,0.0
490,0.0
515,0.0
516,0.0
542,0.0
592,4769809.703941455
632,1583376.8420461263
686,1.0
687,1.0
688,2.0
2,21, 1,21, 0, 5,30.00,40.00,Monday
250,21.080785211883594
251,5230333.30381002
336,0.0
385,20.81666666666665
386,41.809999999999974
387,-0.43482214603523284
388,0.0
425,0.0
450,0.0
451,0.0
452,-1.0050608999592536
453,0.0
490,0.0
515,0.0
516,0.0
542,0.0
592,2327810.6519391597
632,2808500.311419694
686,0.5214695573487814
687,0.4023551282834927
688,1.1666666666666659
2,21, 1,21, 0, 5,40.00,50.00,Monday
250,22.04413250024465
251,7387463.129031263
336,0.0
385,22.15
386,41.81
387,-0.4360371543659423
388,0.0
425,0.0
450,0.0
451,0.0
452,-0.9933703376406517
453,0.0
490,0.0
515,0.0
516,0.0
542,0.0
592,4742199.014996177
632,2666124.4839234855
686,1.0
687,1.0
688,2.0
2,21, 1,21, 0, 5,50.00,60.00,Monday
250,22.14286868330753
251,6662934.368573413
336,0.0
385,22.15
386,41.81
387,-0.4375803234897092
388,0.0
425,0.0
450,0.0
451,0.0
452,-0.9800540101314903
453,0.0
490,0.0
515,0.0
516,0.0
542,0.0
592,4730941.012472594
632,1685778.0843597949
686,1.0
687,1.0
688,2.0
2,21, 1,21, 0, 6, 0.00,10.00,Monday
250,21.078165569335624
251,5282094.666954104
336,0.0
385,20.816666666666663
386,41.81
387,-0.4389445144442448
388,0.0
425,0.0
450,0.0
451,0.0
452,-0.9706261269271619
453,0.0
490,0.0
515,0.0
516,0.0
542,0.0
592,2349013.5176018784
632,2837322.4084905065
686,0.5245970446269186
687,0.4209188075451309
688,1.1666666666666667
2,21, 1,21, 0, 6,10.00,20.00,Monday
250,22.04391561964426
251,7426906.860823458
336,0.0
385,22.15
386,41.81
387,-0.44055838578678974
388,0.0
425,0.0
450,0.0
451,0.0
452,-0.9620896254551263
453,0.0
490,0.0
515,0.0
516,0.0
542,0.0
592,4728857.961654237
632,2719620.999411853
686,1.0
687,1.0
688,2.0
2,21, 1,21, 0, 6,20.00,30.00,Monday
250,22.142857832312387
251,6686343.871454312
336,0.0
385,22.15
386,41.81
387,-0.44273151325413623
388,0.0
425,0.0
450,0.0
451,0.0
452,-0.9540340709505492
453,0.0
490,0.0
515,0.0
516,0.0
542,0.0
592,4730374.107616934
632,1709778.4304605757
686,1.0
687,1.0
688,2.0
2,21, 1,21, 0, 6,30.00,40.00,Monday
250,21.076856297559093
251,5306243.7752138665
336,0.0
385,20.81666666666665
386,41.809999999999974
387,-0.4447240088980447
388,0.0
425,0.0
450,0.0
451,0.0
452,-0.9496357506350142
453,0.0
490,0.0
515,0.0
516,0.0
542,0.0
592,2363418.343073735
632,2846431.0903985742
686,0.5260841316553446
687,0.42857102338247655
688,1.1666666666666659
2,21, 1,21, 0, 6,40.00,50.00,Monday
250,22.043802769518187
251,7450755.012422949
336,0.0
385,22.15
386,41.81
387,-0.4469567642302794
388,0.0
425,0.0
450,0.0
451,0.0
452,-0.9460650582121124
453,0.0
490,0.0
515,0.0
516,0.0
542,0.0
592,4728287.621064445
632,2744398.827758792
686,1.0
687,1.0
688,2.0
2,21, 1,21, 0, 6,50.00,60.00,Monday
250,22.142852507181672
251,6708629.747750768
336,0.0
385,22.15
386,41.81
387,-0.44978764467987215
388,0.0
425,0.0
450,0.0
451,0.0
452,-0.9429077018532213
453,0.0
490,0.0
515,0.0
516,0.0
542,0.0
592,4729806.672265103
632,1732645.0620968833
686,1.0
687,1.0
688,2.0
2,21, 1,21, 0, 7, 0.00,10.00,Monday
250,21.07244577078861
251,5391545.686263758
336,0.0
385,20.816666666666663
386,41.81
387,-0.4551165941690755
388,0.0
425,0.0
450,0.0
451,0.0
452,-0.9483279473024318
453,0.0
490,0.0
515,0.0
516,0.0
542,0.0
592,2422143.8390555526
632,2871405.366251191
686,0.5306732636877997
687,0.4510705041417078
688,1.1666666666666667
2,21, 1,21, 0, 7,10.00,20.00,Monday
250,21.43559839009569
251,5307448.439479898
336,0.0
385,21.48333333333333
386,41.81
387,-0.4644873826603245
388,0.0
425,0.0
450,0.0
451,0.0
452,-0.9697118519250442
453,0.0
490,0.0
515,0.0
516,0.0
542,0.0
592,3261782.0403049835
632,2041070.9171011634
686,0.6868153501603401
687,0.6666666666666667
688,1.6666666666666667
2,21, 1,21, 0, 7,20.00,30.00,Monday
250,21.67119876722046
251,6670724.344488014
336,0.0
385,22.15
386,41.81
387,-0.4798431909684434
388,0.0
425,0.0
450,0.0
451,0.0
452,-1.0137577979878847
453,0.0
490,0.0
515,0.0
516,0.0
542,0.0
592,4809223.357263747
632,2414410.1425755606
686,1.0
687,1.0
688,2.0
2,21, 1,21, 0, 7,30.00,40.00,Monday
250,22.104299115710894
251,7803663.496113395
336,0.0
385,22.15
386,41.81
387,-0.4970449240767123
388,0.0
425,0.0
450,0.0
451,0.0
452,-1.0698992987986653
453,0.0
490,0.0
515,0.0
516,0.0
542,0.0
592,4847266.59556637
632,2823008.788193806
686,1.0
687,1.0
688,2.0
2,21, 1,21, 0, 7,40.00,50.00,Monday
250,21.05441501180204
251,5700275.257344866
336,0.0
385,20.816666666666634
386,41.809999999999945
387,-0.5152457800480637
388,0.0
425,0.0
450,0.0
451,0.0
452,-1.1330577292309072
453,0.0
490,0.0
515,0.0
516,0.0
542,0.0
592,2601069.9670870765
632,3001065.5866012513
686,0.5463974926830615
687,0.49999999999999933
688,1.166666666666665
2,21, 1,21, 0, 7,50.00,60.00,Monday
250,21.440127195128383
251,5604625.383683684
336,0.0
385,21.48333333333335
386,41.81000000000003
387,-0.5366416756288455
388,0.0
425,0.0
450,0.0
451,0.0
452,-1.20702589271325
453,0.0
490,0.0
515,0.0
516,0.0
542,0.0
592,3422571.861710134
632,2156225.116055986
686,0.7092611206229575
687,0.6666666666666672
688,1.6666666666666679
2,21, 1,21, 0, 8, 0.00,10.00,Monday
250,21.67710852811971
251,6441983.168755259
336,0.0
385,22.15
386,41.81
387,-0.5360978577115032
388,0.0
425,0.0
450,0.0
451,0.0
452,-1.2774731035860825
453,0.0
490,0.0
515,0.0
516,0.0
542,0.0
592,4918671.732989553
632,2070766.4711694892
686,1.0
687,1.0
688,2.0
2,21, 1,21, 0, 8,10.00,20.00,Monday
250,22.10485240694146
251,7342061.641358237
336,0.0
385,22.15
386,41.81
387,-0.5039669129927348
388,0.0
425,0.0
450,0.0
451,0.0
452,-1.2675205405606456
453,0.0
490,0.0
515,0.0
516,0.0
542,0.0
592,4949886.114985248
632,2257209.9028006797
686,1.0
687,1.0
688,2.0
2,21, 1,21, 0, 8,20.00,30.00,Monday
250,21.087088125128076
251,5039948.661926892
336,0.0
385,20.816666666666677
386,41.81000000000004
387,-0.45278641240931117
388,0.0
425,0.0
450,0.0
451,0.0
452,-1.1631358528413989
453,0.0
490,0.0
515,0.0
516,0.0
542,0.0
592,2304748.794185515
632,2649913.2866331195
686,0.5107810770751882
687,0.3333333333333336
688,1.0000000000000009
2,21, 1,21, 0, 8,30.00,40.00,Monday
250,22.044801371642
251,7002094.436495556
336,0.0
385,22.15
386,41.81
387,-0.38319035206174556
388,0.0
425,0.0
450,0.0
451,0.0
452,-0.9816608737717851
453,0.0
490,0.0
515,0.0
516,0.0
542,0.0
592,4995628.416809648
632,2025620.011209681
686,1.0
687,1.0
688,2.0
2,21, 1,21, 0, 8,40.00,50.00,Monday
250,22.142898567686153
251,6063911.5304335905
336,0.0
385,22.15
386,41.81
387,-0.28351562985685785
388,0.0
425,0.0
450,0.0
451,0.0
452,-0.6859286149880116
453,0.0
490,0.0
515,0.0
516,0.0
542,0.0
592,5025089.064919489
632,792510.5079765948
686,1.0
687,1.0
688,2.0
2,21, 1,21, 0, 8,50.00,60.00,Monday
250,21.14252268255992
251,4420466.546482129
336,0.0
385,20.816666666666634
386,41.809999999999945
387,-0.18873401859982933
388,0.0
425,0.0
450,0.0
451,0.0
452,-0.3747437600864722
453,0.0
490,0.0
515,0.0
516,0.0
542,0.0
592,1857304.2555512106
632,2516655.7499076934
686,0.4370635206057688
687,0.17300775179955616
688,0.8333333333333321
2,21, 1,21, 0, 9, 0.00,10.00,Monday
250,22.050061049988642
251,6091377.205309082
336,0.0
385,22.15
386,41.81
387,-0.06736907325512885
388,0.0
425,0.0
450,0.0
451,0.0
452,0.02895413587302939
453,0.0
490,0.0
515,0.0
516,0.0
542,0.0
592,4809381.432854189
632,1293824.6256230664
686,1.0
687,0.7990423366064856
688,2.0
2,21, 1,21, 0, 9,10.00,20.00,Monday
250,21.16100677014036
251,3287928.6465198784
336,0.0
385,21.15
386,41.81
387,0.10958787630090691
388,0.0
425,0.0
450,0.0
451,0.0
452,0.6243780011285875
453,0.0
490,0.0
515,0.0
516,0.0
542,0.0
592,2787395.2345816786
632,326341.39970771776
686,0.5613355881556429
687,0.5
688,1.5
2,21, 1,21, 0, 9,20.00,30.00,Monday
250,21.577103147278425
251,3965663.372483816
336,0.0
385,21.483333333333324
386,41.80999999999999
387,0.2499339400886799
388,0.0
425,0.0
450,0.0
451,0.0
452,1.1164217599575277
453,0.0
490,0.0
515,0.0
516,0.0
542,0.0
592,2959409.522175147
632,1021682.6026798266
686,0.6619308294320727
687,0.3333333333333332
688,0.9999999999999996
2,21, 1,21, 0, 9,30.00,40.00,Monday
250,21.207281905413016
251,3792384.168520314
336,0.0
385,20.949999999999992
386,41.80999999999999
387,0.3914458454174729
388,0.0
425,0.0
450,0.0
451,0.0
452,1.6354180338988433
453,0.0
490,0.0
515,0.0
516,0.0
542,0.0
592,1786803.880858988
632,2061091.8629071384
686,0.39626665555622276
687,0.2
688,0.7999999999999996
2,21, 1,21, 0, 9,40.00,50.00,Monday
250,21.10291987553056
251,4787784.295368386
336,0.0
385,21.15
386,41.81
387,0.5336687075147615
388,0.0
425,0.0
450,0.0
451,0.0
452,2.1964236208904397
453,0.0
490,0.0
515,0.0
516,0.0
542,0.0
592,2988549.652267943
632,1892805.5642957778
686,0.6028554432249441
687,0.5
688,1.25
2,21, 1,21, 0, 9,50.00,60.00,Monday
250,21.403162168399493
251,5033334.865243977
336,0.0
385,21.48333333333335
386,41.81000000000003
387,0.6966423444127239
388,0.0
425,0.0
450,0.0
451,0.0
452,2.7793830092691847
453,0.0
490,0.0
515,0.0
516,0.0
542,0.0
592,2797164.9412101414
632,2382145.040710521
686,0.6057144992756198
687,0.3333333333333336
688,1.3333333333333344
2,21, 1,21, 0,10, 0.00,10.00,Monday
250,21.18406041783995
251,4390630.079800962
336,0.0
385,21.15
386,41.81
387,0.8957083777456075
388,0.0
425,0.0
450,0.0
451,0.0
452,3.3688086223528027
453,0.0
490,0.0
515,0.0
516,0.0
542,0.0
592,2696406.325444882
632,1767004.370546245
686,0.5734206007540719
687,0.31791660909600056
688,1.25
2,21, 1,21, 0,10,10.00,20.00,Monday
250,21.39779350757719
251,4516128.79785761
336,0.0
385,21.48333333333333
386,41.81
387,1.1286326814217527
388,0.0
425,0.0
450,0.0
451,0.0
452,3.993575114893918
453,0.0
490,0.0
515,0.0
516,0.0
542,0.0
592,2468734.615648451
632,2233551.840696527
686,0.5024829650839937
687,0.33333333333333337
688,1.3333333333333333
2,21, 1,21, 0,10,20.00,30.00,Monday
250,21.203641633512376
251,3991702.456554808
336,0.0
385,21.15
386,41.81
387,1.3813866343158816
388,0.0
425,0.0
450,0.0
451,0.0
452,4.636803188091234
453,0.0
490,0.0
515,0.0
516,0.0
542,0.0
592,2400741.6214932073
632,1678608.0189917125
686,0.5026569288268674
687,0.25
688,1.0
2,21, 1,21, 0,10,30.00,40.00,Monday
250,20.737517549471143
251,4413603.479742261
336,0.0
385,20.81666666666668
386,41.81000000000003
387,1.6539164612099997
388,0.0
425,0.0
450,0.0
451,0.0
452,5.317411553976288
453,0.0
490,0.0
515,0.0
516,0.0
542,0.0
592,3316672.0517426953
632,1247738.4520168428
686,0.6666666666666672
687,0.389192489158571
688,1.3333333333333344
2,21, 1,21, 0,10,40.00,50.00,Monday
250,21.15054995346012
251,3267129.8781643133
336,0.0
385,20.950000000000003
386,41.81
387,1.9327738497213383
388,0.0
425,0.0
450,0.0
451,0.0
452,6.035802323393472
453,0.0
490,0.0
515,0.0
516,0.0
542,0.0
592,2252837.3695637034
632,1048205.1323917515
686,0.4273536310786964
687,0.3170421768400849
688,1.0
2,21, 1,21, 0,10,50.00,60.00,Monday
250,21.401957616501274
251,2203313.697091356
336,0.0
385,21.15
386,41.81
387,2.2263062435032905
388,0.0
425,0.0
450,0.0
451,0.0
452,6.824109034725183
453,0.0
490,0.0
515,0.0
516,0.0
542,0.0
592,1950663.3694660526
632,273842.7258124796
686,0.3702554364770185
687,0.25
688,1.0
2,21, 1,21, 0,11, 0.00,10.00,Monday
250,21.650655310039056
251,3203704.603169358
336,0.0
385,21.15
386,41.81
387,2.6058261393762545
388,0.0
425,0.0
450,0.0
451,0.0
452,7.88910262474584
453,0.0
490,0.0
515,0.0
516,0.0
542,0.0
592,1445532.658367758
632,1782980.5441207138
686,0.25
687,0.25
688,0.5
2,21, 1,21, 0,11,10.00,20.00,Monday
250,21.17829616697825
251,3103720.3191531072
336,0.0
385,20.95
386,41.81
387,2.842232237511948
388,0.0
425,0.0
450,0.0
451,0.0
452,8.629473365210101
453,0.0
490,0.0
515,0.0
516,0.0
542,0.0
592,1900782.2417493085
632,1303457.8992332797
686,0.3660605619090975
687,0.2
688,0.6000000000000001
2,21, 1,21, 0,11,20.00,30.00,Monday
250,20.791925836387414
251,3753686.6236673784
336,0.0
385,20.816666666666656
386,41.80999999999999
387,3.094460681576418
388,0.0
425,0.0
450,0.0
451,0.0
452,9.423532961716859
453,0.0
490,0.0
515,0.0
516,0.0
542,0.0
592,2930211.151013234
632,984706.6574291242
686,0.5502108646903217
687,0.3333333333333332
688,0.9999999999999996
2,21, 1,21, 0,11,30.00,40.00,Monday
250,21.256410158442414
251,2380705.7999022934
336,0.0
385,20.949999999999996
386,41.80999999999999
387,3.3537217010116294
388,0.0
425,0.0
450,0.0
451,0.0
452,10.196829881191636
453,0.0
490,0.0
515,0.0
516,0.0
542,0.0
592,1659888.8559529362
632,763564.3687423529
686,0.30397563906072395
687,0.2
688,0.6000000000000001
2,21, 1,21, 0,11,40.00,50.00,Monday
250,21.802801602514343
251,2236751.4170687357
336,0.0
385,21.48333333333335
386,41.81000000000003
387,3.626720732320085
388,0.0
425,0.0
450,0.0
451,0.0
452,10.935924947195096
453,0.0
490,0.0
515,0.0
516,0.0
542,0.0
592,2260196.853800317
632,0.0
686,0.4632609953624591
687,0.09701602497110688
688,1.0000000000000009
2,21, 1,21, 0,11,50.00,60.00,Monday
250,21.558015425754366
251,2554681.0350015378
336,0.0
385,20.816666666666634
386,41.809999999999945
387,3.8922811782632
388,0.0
425,0.0
450,0.0
451,0.0
452,11.564759659841934
453,0.0
490,0.0
515,0.0
516,0.0
542,0.0
592,1028936.6511810983
632,1645697.3679195074
686,0.17163400159614606
687,0.16666666666666644
688,0.49999999999999933
2,21, 1,21, 0,12, 0.00,10.00,Monday
250,21.224593297811502
251,2747815.8830004153
336,0.0
385,20.95
386,41.81
387,4.1563639701914035
388,0.0
425,0.0
450,0.0
451,0.0
452,12.133506846522705
453,0.0
490,0.0
515,0.0
516,0.0
542,0.0
592,1590524.8264370512
632,1273961.062264845
686,0.28037406789673935
687,0.2
688,0.6000000000000001
2,21, 1,21, 0,12,10.00,20.00,Monday
250,21.305132814702525
251,2737356.3519157227
336,0.0
385,21.15
386,41.81
387,4.422764397195784
388,0.0
425,0.0
450,0.0
451,0.0
452,12.677413287101421
453,0.0
490,0.0
515,0.0
516,0.0
542,0.0
592,2031145.331430241
632,872599.6347938555
686,0.2691190220059321
687,0.25
688,0.75
2,21, 1,21, 0,12,20.00,30.00,Monday
250,21.18597053716512
251,2701414.184992144
336,0.0
385,20.65
386,41.81
387,4.767294557524854
388,0.0
425,0.0
450,0.0
451,0.0
452,13.339394602709051
453,0.0
490,0.0
515,0.0
516,0.0
542,0.0
592,2035282.4719961863
632,831663.1871984138
686,0.2680336305366291
687,0.25
688,0.75
2,21, 1,21, 0,12,30.00,40.00,Monday
250,21.452666728817555
251,0.0
336,0.0
385,20.65
386,41.81
387,5.046174471714733
388,0.0
425,0.0
450,0.0
451,0.0
452,13.863427926182624
453,0.0
490,0.0
515,0.0
516,0.0
542,0.0
592,0.0
632,0.0
686,0.0
687,0.0
688,0.0
2,21, 1,21, 0,12,40.00,50.00,Monday
250,21.60624628192496
251,2681359.494923095
336,0.0
385,21.15
386,41.81
387,5.303532001429289
388,0.0
425,0.0
450,0.0
451,0.0
452,14.313443747901964
453,0.0
490,0.0
515,0.0
516,0.0
542,0.0
592,2465199.7838609475
632,319421.2370901338
686,0.33571864400145734
687,0.25
688,0.75
2,21, 1,21, 0,12,50.00,60.00,Monday
250,20.87200900628658
251,2486917.0466993856
336,0.0
385,20.55
386,41.81
387,5.506571633519846
388,0.0
425,0.0
450,0.0
451,0.0
452,14.6205792978721
453,0.0
490,0.0
515,0.0
516,0.0
542,0.0
592,1902355.2351350898
632,713720.2952338244
686,0.25516201205187816
687,0.2
688,0.6000000000000001
2,21, 1,21, 0,13, 0.00,10.00,Monday
250,21.51641252561656
251,0.0
336,0.0
385,20.550000000000004
386,41.81
387,5.771893052509412
388,0.0
425,0.0
450,0.0
451,0.0
452,14.96030328797311
453,0.0
490,0.0
515,0.0
516,0.0
542,0.0
592,0.0
632,0.0
686,0.0
687,0.0
688,0.0
2,21, 1,21, 0,13,10.00,20.00,Monday
250,20.579757420691095
251,346141.74547723786
336,0.0
385,20.15
386,41.81
387,5.960859064140301
388,0.0
425,0.0
450,0.0
451,0.0
452,15.16540752237465
453,0.0
490,0.0
515,0.0
516,0.0
542,0.0
592,326338.0622650417
632,0.0
686,0.05299614245018812
687,0.0
688,0.3333333333333332
2,21, 1,21, 0,13,20.00,30.00,Monday
250,21.785806241724995
251,1837354.3446012603
336,0.0
385,20.950000000000003
386,41.81
387,6.140632309943699
388,0.0
425,0.0
450,0.0
451,0.0
452,15.332054681332936
453,0.0
490,0.0
515,0.0
516,0.0
542,0.0
592,1585098.5837797686
632,354558.82787738147
686,0.2
687,0.2
688,0.4
2,21, 1,21, 0,13,30.00,40.00,Monday
250,20.847902473885153
251,0.0
336,0.0
385,20.15
386,41.81
387,6.333792916741457
388,0.0
425,0.0
450,0.0
451,0.0
452,15.48645274040922
453,0.0
490,0.0
515,0.0
516,0.0
542,0.0
592,0.0
632,0.0
686,0.0
687,0.0
688,0.0
2,21, 1,21, 0,13,40.00,50.00,Monday
250,20.817652593711045
251,2517813.834906262
336,0.0
385,20.81666666666668
386,41.81000000000003
387,6.520846955602188
388,0.0
425,0.0
450,0.0
451,0.0
452,15.605459752601416
453,0.0
490,0.0
515,0.0
516,0.0
542,0.0
592,2723662.095734935
632,0.0
686,0.36436769432669636
687,0.2611753182950026
688,1.0000000000000009
2,21, 1,21, 0,13,50.00,60.00,Monday
250,21.77586687210168
251,1518571.9166249484
336,0.0
385,20.950000000000003
386,41.81
387,6.695214129524081
388,0.0
425,0.0
450,0.0
451,0.0
452,15.694188487721048
453,0.0
490,0.0
515,0.0
516,0.0
542,0.0
592,1597222.7155087772
632,0.0
686,0.2
687,0.1966825634114347
688,0.4
2,21, 1,21, 0,14, 0.00,10.00,Monday
250,20.980252845009026
251,0.0
336,0.0
385,20.15
386,41.81
387,6.880769415736634
388,0.0
425,0.0
450,0.0
451,0.0
452,15.754740579681744
453,0.0
490,0.0
515,0.0
516,0.0
542,0.0
592,0.0
632,0.0
686,0.0
687,0.0
688,0.0
2,21, 1,21, 0,14,10.00,20.00,Monday
250,20.32341186354011
251,271405.5936389326
336,0.0
385,20.15
386,41.81
387,7.059548856419882
388,0.0
425,0.0
450,0.0
451,0.0
452,15.7586217238657
453,0.0
490,0.0
515,0.0
516,0.0
542,0.0
592,260248.95784536717
632,0.0
686,0.04106281673160077
687,0.0
688,0.3333333333333332
2,21, 1,21, 0,14,20.00,30.00,Monday
250,22.03237219900799
251,1924030.9436490985
336,0.0
385,20.81666666666668
386,41.81000000000004
387,7.2240589123146135
388,0.0
425,0.0
450,0.0
451,0.0
452,15.71012065568862
453,0.0
490,0.0
515,0.0
516,0.0
542,0.0
592,1346429.4189871943
632,686003.418571299
686,0.1666666666666668
687,0.1666666666666668
688,0.3333333333333336
2,21, 1,21, 0,14,30.00,40.00,Monday
250,21.832670742979452
251,0.0
336,0.0
385,20.15
386,41.81
387,7.410533170138614
388,0.0
425,0.0
450,0.0
451,0.0
452,15.5877553194291
453,0.0
490,0.0
515,0.0
516,0.0
542,0.0
592,0.0
632,0.0
686,0.0
687,0.0
688,0.0
2,21, 1,21, 0,14,40.00,50.00,Monday
250,20.82918908428933
251,0.0
336,0.0
385,20.150000000000002
386,41.81
387,7.555832021098619
388,0.0
425,0.0
450,0.0
451,0.0
452,15.398098096131626
453,0.0
490,0.0
515,0.0
516,0.0
542,0.0
592,0.0
632,0.0
686,0.0
687,0.0
688,0.0
2,21, 1,21, 0,14,50.00,60.00,Monday
250,20.278451015409935
251,196593.88950289832
336,0.0
385,20.150000000000013
386,41.81000000000003
387,7.687785544490964
388,0.0
425,0.0
450,0.0
451,0.0
452,15.1345618996692
453,0.0
490,0.0
515,0.0
516,0.0
542,0.0
592,188883.9744916284
632,0.0
686,0.029228806126323476
687,0.0
688,0.3333333333333336
2,21, 1,21, 0,15, 0.00,10.00,Monday
250,22.093052591937784
251,1941132.926538227
336,0.0
385,20.816666666666666
386,41.81
387,7.816707426373847
388,0.0
425,0.0
450,0.0
451,0.0
452,14.827569490891602
453,0.0
490,0.0
515,0.0
516,0.0
542,0.0
592,1366196.4856116746
632,687101.7286092794
686,0.16666666666666666
687,0.16666666666666666
688,0.3333333333333333
2,21, 1,21, 0,15,10.00,20.00,Monday
250,21.45905732264135
251,0.0
336,0.0
385,20.15
386,41.81
387,7.953977884014294
388,0.0
425,0.0
450,0.0
451,0.0
452,14.485837690394352
453,0.0
490,0.0
515,0.0
516,0.0
542,0.0
592,0.0
632,0.0
686,0.0
687,0.0
688,0.0
2,21, 1,21, 0,15,20.00,30.00,Monday
250,20.667224161620716
251,0.0