Program Version,EnergyPlus, Version 24.1.0-9d7789a3ac, YMD=2024.07.03 09:44
1,5,Environment Title[],Latitude[deg],Longitude[deg],Time Zone[],Elevation[m]
2,8,Day of Simulation[],Month[],Day of Month[],DST Indicator[1=yes 0=no],Hour[],StartMinute[],EndMinute[],DayType
3,5,Cumulative Day of Simulation[],Month[],Day of Month[],DST Indicator[1=yes 0=no],DayType  ! When Daily Report Variables Requested
4,2,Cumulative Days of Simulation[],Month[]  ! When Monthly Report Variables Requested
5,1,Cumulative Days of Simulation[] ! When Run Period Report Variables Requested
6,1,Calendar Year of Simulation[] ! When Annual Report Variables Requested
250,1,LIVING ZONE,Zone Air Temperature [C] !TimeStep,REPORTSCH
251,1,LIVING ZONE,Zone Air System Sensible Heating Energy [J] !TimeStep,REPORTSCH
336,1,LIVING ZONE,Zone Air System Sensible Cooling Energy [J] !TimeStep,REPORTSCH
385,1,LIVING ZONE,Zone Thermostat Heating Setpoint Temperature [C] !TimeStep,REPORTSCH
386,1,LIVING ZONE,Zone Thermostat Cooling Setpoint Temperature [C] !TimeStep,REPORTSCH
387,1,GARAGE ZONE,Zone Air Temperature [C] !TimeStep,REPORTSCH
388,1,GARAGE ZONE,Zone Air System Sensible Heating Energy [J] !TimeStep,REPORTSCH
425,1,GARAGE ZONE,Zone Air System Sensible Cooling Energy [J] !TimeStep,REPORTSCH
450,1,GARAGE ZONE,Zone Thermostat Heating Setpoint Temperature [C] !TimeStep,REPORTSCH
451,1,GARAGE ZONE,Zone Thermostat Cooling Setpoint Temperature [C] !TimeStep,REPORTSCH
452,1,ATTIC ZONE,Zone Air Temperature [C] !TimeStep,REPORTSCH
453,1,ATTIC ZONE,Zone Air System Sensible Heating Energy [J] !TimeStep,REPORTSCH
490,1,ATTIC ZONE,Zone Air System Sensible Cooling Energy [J] !TimeStep,REPORTSCH
515,1,ATTIC ZONE,Zone Thermostat Heating Setpoint Temperature [C] !TimeStep,REPORTSCH
516,1,ATTIC ZONE,Zone Thermostat Cooling Setpoint Temperature [C] !TimeStep,REPORTSCH
542,1,ACDXCOIL 1,Cooling Coil Total Cooling Energy [J] !TimeStep,REPORTSCH
592,1,HEAT PUMP DX HEATING COIL 1,Heating Coil Heating Energy [J] !TimeStep,REPORTSCH
632,1,SUPP HEATING COIL 1,Heating Coil Heating Energy [J] !TimeStep,REPORTSCH
686,1,TWOSPEED HEAT PUMP 1,Unitary System DX Coil Cycling Ratio [] !TimeStep,REPORTSCH
687,1,TWOSPEED HEAT PUMP 1,Unitary System DX Coil Speed Ratio [] !TimeStep,REPORTSCH
688,1,TWOSPEED HEAT PUMP 1,Unitary System DX Coil Speed Level [] !TimeStep
End of Data Dictionary
1,CHICAGO_IL_USA ANNUAL HEATING 99% DESIGN CONDITIONS DB,  41.98, -87.92,  -6.00, 201.00
2,1, 1,21, 0, 1, 0.00,10.00,WinterDesignDay
250,21.27706424140012
251,15353980.752299234
336,0.0
385,21.62358344505244
386,26.76069603546598
387,-17.566855410222605
388,0.0
425,0.0
450,0.0
451,0.0
452,-18.239680184853057
453,0.0
490,0.0
515,0.0
516,0.0
542,0.0
592,0.0
632,14995715.286319517
686,1.0
687,1.0
688,2.0
2,1, 1,21, 0, 1,10.00,20.00,WinterDesignDay
250,21.658100783394133
251,14474525.407518178
336,0.0
385,21.623583445052436
386,26.760696035465976
387,-17.566854635447854
388,0.0
425,0.0
450,0.0
451,0.0
452,-18.239799624630223
453,0.0
490,0.0
515,0.0
516,0.0
542,0.0
592,0.0
632,14082502.11777737
686,1.0
687,1.0
688,2.0
2,1, 1,21, 0, 1,20.00,30.00,WinterDesignDay
250,21.902941419815008
251,15461162.546841128
336,0.0
385,22.290250111719104
386,26.76069603546598
387,-17.566747543246
388,0.0
425,0.0
450,0.0
451,0.0
452,-18.239733287134122
453,0.0
490,0.0
515,0.0
516,0.0
542,0.0
592,0.0
632,15937234.277392192
686,1.0
687,1.0
688,2.0
2,1, 1,21, 0, 1,30.00,40.00,WinterDesignDay
250,22.255605621996047
251,16561390.343329005
336,0.0
385,22.290250111719104
386,26.76069603546598
387,-17.56675099803403
388,0.0
425,0.0
450,0.0
451,0.0
452,-18.239589694287417
453,0.0
490,0.0
515,0.0
516,0.0
542,0.0
592,0.0
632,16403835.912372272
686,1.0
687,1.0
688,2.0
2,1, 1,21, 0, 1,40.00,50.00,WinterDesignDay
250,21.277064239510253
251,15353980.784938188
336,0.0
385,21.623583445052407
386,26.76069603546594
387,-17.56686025443536
388,0.0
425,0.0
450,0.0
451,0.0
452,-18.239680664397344
453,0.0
490,0.0
515,0.0
516,0.0
542,0.0
592,0.0
632,14995715.31846755
686,0.9999999999999986
687,0.9999999999999986
688,1.9999999999999971
2,1, 1,21, 0, 1,50.00,60.00,WinterDesignDay
250,21.6581007832983
251,14474525.447530156
336,0.0
385,21.623583445052454
386,26.760696035465998
387,-17.56685941918076
388,0.0
425,0.0
450,0.0
451,0.0
452,-18.239800098019582
453,0.0
490,0.0
515,0.0
516,0.0
542,0.0
592,0.0
632,14082502.158113454
686,1.0000000000000009
687,1.0000000000000009
688,2.0000000000000018
2,1, 1,21, 0, 2, 0.00,10.00,WinterDesignDay
250,21.90294142005848
251,15461162.586655645
336,0.0
385,22.290250111719104
386,26.76069603546598
387,-17.56675225433453
388,0.0
425,0.0
450,0.0
451,0.0
452,-18.239733753343355
453,0.0
490,0.0
515,0.0
516,0.0
542,0.0
592,0.0
632,15937234.317378184
686,1.0
687,1.0
688,2.0
2,1, 1,21, 0, 2,10.00,20.00,WinterDesignDay
250,22.255605622033322
251,16561390.383576246
336,0.0
385,22.290250111719104
386,26.76069603546598
387,-17.566755645728435
388,0.0
425,0.0
450,0.0
451,0.0
452,-18.23959015437282
453,0.0
490,0.0
515,0.0
516,0.0
542,0.0
592,0.0
632,16403835.952557774
686,1.0
687,1.0
688,2.0
2,1, 1,21, 0, 2,20.00,30.00,WinterDesignDay
250,21.277064237718132
251,15353980.81589023
336,0.0
385,21.623583445052454
386,26.760696035466
387,-17.56686484829059
388,0.0
425,0.0
450,0.0
451,0.0
452,-18.239681119162515
453,0.0
490,0.0
515,0.0
516,0.0
542,0.0
592,0.0
632,14995715.348954037
686,1.0000000000000007
687,1.0000000000000007
688,2.0000000000000013
2,1, 1,21, 0, 2,30.00,40.00,WinterDesignDay
250,21.658100783207395
251,14474525.485474162
336,0.0
385,21.623583445052454
386,26.760696035465998
387,-17.566863955682123
388,0.0
425,0.0
450,0.0
451,0.0
452,-18.239800546947723
453,0.0
490,0.0
515,0.0
516,0.0
542,0.0
592,0.0
632,14082502.196364813
686,1.0000000000000009
687,1.0000000000000009
688,2.0000000000000018
2,1, 1,21, 0, 2,40.00,50.00,WinterDesignDay
250,21.902941420289373
251,15461162.624412328
336,0.0
385,22.290250111719104
386,26.76069603546598
387,-17.56675672194612
388,0.0
425,0.0
450,0.0
451,0.0
452,-18.239734195462315
453,0.0
490,0.0
515,0.0
516,0.0
542,0.0
592,0.0
632,15937234.355297482
686,1.0
687,1.0
688,2.0
2,1, 1,21, 0, 2,50.00,60.00,WinterDesignDay
250,22.25560562206867
251,16561390.421743466
336,0.0
385,22.290250111719104
386,26.76069603546598
387,-17.56676005322237
388,0.0
425,0.0
450,0.0
451,0.0
452,-18.239590590684305
453,0.0
490,0.0
515,0.0
516,0.0
542,0.0
592,0.0
632,16403835.990666445
686,1.0
687,1.0
688,2.0
2,1, 1,21, 0, 3, 0.00,10.00,WinterDesignDay
250,21.277064236018578
251,15353980.845242487
336,0.0
385,21.62358344505244
386,26.76069603546598
387,-17.566869204727084
388,0.0
425,0.0
450,0.0
451,0.0
452,-18.239681550428575
453,0.0
490,0.0
515,0.0
516,0.0
542,0.0
592,0.0
632,14995715.377864804
686,1.0
687,1.0
688,2.0
2,1, 1,21, 0, 3,10.00,20.00,WinterDesignDay
250,21.658100783121178
251,14474525.521456918
336,0.0
385,21.623583445052436
386,26.760696035465976
387,-17.566868257728387
388,0.0
425,0.0
450,0.0
451,0.0
452,-18.239800972678324
453,0.0
490,0.0
515,0.0
516,0.0
542,0.0
592,0.0
632,14082502.232639035
686,1.0
687,1.0
688,2.0
2,1, 1,21, 0, 3,20.00,30.00,WinterDesignDay
250,21.902941420508334
251,15461162.660217607
336,0.0
385,22.290250111719104
386,26.76069603546598
387,-17.566760958662748
388,0.0
425,0.0
450,0.0
451,0.0
452,-18.239734614735525
453,0.0
490,0.0
515,0.0
516,0.0
542,0.0
592,0.0
632,15937234.391256968
686,1.0
687,1.0
688,2.0
2,1, 1,21, 0, 3,30.00,40.00,WinterDesignDay
250,22.255605622102195
251,16561390.457937967
336,0.0
385,22.290250111719104
386,26.76069603546598
387,-17.566764232928037
388,0.0
425,0.0
450,0.0
451,0.0
452,-18.239591004450055
453,0.0
490,0.0
515,0.0
516,0.0
542,0.0
592,0.0
632,16403836.026805423
686,1.0
687,1.0
688,2.0
2,1, 1,21, 0, 3,40.00,50.00,WinterDesignDay
250,21.277064234406858
251,15353980.8730776
336,0.0
385,21.623583445052407
386,26.76069603546594
387,-17.566873336014105
388,0.0
425,0.0
450,0.0
451,0.0
452,-18.239681959409527
453,0.0
490,0.0
515,0.0
516,0.0
542,0.0
592,0.0
632,14995715.405281246
686,0.9999999999999986
687,0.9999999999999986
688,1.9999999999999971
2,1, 1,21, 0, 3,50.00,60.00,WinterDesignDay
250,21.65810078303945
251,14474525.555580018
336,0.0
385,21.623583445052454
386,26.760696035465998
387,-17.566872337435964
388,0.0
425,0.0
450,0.0
451,0.0
452,-18.23980137640985
453,0.0
490,0.0
515,0.0
516,0.0
542,0.0
592,0.0
632,14082502.267038537
686,1.0000000000000009
687,1.0000000000000009
688,2.0000000000000018
2,1, 1,21, 0, 4, 0.00,10.00,WinterDesignDay
250,21.902941420715972
251,15461162.694172246
336,0.0
385,22.290250111719104
386,26.76069603546598
387,-17.566764976416586
388,0.0
425,0.0
450,0.0
451,0.0
452,-18.23973501234325
453,0.0
490,0.0
515,0.0
516,0.0
542,0.0
592,0.0
632,15937234.425357847
686,1.0
687,1.0
688,2.0
2,1, 1,21, 0, 4,10.00,20.00,WinterDesignDay
250,22.25560562213398
251,16561390.492261771
336,0.0
385,22.290250111719104
386,26.76069603546598
387,-17.566768196616987
388,0.0
425,0.0
450,0.0
451,0.0
452,-18.239591396834832
453,0.0
490,0.0
515,0.0
516,0.0
542,0.0
592,0.0
632,16403836.061076581
686,1.0
687,1.0
688,2.0
2,1, 1,21, 0, 4,20.00,30.00,WinterDesignDay
250,21.27706423287851
251,15353980.899474166
336,0.0
385,21.623583445052454
386,26.760696035466
387,-17.566877253786657
388,0.0
425,0.0
450,0.0
451,0.0
452,-18.23968234725675
453,0.0
490,0.0
515,0.0
516,0.0
542,0.0
592,0.0
632,14995715.43128078
686,1.0000000000000007
687,1.0000000000000007
688,2.0000000000000013
2,1, 1,21, 0, 4,30.00,40.00,WinterDesignDay
250,21.658100782961927
251,14474525.587939419
336,0.0
385,21.623583445052454
386,26.760696035465998
387,-17.566876206294808
388,0.0
425,0.0
450,0.0
451,0.0
452,-18.239801759278773
453,0.0
490,0.0
515,0.0
516,0.0
542,0.0
592,0.0
632,14082502.299660053
686,1.0000000000000009
687,1.0000000000000009
688,2.0000000000000018
2,1, 1,21, 0, 4,40.00,50.00,WinterDesignDay
250,21.902941420912878
251,15461162.726371957
336,0.0
385,22.290250111719104
386,26.76069603546598
387,-17.566768786523312
388,0.0
425,0.0
450,0.0
451,0.0
452,-18.239735389404764
453,0.0
490,0.0
515,0.0
516,0.0
542,0.0
592,0.0
632,15937234.457696235
686,1.0
687,1.0
688,2.0
2,1, 1,21, 0, 4,50.00,60.00,WinterDesignDay
250,22.25560562216413
251,16561390.524811462
336,0.0
385,22.290250111719104
386,26.76069603546598
387,-17.566771955452758
388,0.0
425,0.0
450,0.0
451,0.0
452,-18.239591768943235
453,0.0
490,0.0
515,0.0
516,0.0
542,0.0
592,0.0
632,16403836.093576338
686,1.0
687,1.0
688,2.0
2,1, 1,21, 0, 5, 0.00,10.00,WinterDesignDay
250,21.277064231429087
251,15353980.924506389
336,0.0
385,21.62358344505244
386,26.76069603546598
387,-17.566880969079012
388,0.0
425,0.0
450,0.0
451,0.0
452,-18.23968271506197
453,0.0
490,0.0
515,0.0
516,0.0
542,0.0
592,0.0
632,14995715.455936491
686,1.0
687,1.0
688,2.0
2,1, 1,21, 0, 5,10.00,20.00,WinterDesignDay
250,21.658100782888397
251,14474525.6186263
336,0.0
385,21.623583445052436
386,26.760696035465976
387,-17.566879875201366
388,0.0
425,0.0
450,0.0
451,0.0
452,-18.239802122362935
453,0.0
490,0.0
515,0.0
516,0.0
542,0.0
592,0.0
632,14082502.330595508
686,1.0
687,1.0
688,2.0
2,1, 1,21, 0, 5,20.00,30.00,WinterDesignDay
250,21.902941421099616
251,15461162.756907444
336,0.0
385,22.290250111719104
386,26.76069603546598
387,-17.566772399714313
388,0.0
425,0.0
450,0.0
451,0.0
452,-18.23973574698158
453,0.0
490,0.0
515,0.0
516,0.0
542,0.0
592,0.0
632,15937234.48836323
686,1.0
687,1.0
688,2.0
2,1, 1,21, 0, 5,30.00,40.00,WinterDesignDay
250,22.255605622192714
251,16561390.555678897
336,0.0
385,22.290250111719104
386,26.76069603546598
387,-17.56677552002266
388,0.0
425,0.0
450,0.0
451,0.0
452,-18.23959212182283
453,0.0
490,0.0
515,0.0
516,0.0
542,0.0
592,0.0
632,16403836.124396423
686,1.0
687,1.0
688,2.0
2,1, 1,21, 0, 5,40.00,50.00,WinterDesignDay
250,21.277064230054577
251,15353980.948244797
336,0.0
385,21.623583445052407
386,26.76069603546594
387,-17.566884492355648
388,0.0
425,0.0
450,0.0
451,0.0
452,-18.2396830638607
453,0.0
490,0.0
515,0.0
516,0.0
542,0.0
592,0.0
632,14995715.479317851
686,0.9999999999999986
687,0.9999999999999986
688,1.9999999999999971
2,1, 1,21, 0, 5,50.00,60.00,WinterDesignDay
250,21.6581007828187
251,14474525.647727165
336,0.0
385,21.623583445052454
386,26.760696035465998
387,-17.566883354489505
388,0.0
425,0.0
450,0.0
451,0.0
452,-18.239802466684562
453,0.0
490,0.0
515,0.0
516,0.0
542,0.0
592,0.0
632,14082502.359932097
686,1.0000000000000009
687,1.0000000000000009
688,2.0000000000000018
2,1, 1,21, 0, 6, 0.00,10.00,WinterDesignDay
250,21.902941421276697
251,15461162.78586468
336,0.0
385,22.290250111719104
386,26.76069603546598
387,-17.566775826166356
388,0.0
425,0.0
450,0.0
451,0.0
452,-18.23973608608038
453,0.0
490,0.0
515,0.0
516,0.0
542,0.0
592,0.0
632,15937234.517445186
686,1.0
687,1.0
688,2.0
2,1, 1,21, 0, 6,10.00,20.00,WinterDesignDay
250,22.255605622219825
251,16561390.584950931
336,0.0
385,22.290250111719104
386,26.76069603546598
387,-17.5667789003663
388,0.0
425,0.0
450,0.0
451,0.0
452,-18.2395924564671
453,0.0
490,0.0
515,0.0
516,0.0
542,0.0
592,0.0
632,16403836.153623557
686,1.0
687,1.0
688,2.0
2,1, 1,21, 0, 6,20.00,30.00,WinterDesignDay
250,21.27706422875118
251,15353980.970756251
336,0.0
385,21.623583445052454
386,26.760696035466
387,-17.566887833540108
388,0.0
425,0.0
450,0.0
451,0.0
452,-18.239683394634994
453,0.0
490,0.0
515,0.0
516,0.0
542,0.0
592,0.0
632,14995715.501490708
686,1.0000000000000007
687,1.0000000000000007
688,2.0000000000000013
2,1, 1,21, 0, 6,30.00,40.00,WinterDesignDay
250,21.65810078275259
251,14474525.675323904
336,0.0
385,21.623583445052454
386,26.760696035465998
387,-17.56688665395842
388,0.0
425,0.0
450,0.0
451,0.0
452,-18.239802793213013
453,0.0
490,0.0
515,0.0
516,0.0
542,0.0
592,0.0
632,14082502.387752373
686,1.0000000000000009
687,1.0000000000000009
688,2.0000000000000018
2,1, 1,21, 0, 6,40.00,50.00,WinterDesignDay
250,21.902941421444627
251,15461162.813325252
336,0.0
385,22.290250111719104
386,26.76069603546598
387,-17.566779075529666
388,0.0
425,0.0
450,0.0
451,0.0
452,-18.239736407655865
453,0.0
490,0.0
515,0.0
516,0.0
542,0.0
592,0.0
632,15937234.545024028
686,1.0
687,1.0
688,2.0
2,1, 1,21, 0, 6,50.00,60.00,WinterDesignDay
250,22.255605622245533
251,16561390.612710064
336,0.0
385,22.290250111719104
386,26.76069603546598
387,-17.566782106004204
388,0.0
425,0.0
450,0.0
451,0.0
452,-18.23959277381821
453,0.0
490,0.0
515,0.0
516,0.0
542,0.0
592,0.0
632,16403836.181340106
686,1.0
687,1.0
688,2.0
2,1, 1,21, 0, 7, 0.00,10.00,WinterDesignDay
250,21.277064227515083
251,15353980.992104314
336,0.0
385,21.62358344505244
386,26.76069603546598
387,-17.56689100204274
388,0.0
425,0.0
450,0.0
451,0.0
452,-18.23968370831603
453,0.0
490,0.0
515,0.0
516,0.0
542,0.0
592,0.0
632,14995715.522517674
686,1.0
687,1.0
688,2.0
2,1, 1,21, 0, 7,10.00,20.00,WinterDesignDay
250,21.65810078268988
251,14474525.70149442
336,0.0
385,21.623583445052436
386,26.760696035465976
387,-17.56688978290149
388,0.0
425,0.0
450,0.0
451,0.0
452,-18.2398031028676
453,0.0
490,0.0
515,0.0
516,0.0
542,0.0
592,0.0
632,14082502.414134879
686,1.0
687,1.0
688,2.0
2,1, 1,21, 0, 7,20.00,30.00,WinterDesignDay
250,21.90294142160388
251,15461162.839366581
336,0.0
385,22.290250111719104
386,26.76069603546598
387,-17.566782156956464
388,0.0
425,0.0
450,0.0
451,0.0
452,-18.239736712613425
453,0.0
490,0.0
515,0.0
516,0.0
542,0.0
592,0.0
632,15937234.571177512
686,1.0
687,1.0
688,2.0
2,1, 1,21, 0, 7,30.00,40.00,WinterDesignDay
250,22.255605622269915
251,16561390.639034526
336,0.0
385,22.290250111719104
386,26.76069603546598
387,-17.566785145965206
388,0.0
425,0.0
450,0.0
451,0.0
452,-18.239593074769633
453,0.0
490,0.0
515,0.0
516,0.0
542,0.0
592,0.0
632,16403836.20762419
686,1.0
687,1.0
688,2.0
2,1, 1,21, 0, 7,40.00,50.00,WinterDesignDay
250,21.27706422634286
251,15353981.012348987
336,0.0
385,21.623583445052407
386,26.76069603546594
387,-17.566894006787564
388,0.0
425,0.0
450,0.0
451,0.0
452,-18.239684005786987
453,0.0
490,0.0
515,0.0
516,0.0
542,0.0
592,0.0
632,14995715.542457845
686,0.9999999999999986
687,0.9999999999999986
688,1.9999999999999971
2,1, 1,21, 0, 7,50.00,60.00,WinterDesignDay
250,21.65810078263044
251,14474525.726312231
336,0.0
385,21.623583445052454
386,26.760696035465998
387,-17.566892750131377
388,0.0
425,0.0
450,0.0
451,0.0
452,-18.23980339652021
453,0.0
490,0.0
515,0.0
516,0.0
542,0.0
592,0.0
632,14082502.43915372
686,1.0000000000000009
687,1.0000000000000009
688,2.0000000000000018
2,1, 1,21, 0, 8, 0.00,10.00,WinterDesignDay
250,21.902941421754896
251,15461162.864061944
336,0.0
385,22.290250111719104
386,26.76069603546598
387,-17.566785079125737
388,0.0
425,0.0
450,0.0
451,0.0
452,-18.239737001811662
453,0.0
490,0.0
515,0.0
516,0.0
542,0.0
592,0.0
632,15937234.595979234
686,1.0
687,1.0
688,2.0
2,1, 1,21, 0, 8,10.00,20.00,WinterDesignDay
250,22.255605622293032
251,16561390.663998345
336,0.0
385,22.290250111719104
386,26.76069603546598
387,-17.566788028811555
388,0.0
425,0.0
450,0.0
451,0.0
452,-18.239593360168733
453,0.0
490,0.0
515,0.0
516,0.0
542,0.0
592,0.0
632,16403836.232549712
686,1.0
687,1.0
688,2.0
2,1, 1,21, 0, 8,20.00,30.00,WinterDesignDay
250,21.277064225231292
251,15353981.03154729
336,0.0
385,21.623583445052454
386,26.760696035466
387,-17.56689685623764
388,0.0
425,0.0
450,0.0
451,0.0
452,-18.23968428788551
453,0.0
490,0.0
515,0.0
516,0.0
542,0.0
592,0.0
632,14995715.561367383
686,1.0000000000000007
687,1.0000000000000007
688,2.0000000000000013
2,1, 1,21, 0, 8,30.00,40.00,WinterDesignDay
250,21.65810078257406
251,14474525.74984734
336,0.0
385,21.623583445052454
386,26.760696035465998
387,-17.566895564005115
388,0.0
425,0.0
450,0.0
451,0.0
452,-18.23980367499759
453,0.0
490,0.0
515,0.0
516,0.0
542,0.0
592,0.0
632,14082502.462879464
686,1.0000000000000009
687,1.0000000000000009
688,2.0000000000000018
2,1, 1,21, 0, 8,40.00,50.00,WinterDesignDay
250,21.902941421898113
251,15461162.88748091
336,0.0
385,22.290250111719104
386,26.76069603546598
387,-17.566787850267847
388,0.0
425,0.0
450,0.0
451,0.0
452,-18.23973727606484
453,0.0
490,0.0
515,0.0
516,0.0
542,0.0
592,0.0
632,15937234.619499067
686,1.0
687,1.0
688,2.0
2,1, 1,21, 0, 8,50.00,60.00,WinterDesignDay
250,22.25560562231496
251,16561390.687671946
336,0.0
385,22.290250111719104
386,26.76069603546598
387,-17.56679076266311
388,0.0
425,0.0
450,0.0
451,0.0
452,-18.239593630819073
453,0.0
490,0.0
515,0.0
516,0.0
542,0.0
592,0.0
632,16403836.256187
686,1.0
687,1.0
688,2.0
2,1, 1,21, 0, 9, 0.00,10.00,WinterDesignDay
250,21.277064224177124
251,15353981.04975329
336,0.0
385,21.62358344505244
386,26.76069603546598
387,-17.56689955841884
388,0.0
425,0.0
450,0.0
451,0.0
452,-18.23968455540576
453,0.0
490,0.0
515,0.0
516,0.0
542,0.0
592,0.0
632,14995715.579299543
686,1.0
687,1.0
688,2.0
2,1, 1,21, 0, 9,10.00,20.00,WinterDesignDay
250,21.658100782520574
251,14474525.772166114
336,0.0
385,21.623583445052436
386,26.760696035465976
387,-17.56689823244882
388,0.0
425,0.0
450,0.0
451,0.0
452,-18.23980393908384
453,0.0
490,0.0
515,0.0
516,0.0
542,0.0
592,0.0
632,14082502.485379022
686,1.0
687,1.0
688,2.0
2,1, 1,21, 0, 9,20.00,30.00,WinterDesignDay
250,21.902941422033923
251,15461162.909689505
336,0.0
385,22.290250111719104
386,26.76069603546598
387,-17.566790478188402
388,0.0
425,0.0
450,0.0
451,0.0
452,-18.239737536145178
453,0.0
490,0.0
515,0.0
516,0.0
542,0.0
592,0.0
632,15937234.641803306
686,1.0
687,1.0
688,2.0
2,1, 1,21, 0, 9,30.00,40.00,WinterDesignDay
250,22.25560562233575
251,16561390.710121932
336,0.0
385,22.290250111719104
386,26.76069603546598
387,-17.566793355220444
388,0.0
425,0.0
450,0.0
451,0.0
452,-18.23959388748273
453,0.0
490,0.0
515,0.0
516,0.0
542,0.0
592,0.0
632,16403836.278602548
686,1.0
687,1.0
688,2.0
2,1, 1,21, 0, 9,40.00,50.00,WinterDesignDay
250,21.27706422317743
251,15353981.06701836
336,0.0
385,21.623583445052407
386,26.76069603546594
387,-17.566902120942547
388,0.0
425,0.0
450,0.0
451,0.0
452,-18.239684809101046
453,0.0
490,0.0
515,0.0
516,0.0
542,0.0
592,0.0
632,14995715.59630493
686,0.9999999999999986
687,0.9999999999999986
688,1.9999999999999971
2,1, 1,21, 0, 9,50.00,60.00,WinterDesignDay
250,21.658100782469887
251,14474525.793331197
336,0.0
385,21.623583445052454
386,26.760696035465998
387,-17.566900762978545
388,0.0
425,0.0
450,0.0
451,0.0
452,-18.239804189522605
453,0.0
490,0.0
515,0.0
516,0.0
542,0.0
592,0.0
632,14082502.506715547
686,1.0000000000000009
687,1.0000000000000009
688,2.0000000000000018
2,1, 1,21, 0,10, 0.00,10.00,WinterDesignDay
250,21.902941422162716
251,15461162.930750212
336,0.0
385,22.290250111719104
386,26.76069603546598
387,-17.56679297028887
388,0.0
425,0.0
450,0.0
451,0.0
452,-18.239737782784992
453,0.0
490,0.0
515,0.0
516,0.0
542,0.0
592,0.0
632,15937234.66295472
686,1.0
687,1.0
688,2.0
2,1, 1,21, 0,10,10.00,20.00,WinterDesignDay
250,22.255605622355468
251,16561390.731411591
336,0.0
385,22.290250111719104
386,26.76069603546598
387,-17.566795813785134
388,0.0
425,0.0
450,0.0
451,0.0
452,-18.239594130882402
453,0.0
490,0.0
515,0.0
516,0.0
542,0.0
592,0.0
632,16403836.299859552
686,1.0
687,1.0
688,2.0
2,1, 1,21, 0,10,20.00,30.00,WinterDesignDay
250,21.277064222229473
251,15353981.08339102
336,0.0
385,21.623583445052454
386,26.760696035466
387,-17.566904551026187
388,0.0
425,0.0
450,0.0
451,0.0
452,-18.239685049685786
453,0.0
490,0.0
515,0.0
516,0.0
542,0.0
592,0.0
632,14995715.612431332
686,1.0000000000000007
687,1.0000000000000007
688,2.0000000000000013
2,1, 1,21, 0,10,30.00,40.00,WinterDesignDay
250,21.658100782421805
251,14474525.813402422
336,0.0
385,21.623583445052454
386,26.760696035465998
387,-17.566903162721598
388,0.0
425,0.0
450,0.0
451,0.0
452,-18.23980442701903
453,0.0
490,0.0
515,0.0
516,0.0
542,0.0
592,0.0
632,14082502.526949357
686,1.0000000000000009
687,1.0000000000000009
688,2.0000000000000018
2,1, 1,21, 0,10,40.00,50.00,WinterDesignDay
250,21.902941422284854
251,15461162.950722411
336,0.0
385,22.290250111719104
386,26.76069603546598
387,-17.566795333589027
388,0.0
425,0.0
450,0.0
451,0.0
452,-18.23973801667879
453,0.0
490,0.0
515,0.0
516,0.0
542,0.0
592,0.0
632,15937234.68301294
686,1.0
687,1.0
688,2.0
2,1, 1,21, 0,10,50.00,60.00,WinterDesignDay
250,22.25560562237417
251,16561390.751600832
336,0.0
385,22.290250111719104
386,26.76069603546598
387,-17.566798145282938
388,0.0
425,0.0
450,0.0
451,0.0
452,-18.23959436170348
453,0.0
490,0.0
515,0.0
516,0.0
542,0.0
592,0.0
632,16403836.320017818
686,1.0
687,1.0
688,2.0
2,1, 1,21, 0,11, 0.00,10.00,WinterDesignDay
250,21.27706422133045
251,15353981.098917514
336,0.0
385,21.62358344505244
386,26.76069603546598
387,-17.56690685551445
388,0.0
425,0.0
450,0.0
451,0.0
452,-18.23968527783733
453,0.0
490,0.0
515,0.0
516,0.0
542,0.0
592,0.0
632,14995715.627724286
686,1.0
687,1.0
688,2.0
2,1, 1,21, 0,11,10.00,20.00,WinterDesignDay
250,21.658100782376188
251,14474525.832436297
336,0.0
385,21.623583445052436
386,26.760696035465976
387,-17.56690543843734
388,0.0
425,0.0
450,0.0
451,0.0
452,-18.239804652241883
453,0.0
490,0.0
515,0.0
516,0.0
542,0.0
592,0.0
632,14082502.546137413
686,1.0
687,1.0
688,2.0
2,1, 1,21, 0,11,20.00,30.00,WinterDesignDay
250,21.902941422400673
251,15461162.969662303
336,0.0
385,22.290250111719104
386,26.76069603546598
387,-17.566797574745124
388,0.0
425,0.0
450,0.0
451,0.0
452,-18.239738238485184
453,0.0
490,0.0
515,0.0
516,0.0
542,0.0
592,0.0
632,15937234.702034399
686,1.0
687,1.0
688,2.0
2,1, 1,21, 0,11,30.00,40.00,WinterDesignDay
250,22.255605622391897
251,16561390.770746749
336,0.0
385,22.290250111719104
386,26.76069603546598
387,-17.566800356279877
388,0.0
425,0.0
450,0.0
451,0.0
452,-18.23959458059593
453,0.0
490,0.0
515,0.0
516,0.0
542,0.0
592,0.0
632,16403836.33913437
686,1.0
687,1.0
688,2.0
2,1, 1,21, 0,11,40.00,50.00,WinterDesignDay
250,21.27706422047788
251,15353981.113641562
336,0.0
385,21.623583445052407
386,26.76069603546594
387,-17.56690904089783
388,0.0
425,0.0
450,0.0
451,0.0
452,-18.23968549419818
453,0.0
490,0.0
515,0.0
516,0.0
542,0.0
592,0.0
632,14995715.642226867
686,0.9999999999999986
687,0.9999999999999986
688,1.9999999999999971
2,1, 1,21, 0,11,50.00,60.00,WinterDesignDay
250,21.658100782332966
251,14474525.850486439
336,0.0
385,21.623583445052454
386,26.760696035465998
387,-17.566907596535486
388,0.0
425,0.0
450,0.0
451,0.0
452,-18.23980486582539
453,0.0
490,0.0
515,0.0
516,0.0
542,0.0
592,0.0
632,14082502.564333763
686,1.0000000000000009
687,1.0000000000000009
688,2.0000000000000018
2,1, 1,21, 0,12, 0.00,10.00,WinterDesignDay
250,21.902941422510512
251,15461162.987623347
336,0.0
385,22.290250111719104
386,26.76069603546598
387,-17.566799700070124
388,0.0
425,0.0
450,0.0
451,0.0
452,-18.239738448828742
453,0.0
490,0.0
515,0.0
516,0.0
542,0.0
592,0.0
632,15937234.7200728
686,1.0
687,1.0
688,2.0
2,1, 1,21, 0,12,10.00,20.00,WinterDesignDay
250,22.255605622408716
251,16561390.788903015
336,0.0
385,22.290250111719104
386,26.76069603546598
387,-17.566802453004655
388,0.0
425,0.0
450,0.0
451,0.0
452,-18.239594788176113
453,0.0
490,0.0
515,0.0
516,0.0
542,0.0
592,0.0
632,16403836.357262779
686,1.0
687,1.0
688,2.0
2,1, 1,21, 0,12,20.00,30.00,WinterDesignDay
250,21.277064219669448
251,15353981.127604542
336,0.0
385,21.623583445052454
386,26.760696035466
387,-17.566911113332914
388,0.0
425,0.0
450,0.0
451,0.0
452,-18.23968569937765
453,0.0
490,0.0
515,0.0
516,0.0
542,0.0
592,0.0
632,14995715.655979834
686,1.0000000000000007
687,1.0000000000000007
688,2.0000000000000013
2,1, 1,21, 0,12,30.00,40.00,WinterDesignDay
250,21.65810078229196
251,14474525.867603589
336,0.0
385,21.623583445052454
386,26.760696035465998
387,-17.566909643095315
388,0.0
425,0.0
450,0.0
451,0.0
452,-18.239805068370984
453,0.0
490,0.0
515,0.0
516,0.0
542,0.0
592,0.0
632,14082502.581589561
686,1.0000000000000009
687,1.0000000000000009
688,2.0000000000000018
2,1, 1,21, 0,12,40.00,50.00,WinterDesignDay
250,21.90294142261467
251,15461163.00465606
336,0.0
385,22.290250111719104
386,26.76069603546598
387,-17.566801715550476
388,0.0
425,0.0
450,0.0
451,0.0
452,-18.239738648301824
453,0.0
490,0.0
515,0.0
516,0.0
542,0.0
592,0.0
632,15937234.737178866
686,1.0
687,1.0
688,2.0
2,1, 1,21, 0,12,50.00,60.00,WinterDesignDay
250,22.25560562242466
251,16561390.806120854
336,0.0
385,22.290250111719104
386,26.76069603546598
387,-17.566804441362855
388,0.0
425,0.0
450,0.0
451,0.0
452,-18.239594985028614
453,0.0
490,0.0
515,0.0
516,0.0
542,0.0
592,0.0
632,16403836.374454208
686,1.0
687,1.0
688,2.0
2,1, 1,21, 0,13, 0.00,10.00,WinterDesignDay
250,21.27706421890274
251,15353981.140845824
336,0.0
385,21.62358344505244
386,26.76069603546598
387,-17.56691307865642
388,0.0
425,0.0
450,0.0
451,0.0
452,-18.23968589395342
453,0.0
490,0.0
515,0.0
516,0.0
542,0.0
592,0.0
632,14995715.66902195
686,1.0
687,1.0
688,2.0
2,1, 1,21, 0,13,10.00,20.00,WinterDesignDay
250,21.658100782253054
251,14474525.883836035
336,0.0
385,21.623583445052436
386,26.760696035465976
387,-17.566911583880547
388,0.0
425,0.0
450,0.0
451,0.0
452,-18.23980526044901
453,0.0
490,0.0
515,0.0
516,0.0
542,0.0
592,0.0
632,14082502.597953495
686,1.0
687,1.0
688,2.0
2,1, 1,21, 0,13,20.00,30.00,WinterDesignDay
250,21.90294142271345
251,15461163.020808417
336,0.0
385,22.290250111719104
386,26.76069603546598
387,-17.566803626862217
388,0.0
425,0.0
450,0.0
451,0.0
452,-18.23973883746613
453,0.0
490,0.0
515,0.0
516,0.0
542,0.0
592,0.0
632,15937234.753400795
686,1.0
687,1.0
688,2.0
2,1, 1,21, 0,13,30.00,40.00,WinterDesignDay
250,22.255605622439788
251,16561390.822448835
336,0.0
385,22.290250111719104
386,26.76069603546598
387,-17.56680632695428
388,0.0
425,0.0
450,0.0
451,0.0
452,-18.23959517170775
453,0.0
490,0.0
515,0.0
516,0.0
542,0.0
592,0.0
632,16403836.39075714
686,1.0
687,1.0
688,2.0
2,1, 1,21, 0,13,40.00,50.00,WinterDesignDay
250,21.27706421817565
251,15353981.153402729
336,0.0
385,21.623583445052407
386,26.76069603546594
387,-17.566914942404036
388,0.0
425,0.0
450,0.0
451,0.0
452,-18.239686078473465
453,0.0
490,0.0
515,0.0
516,0.0
542,0.0
592,0.0
632,14995715.681389987
686,0.9999999999999986
687,0.9999999999999986
688,1.9999999999999971
2,1, 1,21, 0,13,50.00,60.00,WinterDesignDay
250,21.658100782216195
251,14474525.899229556
336,0.0
385,21.623583445052454
386,26.760696035465998
387,-17.566913424358567
388,0.0
425,0.0
450,0.0
451,0.0
452,-18.23980544260042
453,0.0
490,0.0
515,0.0
516,0.0
542,0.0
592,0.0
632,14082502.613471702
686,1.0000000000000009
687,1.0000000000000009
688,2.0000000000000018
2,1, 1,21, 0,14, 0.00,10.00,WinterDesignDay
250,21.902941422807118
251,15461163.03612598
336,0.0
385,22.290250111719104
386,26.76069603546598
387,-17.56680543939037
388,0.0
425,0.0
450,0.0
451,0.0
452,-18.23973901685435
453,0.0
490,0.0
515,0.0
516,0.0
542,0.0
592,0.0
632,15937234.768784324
686,1.0
687,1.0
688,2.0
2,1, 1,21, 0,14,10.00,20.00,WinterDesignDay
250,22.255605622454127
251,16561390.837932907
336,0.0
385,22.290250111719104
386,26.76069603546598
387,-17.56680811509142
388,0.0
425,0.0
450,0.0
451,0.0
452,-18.239595348739236
453,0.0
490,0.0
515,0.0
516,0.0
542,0.0
592,0.0
632,16403836.406217463
686,1.0
687,1.0
688,2.0
2,1, 1,21, 0,14,20.00,30.00,WinterDesignDay
250,21.27706421748621
251,15353981.1653107
336,0.0
385,21.623583445052454
386,26.760696035466
387,-17.566916709826398
388,0.0
425,0.0
450,0.0
451,0.0
452,-18.239686253457506
453,0.0
490,0.0
515,0.0
516,0.0
542,0.0
592,0.0
632,14995715.693118848
686,1.0000000000000007
687,1.0000000000000007
688,2.0000000000000013
2,1, 1,21, 0,14,30.00,40.00,WinterDesignDay
250,21.65810078218123
251,14474525.91382753
336,0.0
385,21.623583445052454
386,26.760696035465998
387,-17.566915169713845
388,0.0
425,0.0
450,0.0
451,0.0
452,-18.239805615338156
453,0.0
490,0.0
515,0.0
516,0.0
542,0.0
592,0.0
632,14082502.628187925
686,1.0000000000000009
687,1.0000000000000009
688,2.0000000000000018
2,1, 1,21, 0,14,40.00,50.00,WinterDesignDay
250,21.902941422895953
251,15461163.050651878
336,0.0
385,22.290250111719104
386,26.76069603546598
387,-17.566807158240024
388,0.0
425,0.0
450,0.0
451,0.0
452,-18.239739186971725
453,0.0
490,0.0
515,0.0
516,0.0
542,0.0
592,0.0
632,15937234.783372784
686,1.0
687,1.0
688,2.0