Program Version,EnergyPlus, Version 24.2.0-94a887817b, YMD=2025.01.30 20:35
1,5,Environment Title[],Latitude[deg],Longitude[deg],Time Zone[],Elevation[m]
2,8,Day of Simulation[],Month[],Day of Month[],DST Indicator[1=yes 0=no],Hour[],StartMinute[],EndMinute[],DayType
3,5,Cumulative Day of Simulation[],Month[],Day of Month[],DST Indicator[1=yes 0=no],DayType  ! When Daily Meters Requested
4,2,Cumulative Days of Simulation[],Month[]  ! When Monthly Meters Requested
5,1,Cumulative Days of Simulation[] ! When Run Period Meters Requested
6,1,Calendar Year of Simulation[] ! When Annual Meters Requested
11,9,Electricity:Facility [J] !Monthly [Value,Min,Day,Hour,Minute,Max,Day,Hour,Minute]
23,9,Electricity:Building [J] !Monthly [Value,Min,Day,Hour,Minute,Max,Day,Hour,Minute]
59,9,InteriorLights:Electricity [J] !Monthly [Value,Min,Day,Hour,Minute,Max,Day,Hour,Minute]
521,9,Electricity:HVAC [J] !Monthly [Value,Min,Day,Hour,Minute,Max,Day,Hour,Minute]
637,9,NaturalGas:Facility [J] !Monthly [Value,Min,Day,Hour,Minute,Max,Day,Hour,Minute]
649,9,NaturalGas:HVAC [J] !Monthly [Value,Min,Day,Hour,Minute,Max,Day,Hour,Minute]
13,11,Electricity:Facility [J] !RunPeriod [Value,Min,Month,Day,Hour,Minute,Max,Month,Day,Hour,Minute]
25,11,Electricity:Building [J] !RunPeriod [Value,Min,Month,Day,Hour,Minute,Max,Month,Day,Hour,Minute]
61,11,InteriorLights:Electricity [J] !RunPeriod [Value,Min,Month,Day,Hour,Minute,Max,Month,Day,Hour,Minute]
523,11,Electricity:HVAC [J] !RunPeriod [Value,Min,Month,Day,Hour,Minute,Max,Month,Day,Hour,Minute]
639,11,NaturalGas:Facility [J] !RunPeriod [Value,Min,Month,Day,Hour,Minute,Max,Month,Day,Hour,Minute]
651,11,NaturalGas:HVAC [J] !RunPeriod [Value,Min,Month,Day,Hour,Minute,Max,Month,Day,Hour,Minute]
End of Data Dictionary
1,RUN PERIOD 1,  41.98, -87.92,  -6.00, 201.00
4,31, 1
11,8298013242.935993,384780.0140430523,16,19,50,3420562.13722969,25,12,10
23,1908899959.700952,121995.29689340686,17,19,30,1037732.215706504, 7, 9,20
59,970200000.0,30000.0, 1, 1,10,600000.0, 1, 8,10
521,6389113283.235099,0.0,16,16,10,2442334.481779757,12, 8,50
637,24762349312.488235,0.0, 1,12,60,23731706.827470187,27, 8,20
649,24762349312.488235,0.0, 1,12,60,23731706.827470187,27, 8,20
4,59, 2
11,7229000459.840803,111487.23322310719,23,15,20,3441163.0182274,14, 9,40
23,1664278010.7844405,108626.79181868871,23,14,60,-99999999999999.0, 7, 9,20
59,848160000.0,99999999999999.0, 1, 1,10,-99999999999999.0, 1, 8,10
521,5564722449.056358,99999999999999.0,16,16,10,2448710.2226381614,25, 8,60
637,16461210903.577206,99999999999999.0, 1,12,60,-99999999999999.0,27, 8,20
649,16461210903.577206,99999999999999.0, 1,12,60,-99999999999999.0,27, 8,20
4,90, 3
11,6060928840.95978,96056.30960816013,27,19,60,-99999999999999.0,14, 9,40
23,1718534174.064926,96056.30960816013,27,19,60,-99999999999999.0, 7, 9,20
59,897480000.0,99999999999999.0, 1, 1,10,-99999999999999.0, 1, 8,10
521,4342394666.894829,99999999999999.0,16,16,10,-99999999999999.0,25, 8,60
637,7708675389.524182,99999999999999.0, 1,12,60,-99999999999999.0,27, 8,20
649,7708675389.524182,99999999999999.0, 1,12,60,-99999999999999.0,27, 8,20
4,120, 4
11,4401331026.621432,30000.0,18,22,60,-99999999999999.0,14, 9,40
23,1670126652.031582,30000.0,15,19,10,-99999999999999.0, 7, 9,20
59,929520000.0,99999999999999.0, 1, 1,10,-99999999999999.0, 1, 8,10
521,2731204374.58984,99999999999999.0,16,16,10,-99999999999999.0,25, 8,60
637,4259636100.6398153,99999999999999.0, 1,12,60,-99999999999999.0,27, 8,20
649,4259636100.6398153,99999999999999.0, 1,12,60,-99999999999999.0,27, 8,20
4,151, 5
11,2766124415.6093316,99999999999999.0,18,22,60,-99999999999999.0,14, 9,40
23,1670092965.0396013,99999999999999.0,15,19,10,-99999999999999.0, 7, 9,20
59,970200000.0,99999999999999.0, 1, 1,10,-99999999999999.0, 1, 8,10
521,1096031450.569747,99999999999999.0,16,16,10,-99999999999999.0,25, 8,60
637,522079362.2999981,99999999999999.0, 1,12,60,-99999999999999.0,27, 8,20
649,522079362.2999981,99999999999999.0, 1,12,60,-99999999999999.0,27, 8,20
4,181, 6
11,2767703194.9644284,99999999999999.0,18,22,60,-99999999999999.0,14, 9,40
23,1425522547.9428165,99999999999999.0,15,19,10,-99999999999999.0, 7, 9,20
59,856800000.0,99999999999999.0, 1, 1,10,-99999999999999.0, 1, 8,10
521,1342180647.0216234,99999999999999.0,16,16,10,-99999999999999.0,25, 8,60
637,24051247.45883863,99999999999999.0, 1,12,60,-99999999999999.0,27, 8,20
649,24051247.45883863,99999999999999.0, 1,12,60,-99999999999999.0,27, 8,20
4,212, 7
11,3653380936.334838,99999999999999.0,18,22,60,-99999999999999.0,14, 9,40
23,1523500928.3669896,99999999999999.0,15,19,10,-99999999999999.0, 7, 9,20
59,970200000.0,99999999999999.0, 1, 1,10,-99999999999999.0, 1, 8,10
521,2129880007.9678655,99999999999999.0,16,16,10,-99999999999999.0,25, 8,60
637,0.0,99999999999999.0, 1,12,60,-99999999999999.0,27, 8,20
649,0.0,99999999999999.0, 1,12,60,-99999999999999.0,27, 8,20
4,243, 8
11,2912874755.4564247,99999999999999.0,18,22,60,-99999999999999.0,14, 9,40
23,1532779536.346915,99999999999999.0,15,19,10,-99999999999999.0, 7, 9,20
59,933840000.0,99999999999999.0, 1, 1,10,-99999999999999.0, 1, 8,10
521,1380095219.1095295,99999999999999.0,16,16,10,-99999999999999.0,25, 8,60
637,5113709.257282779,99999999999999.0, 1,12,60,-99999999999999.0,27, 8,20
649,5113709.257282779,99999999999999.0, 1,12,60,-99999999999999.0,27, 8,20
4,273, 9
11,2421872252.626503,99999999999999.0,18,22,60,-99999999999999.0,14, 9,40
23,1521303822.8018715,99999999999999.0,15,19,10,-99999999999999.0, 7, 9,20
59,893160000.0,99999999999999.0, 1, 1,10,-99999999999999.0, 1, 8,10
521,900568429.8246369,99999999999999.0,16,16,10,-99999999999999.0,25, 8,60
637,98987607.17528076,99999999999999.0, 1,12,60,-99999999999999.0,27, 8,20
649,98987607.17528076,99999999999999.0, 1,12,60,-99999999999999.0,27, 8,20
4,304,10
11,3306063851.714766,99999999999999.0,18,22,60,-99999999999999.0,14, 9,40
23,1738006869.8895307,99999999999999.0,15,19,10,-99999999999999.0, 7, 9,20
59,970200000.0,99999999999999.0, 1, 1,10,-99999999999999.0, 1, 8,10
521,1568056981.8252187,99999999999999.0,16,16,10,-99999999999999.0,25, 8,60
637,2352664101.552486,99999999999999.0, 1,12,60,-99999999999999.0,27, 8,20
649,2352664101.552486,99999999999999.0, 1,12,60,-99999999999999.0,27, 8,20
4,334,11
11,5718866960.300507,99999999999999.0,18,22,60,-99999999999999.0,14, 9,40
23,1685276153.7804625,99999999999999.0,15,19,10,-99999999999999.0, 7, 9,20
59,893160000.0,99999999999999.0, 1, 1,10,-99999999999999.0, 1, 8,10
521,4033590806.5200434,99999999999999.0,16,16,10,-99999999999999.0,25, 8,60
637,9004252837.46592,99999999999999.0, 1,12,60,-99999999999999.0,27, 8,20
649,9004252837.46592,99999999999999.0, 1,12,60,-99999999999999.0,27, 8,20
4,365,12
11,8857153671.362953,99999999999999.0,18,22,60,-99999999999999.0,14, 9,40
23,1835263830.9948497,99999999999999.0,15,19,10,-99999999999999.0, 7, 9,20
59,933840000.0,99999999999999.0, 1, 1,10,-99999999999999.0, 1, 8,10
521,7021889840.368069,99999999999999.0,16,16,10,-99999999999999.0,25, 8,60
637,19763573687.06581,99999999999999.0, 1,12,60,-99999999999999.0,27, 8,20
649,19763573687.06581,99999999999999.0, 1,12,60,-99999999999999.0,27, 8,20
5,365
13,58393313608.72815,30000.0, 4,18,22,60,3441163.0182274, 2,14, 9,40
25,19893585451.74558,30000.0, 4,15,19,10,1037732.215706504, 1, 7, 9,20
61,11066760000.0,30000.0, 1, 1, 1,10,600000.0, 1, 1, 8,10
523,38499728156.98338,0.0, 1,16,16,10,2448710.2226381614, 2,25, 8,60
639,84962594258.50444,0.0, 1, 1,12,60,23731706.827470187, 1,27, 8,20
651,84962594258.50444,0.0, 1, 1,12,60,23731706.827470187, 1,27, 8,20
1,RUN PERIOD 2,  41.98, -87.92,  -6.00, 201.00
4,1, 7
11,113061180.54510646,99999999999999.0,18,22,60,-99999999999999.0,14, 9,40
23,64004554.33254119,99999999999999.0,15,19,10,-99999999999999.0, 7, 9,20
59,40680000.0,99999999999999.0, 1, 1,10,-99999999999999.0, 1, 8,10
521,49056626.212565355,99999999999999.0,16,16,10,-99999999999999.0,25, 8,60
637,0.0,99999999999999.0, 1,12,60,-99999999999999.0,27, 8,20
649,0.0,99999999999999.0, 1,12,60,-99999999999999.0,27, 8,20
5,1
13,113061180.54510646,99999999999999.0, 4,18,22,60,-99999999999999.0, 2,14, 9,40
25,64004554.33254119,99999999999999.0, 4,15,19,10,-99999999999999.0, 1, 7, 9,20
61,40680000.0,99999999999999.0, 1, 1, 1,10,-99999999999999.0, 1, 1, 8,10
523,49056626.212565355,99999999999999.0, 1,16,16,10,-99999999999999.0, 2,25, 8,60
639,0.0,99999999999999.0, 1, 1,12,60,-99999999999999.0, 1,27, 8,20
651,0.0,99999999999999.0, 1, 1,12,60,-99999999999999.0, 1,27, 8,20
End of Data
 Number of Records Written=          90
