Program Version,EnergyPlus, Version 24.2.0-94a887817b, YMD=2025.02.04 15:40
1,5,Environment Title[],Latitude[deg],Longitude[deg],Time Zone[],Elevation[m]
2,8,Day of Simulation[],Month[],Day of Month[],DST Indicator[1=yes 0=no],Hour[],StartMinute[],EndMinute[],DayType
3,5,Cumulative Day of Simulation[],Month[],Day of Month[],DST Indicator[1=yes 0=no],DayType  ! When Daily Meters Requested
4,2,Cumulative Days of Simulation[],Month[]  ! When Monthly Meters Requested
5,1,Cumulative Days of Simulation[] ! When Run Period Meters Requested
6,1,Calendar Year of Simulation[] ! When Annual Meters Requested
11,9,Electricity:Facility [J] !Monthly [Value,Min,Day,Hour,Minute,Max,Day,Hour,Minute]
23,9,Electricity:Building [J] !Monthly [Value,Min,Day,Hour,Minute,Max,Day,Hour,Minute]
59,9,InteriorLights:Electricity [J] !Monthly [Value,Min,Day,Hour,Minute,Max,Day,Hour,Minute]
521,9,Electricity:HVAC [J] !Monthly [Value,Min,Day,Hour,Minute,Max,Day,Hour,Minute]
637,9,NaturalGas:Facility [J] !Monthly [Value,Min,Day,Hour,Minute,Max,Day,Hour,Minute]
649,9,NaturalGas:HVAC [J] !Monthly [Value,Min,Day,Hour,Minute,Max,Day,Hour,Minute]
13,11,Electricity:Facility [J] !RunPeriod [Value,Min,Month,Day,Hour,Minute,Max,Month,Day,Hour,Minute]
25,11,Electricity:Building [J] !RunPeriod [Value,Min,Month,Day,Hour,Minute,Max,Month,Day,Hour,Minute]
61,11,InteriorLights:Electricity [J] !RunPeriod [Value,Min,Month,Day,Hour,Minute,Max,Month,Day,Hour,Minute]
523,11,Electricity:HVAC [J] !RunPeriod [Value,Min,Month,Day,Hour,Minute,Max,Month,Day,Hour,Minute]
639,11,NaturalGas:Facility [J] !RunPeriod [Value,Min,Month,Day,Hour,Minute,Max,Month,Day,Hour,Minute]
651,11,NaturalGas:HVAC [J] !RunPeriod [Value,Min,Month,Day,Hour,Minute,Max,Month,Day,Hour,Minute]
End of Data Dictionary
1,RUN PERIOD 1,  41.98, -87.92,  -6.00, 201.00
4,31, 1
11,9820922801.564186,408891.4285714286, 5, 6,50,2977931.7182837347,16,13,60
23,981872700.333172,30000.0, 1, 1,10,608458.4785023096, 1, 9,10
59,970200000.0,30000.0, 1, 1,10,600000.0, 1, 8,10
521,8839050101.230986,378891.4285714286, 5, 6,50,2369473.239781425,16,13,60
637,179017904210.1253,28253935.61767267,21,16,10,41250000.0, 1, 1,10
649,179017904210.1253,28253935.61767267,21,16,10,41250000.0, 1, 1,10
4,59, 2
11,9354686295.266644,99999999999999.0, 5, 6,50,3019393.1585468566,22,15,30
23,858310174.2027621,99999999999999.0, 1, 1,10,-99999999999999.0, 1, 9,10
59,848160000.0,99999999999999.0, 1, 1,10,-99999999999999.0, 1, 8,10
521,8496376121.063895,99999999999999.0, 5, 6,50,2410934.680044547,22,15,30
637,158403501112.34332,26565334.102203093,23,12,10,-99999999999999.0, 1, 1,10
649,158403501112.34332,26565334.102203093,23,12,10,-99999999999999.0, 1, 1,10
4,90, 3
11,10945481859.65245,308458.4785023097,27,18,10,3191337.417741975,27,13,60
23,908137682.9128985,99999999999999.0, 1, 1,10,-99999999999999.0, 1, 9,10
59,897480000.0,99999999999999.0, 1, 1,10,-99999999999999.0, 1, 8,10
521,10037344176.73954,0.0,27,14,10,2582878.9392396654,27,13,60
637,162282800179.1911,0.0,27,14,10,-99999999999999.0, 1, 1,10
649,162282800179.1911,0.0,27,14,10,-99999999999999.0, 1, 1,10
4,120, 4
11,9554637777.481316,30000.0,11,19,10,-99999999999999.0,27,13,60
23,940685191.6230356,99999999999999.0, 1, 1,10,-99999999999999.0, 1, 9,10
59,929520000.0,99999999999999.0, 1, 1,10,-99999999999999.0, 1, 8,10
521,8613952585.858265,99999999999999.0,27,14,10,-99999999999999.0,27,13,60
637,118881145255.25034,99999999999999.0,27,14,10,-99999999999999.0, 1, 1,10
649,118881145255.25034,99999999999999.0,27,14,10,-99999999999999.0, 1, 1,10
4,151, 5
11,8866738451.105423,99999999999999.0,11,19,10,-99999999999999.0,27,13,60
23,982134094.1373807,99999999999999.0, 1, 1,10,624370.9299857586,28,13,10
59,970200000.0,99999999999999.0, 1, 1,10,-99999999999999.0, 1, 8,10
521,7884604356.968044,99999999999999.0,27,14,10,-99999999999999.0,27,13,60
637,88266592509.52657,99999999999999.0,27,14,10,-99999999999999.0, 1, 1,10
649,88266592509.52657,99999999999999.0,27,14,10,-99999999999999.0, 1, 1,10
4,181, 6
11,7198287149.4500065,99999999999999.0,11,19,10,-99999999999999.0,27,13,60
23,866963133.6490295,99999999999999.0, 1, 1,10,-99999999999999.0,28,13,10
59,856800000.0,99999999999999.0, 1, 1,10,-99999999999999.0, 1, 8,10
521,6331324015.800997,99999999999999.0,27,14,10,2585833.0057515716, 4, 3,60
637,35895113088.07282,99999999999999.0,27,14,10,-99999999999999.0, 1, 1,10
649,35895113088.07282,99999999999999.0,27,14,10,-99999999999999.0, 1, 1,10
4,212, 7
11,6909983384.670053,99999999999999.0,11,19,10,-99999999999999.0,27,13,60
23,982116200.1090208,99999999999999.0, 1, 1,10,-99999999999999.0,28,13,10
59,970200000.0,99999999999999.0, 1, 1,10,-99999999999999.0, 1, 8,10
521,5927867184.561039,99999999999999.0,27,14,10,-99999999999999.0, 4, 3,60
637,10557621093.029741,99999999999999.0,27,14,10,-99999999999999.0, 1, 1,10
649,10557621093.029741,99999999999999.0,27,14,10,-99999999999999.0, 1, 1,10
4,243, 8
11,6009858645.257946,99999999999999.0,11,19,10,-99999999999999.0,27,13,60
23,945283348.5063351,99999999999999.0, 1, 1,10,624473.411407052,12,14,10
59,933840000.0,99999999999999.0, 1, 1,10,-99999999999999.0, 1, 8,10
521,5064575296.751622,99999999999999.0,27,14,10,-99999999999999.0, 4, 3,60
637,21557023351.059505,99999999999999.0,27,14,10,-99999999999999.0, 1, 1,10
649,21557023351.059505,99999999999999.0,27,14,10,-99999999999999.0, 1, 1,10
4,273, 9
11,6764356672.876761,99999999999999.0,11,19,10,3198478.2646449916,25,13,30
23,903817682.9128989,99999999999999.0, 1, 1,10,-99999999999999.0,12,14,10
59,893160000.0,99999999999999.0, 1, 1,10,-99999999999999.0, 1, 8,10
521,5860538989.963884,99999999999999.0,27,14,10,2590019.7861426817,25,13,30
637,54989489899.28144,99999999999999.0,27,14,10,-99999999999999.0, 1, 1,10
649,54989489899.28144,99999999999999.0,27,14,10,-99999999999999.0, 1, 1,10
4,304,10
11,10372062813.82936,99999999999999.0,11,19,10,-99999999999999.0,25,13,30
23,981872700.333172,99999999999999.0, 1, 1,10,-99999999999999.0,12,14,10
59,970200000.0,99999999999999.0, 1, 1,10,-99999999999999.0, 1, 8,10
521,9390190113.496162,99999999999999.0,27,14,10,-99999999999999.0,25,13,30
637,126429863489.48174,99999999999999.0,27,14,10,-99999999999999.0, 1, 1,10
649,126429863489.48174,99999999999999.0,27,14,10,-99999999999999.0, 1, 1,10
4,334,11
11,10336083222.584145,99999999999999.0,11,19,10,-99999999999999.0,25,13,30
23,903817682.9128985,99999999999999.0, 1, 1,10,-99999999999999.0,12,14,10
59,893160000.0,99999999999999.0, 1, 1,10,-99999999999999.0, 1, 8,10
521,9432265539.671244,99999999999999.0,27,14,10,-99999999999999.0,25,13,30
637,146551396049.1859,99999999999999.0,27,14,10,-99999999999999.0, 1, 1,10
649,146551396049.1859,99999999999999.0,27,14,10,-99999999999999.0, 1, 1,10
4,365,12
11,10433955812.006866,99999999999999.0,11,19,10,-99999999999999.0,25,13,30
23,945005191.6230353,99999999999999.0, 1, 1,10,-99999999999999.0,12,14,10
59,933840000.0,99999999999999.0, 1, 1,10,-99999999999999.0, 1, 8,10
521,9488950620.383821,99999999999999.0,27,14,10,-99999999999999.0,25,13,30
637,179855810864.80203,99999999999999.0,27,14,10,-99999999999999.0, 1, 1,10
649,179855810864.80203,99999999999999.0,27,14,10,-99999999999999.0, 1, 1,10
5,365
13,106567054885.7453,30000.0, 4,11,19,10,3198478.2646449916, 9,25,13,30
25,11200015783.255266,30000.0, 1, 1, 1,10,624473.411407052, 8,12,14,10
61,11066760000.0,30000.0, 1, 1, 1,10,600000.0, 1, 1, 8,10
523,95367039102.49452,0.0, 3,27,14,10,2590019.7861426817, 9,25,13,30
639,1282688261101.3438,0.0, 3,27,14,10,41250000.0, 1, 1, 1,10
651,1282688261101.3438,0.0, 3,27,14,10,41250000.0, 1, 1, 1,10
1,RUN PERIOD 2,  41.98, -87.92,  -6.00, 201.00
4,1, 7
11,160771988.85760638,99999999999999.0,11,19,10,-99999999999999.0,25,13,30
23,41187508.71013862,99999999999999.0, 1, 1,10,-99999999999999.0,12,14,10
59,40680000.0,99999999999999.0, 1, 1,10,-99999999999999.0, 1, 8,10
521,119584480.14746784,99999999999999.0,27,14,10,-99999999999999.0,25,13,30
637,0.0,99999999999999.0,27,14,10,-99999999999999.0, 1, 1,10
649,0.0,99999999999999.0,27,14,10,-99999999999999.0, 1, 1,10
5,1
13,160771988.85760638,99999999999999.0, 4,11,19,10,-99999999999999.0, 9,25,13,30
25,41187508.71013862,99999999999999.0, 1, 1, 1,10,-99999999999999.0, 8,12,14,10
61,40680000.0,99999999999999.0, 1, 1, 1,10,-99999999999999.0, 1, 1, 8,10
523,119584480.14746784,99999999999999.0, 3,27,14,10,-99999999999999.0, 9,25,13,30
639,0.0,99999999999999.0, 3,27,14,10,-99999999999999.0, 1, 1, 1,10
651,0.0,99999999999999.0, 3,27,14,10,-99999999999999.0, 1, 1, 1,10
End of Data
 Number of Records Written=          90
