Program Version,EnergyPlus, Version 24.2.0-94a887817b, YMD=2025.02.04 15:40
1,5,Environment Title[],Latitude[deg],Longitude[deg],Time Zone[],Elevation[m]
2,8,Day of Simulation[],Month[],Day of Month[],DST Indicator[1=yes 0=no],Hour[],StartMinute[],EndMinute[],DayType
3,5,Cumulative Day of Simulation[],Month[],Day of Month[],DST Indicator[1=yes 0=no],DayType  ! When Daily Report Variables Requested
4,2,Cumulative Days of Simulation[],Month[]  ! When Monthly Report Variables Requested
5,1,Cumulative Days of Simulation[] ! When Run Period Report Variables Requested
6,1,Calendar Year of Simulation[] ! When Annual Report Variables Requested
250,1,LIVING ZONE,Zone Air Temperature [C] !TimeStep,REPORTSCH
251,1,LIVING ZONE,Zone Air System Sensible Heating Energy [J] !TimeStep,REPORTSCH
336,1,LIVING ZONE,Zone Air System Sensible Cooling Energy [J] !TimeStep,REPORTSCH
385,1,LIVING ZONE,Zone Thermostat Heating Setpoint Temperature [C] !TimeStep,REPORTSCH
386,1,LIVING ZONE,Zone Thermostat Cooling Setpoint Temperature [C] !TimeStep,REPORTSCH
387,1,GARAGE ZONE,Zone Air Temperature [C] !TimeStep,REPORTSCH
388,1,GARAGE ZONE,Zone Air System Sensible Heating Energy [J] !TimeStep,REPORTSCH
425,1,GARAGE ZONE,Zone Air System Sensible Cooling Energy [J] !TimeStep,REPORTSCH
450,1,GARAGE ZONE,Zone Thermostat Heating Setpoint Temperature [C] !TimeStep,REPORTSCH
451,1,GARAGE ZONE,Zone Thermostat Cooling Setpoint Temperature [C] !TimeStep,REPORTSCH
452,1,ATTIC ZONE,Zone Air Temperature [C] !TimeStep,REPORTSCH
453,1,ATTIC ZONE,Zone Air System Sensible Heating Energy [J] !TimeStep,REPORTSCH
490,1,ATTIC ZONE,Zone Air System Sensible Cooling Energy [J] !TimeStep,REPORTSCH
515,1,ATTIC ZONE,Zone Thermostat Heating Setpoint Temperature [C] !TimeStep,REPORTSCH
516,1,ATTIC ZONE,Zone Thermostat Cooling Setpoint Temperature [C] !TimeStep,REPORTSCH
542,1,ACDXCOIL 1,Cooling Coil Total Cooling Energy [J] !TimeStep,REPORTSCH
592,1,HEAT PUMP DX HEATING COIL 1,Heating Coil Heating Energy [J] !TimeStep,REPORTSCH
632,1,SUPP HEATING COIL 1,Heating Coil Heating Energy [J] !TimeStep,REPORTSCH
686,1,TWOSPEED HEAT PUMP 1,Unitary System DX Coil Cycling Ratio [] !TimeStep,REPORTSCH
687,1,TWOSPEED HEAT PUMP 1,Unitary System DX Coil Speed Ratio [] !TimeStep,REPORTSCH
688,1,TWOSPEED HEAT PUMP 1,Unitary System DX Coil Speed Level [] !TimeStep,REPORTSCH
End of Data Dictionary
1,RUN PERIOD 1,  41.98, -87.92,  -6.00, 201.00
2,21, 1,21, 0, 1, 0.00,10.00,Monday
250,-0.7111371185342018
251,38063113.168095805
336,0.0
385,19.60065941589711
386,24.812497806795363
387,-0.9450151436410138
388,0.0
425,0.0
450,0.0
451,0.0
452,-1.9721757544703409
453,0.0
490,0.0
515,0.0
516,0.0
542,0.0
592,4839743.985079642
632,32965322.49784858
686,1.0
687,1.0
688,2.0
2,21, 1,21, 0, 1,10.00,20.00,Monday
250,-0.7111820946321308
251,38064764.03565569
336,0.0
385,19.60065941589711
386,24.812497806795363
387,-0.9533823015339755
388,0.0
425,0.0
450,0.0
451,0.0
452,-1.9540421208818703
453,0.0
490,0.0
515,0.0
516,0.0
542,0.0
592,4823801.676011795
632,32982046.719844423
686,1.0
687,1.0
688,2.0
2,21, 1,21, 0, 1,20.00,30.00,Monday
250,-0.7112920771089537
251,38066486.32553083
336,0.0
385,19.60065941589711
386,24.812497806795363
387,-0.9629827357876072
388,0.0
425,0.0
450,0.0
451,0.0
452,-1.950960715567683
453,0.0
490,0.0
515,0.0
516,0.0
542,0.0
592,4807858.162905221
632,32999677.526446354
686,1.0
687,1.0
688,2.0
2,21, 1,21, 0, 1,30.00,40.00,Monday
250,-0.7115603511171268
251,38050949.30221003
336,0.0
385,19.60065941589711
386,24.812497806795363
387,-0.9740211774094424
388,0.0
425,0.0
450,0.0
451,0.0
452,-1.9638278936704363
453,0.0
490,0.0
515,0.0
516,0.0
542,0.0
592,4791913.445623511
632,33000000.0
686,1.0
687,1.0
688,2.0
2,21, 1,21, 0, 1,40.00,50.00,Monday
250,-0.7118379988017428
251,38035008.433519505
336,0.0
385,19.60065941589711
386,24.812497806795363
387,-0.9866549900984537
388,0.0
425,0.0
450,0.0
451,0.0
452,-1.9910240247306508
453,0.0
490,0.0
515,0.0
516,0.0
542,0.0
592,4775967.524030241
632,33000000.0
686,1.0
687,1.0
688,2.0
2,21, 1,21, 0, 1,50.00,60.00,Monday
250,-0.712115301161942
251,38019061.128044195
336,0.0
385,19.60065941589711
386,24.812497806795363
387,-1.0010730207784775
388,0.0
425,0.0
450,0.0
451,0.0
452,-2.0310187826230046
453,0.0
490,0.0
515,0.0
516,0.0
542,0.0
592,4760020.397988958
632,33000000.0
686,1.0
687,1.0
688,2.0
2,21, 1,21, 0, 2, 0.00,10.00,Monday
250,-0.7122303137797946
251,38018973.75282797
336,0.0
385,19.60065941589711
386,24.812497806795363
387,-1.0165939886217692
388,0.0
425,0.0
450,0.0
451,0.0
452,-2.0777688835091404
453,0.0
490,0.0
515,0.0
516,0.0
542,0.0
592,4760020.397988958
632,33000000.0
686,1.0
687,1.0
688,2.0
2,21, 1,21, 0, 2,10.00,20.00,Monday
250,-0.7123404488781914
251,38018971.126664616
336,0.0
385,19.60065941589711
386,24.812497806795363
387,-1.0322762958755936
388,0.0
425,0.0
450,0.0
451,0.0
452,-2.1204889734089445
453,0.0
490,0.0
515,0.0
516,0.0
542,0.0
592,4760020.397988959
632,33000000.0
686,1.0
687,1.0
688,2.0
2,21, 1,21, 0, 2,20.00,30.00,Monday
250,-0.7124506682063129
251,38018971.17200031
336,0.0
385,19.60065941589711
386,24.812497806795363
387,-1.0475669324066286
388,0.0
425,0.0
450,0.0
451,0.0
452,-2.15195034213846
453,0.0
490,0.0
515,0.0
516,0.0
542,0.0
592,4760020.397988958
632,33000000.0
686,1.0
687,1.0
688,2.0
2,21, 1,21, 0, 2,30.00,40.00,Monday
250,-0.7125586938247231
251,38018969.99084434
336,0.0
385,19.60065941589711
386,24.812497806795363
387,-1.0621446540629973
388,0.0
425,0.0
450,0.0
451,0.0
452,-2.1713312169540346
453,0.0
490,0.0
515,0.0
516,0.0
542,0.0
592,4760020.397988958
632,33000000.0
686,1.0
687,1.0
688,2.0
2,21, 1,21, 0, 2,40.00,50.00,Monday
250,-0.7126650830435969
251,38018969.10975727
336,0.0
385,19.60065941589711
386,24.812497806795363
387,-1.0758689050304693
388,0.0
425,0.0
450,0.0
451,0.0
452,-2.181472256234426
453,0.0
490,0.0
515,0.0
516,0.0
542,0.0
592,4760020.397988958
632,33000000.0
686,1.0
687,1.0
688,2.0
2,21, 1,21, 0, 2,50.00,60.00,Monday
250,-0.7127695820167489
251,38018968.09199133
336,0.0
385,19.60065941589711
386,24.812497806795363
387,-1.0887021412902778
388,0.0
425,0.0
450,0.0
451,0.0
452,-2.1855216863918296
453,0.0
490,0.0
515,0.0
516,0.0
542,0.0
592,4760020.397988958
632,33000000.0
686,1.0
687,1.0
688,2.0
2,21, 1,21, 0, 3, 0.00,10.00,Monday
250,-0.6309136579471896
251,37977376.59923898
336,0.0
385,19.60065941589711
386,24.812497806795363
387,-1.0902576043397068
388,0.0
425,0.0
450,0.0
451,0.0
452,-2.1780502782484006
453,0.0
490,0.0
515,0.0
516,0.0
542,0.0
592,4762558.894114007
632,33000000.0
686,1.0
687,1.0
688,2.0
2,21, 1,21, 0, 3,10.00,20.00,Monday
250,-0.5472568629522344
251,37978834.669694625
336,0.0
385,19.60065941589711
386,24.812497806795363
387,-1.079227334724573
388,0.0
425,0.0
450,0.0
451,0.0
452,-2.153081574504904
453,0.0
490,0.0
515,0.0
516,0.0
542,0.0
592,4764988.4357309695
632,33000000.0
686,1.0
687,1.0
688,2.0
2,21, 1,21, 0, 3,20.00,30.00,Monday
250,-0.46459492657869117
251,37943407.7153967
336,0.0
385,19.60065941589711
386,24.812497806795363
387,-1.0600231654977563
388,0.0
425,0.0
450,0.0
451,0.0
452,-2.1091652323298304
453,0.0
490,0.0
515,0.0
516,0.0
542,0.0
592,4767308.250738334
632,32961719.40463498
686,1.0
687,1.0
688,2.0
2,21, 1,21, 0, 3,30.00,40.00,Monday
250,-0.3818584040913562
251,37900436.11538865
336,0.0
385,19.60065941589711
386,24.812497806795363
387,-1.036442517286576
388,0.0
425,0.0
450,0.0
451,0.0
452,-2.0494316196403193
453,0.0
490,0.0
515,0.0
516,0.0
542,0.0
592,4769517.689516207
632,32916580.38585943
686,1.0
687,1.0
688,2.0
2,21, 1,21, 0, 3,40.00,50.00,Monday
250,-0.2990857054794368
251,37857454.02681718
336,0.0
385,19.60065941589711
386,24.812497806795363
387,-1.009795902925675
388,0.0
425,0.0
450,0.0
451,0.0
452,-1.97836449860148
453,0.0
490,0.0
515,0.0
516,0.0
542,0.0
592,4771616.115684973
632,32871521.22490529
686,1.0
687,1.0
688,2.0
2,21, 1,21, 0, 3,50.00,60.00,Monday
250,-0.2162922354187439
251,37814467.660498336
336,0.0
385,19.60065941589711
386,24.812497806795363
387,-0.9798714492353096
388,0.0
425,0.0
450,0.0
451,0.0
452,-1.8995828271805175
453,0.0
490,0.0
515,0.0
516,0.0
542,0.0
592,4773602.736238396
632,32826561.30994697
686,1.0
687,1.0
688,2.0
2,21, 1,21, 0, 4, 0.00,10.00,Monday
250,-0.21540920481517295
251,37815602.11063749
336,0.0
385,19.60065941589711
386,24.812497806795363
387,-0.9571546002587096
388,0.0
425,0.0
450,0.0
451,0.0
452,-1.8233742569395235
453,0.0
490,0.0
515,0.0
516,0.0
542,0.0
592,4773428.98237163
632,32783757.269577663
686,1.0
687,1.0
688,2.0
2,21, 1,21, 0, 4,10.00,20.00,Monday
250,-0.21589226855765722
251,37815925.598746
336,0.0
385,19.60065941589711
386,24.812497806795363
387,-0.9445146405855706
388,0.0
425,0.0
450,0.0
451,0.0
452,-1.7587771103433107
453,0.0
490,0.0
515,0.0
516,0.0
542,0.0
592,4773255.169447958
632,32783518.838789552
686,1.0
687,1.0
688,2.0
2,21, 1,21, 0, 4,20.00,30.00,Monday
250,-0.21571355797663025
251,37815858.0446212
336,0.0
385,19.60065941589711
386,24.812497806795363
387,-0.9385005815007039
388,0.0
425,0.0
450,0.0
451,0.0
452,-1.7093970207306584
453,0.0
490,0.0
515,0.0
516,0.0
542,0.0
592,4773081.29743726
632,32783981.56621323
686,1.0
687,1.0
688,2.0
2,21, 1,21, 0, 4,30.00,40.00,Monday
250,-0.21566935294957573
251,37815875.3648922
336,0.0
385,19.60065941589711
386,24.812497806795363
387,-0.9352570244643358
388,0.0
425,0.0
450,0.0
451,0.0
452,-1.673577288219706
453,0.0
490,0.0
515,0.0
516,0.0
542,0.0
592,4772907.3663094025
632,32784100.37740093
686,1.0
687,1.0
688,2.0
2,21, 1,21, 0, 4,40.00,50.00,Monday
250,-0.2156368211505375
251,37815896.62988149
336,0.0
385,19.60065941589711
386,24.812497806795363
387,-0.932985970444244
388,0.0
425,0.0
450,0.0
451,0.0
452,-1.6476484674900174
453,0.0
490,0.0
515,0.0
516,0.0
542,0.0
592,4772733.376034233
632,32784289.345862485
686,1.0
687,1.0
688,2.0
2,21, 1,21, 0, 4,50.00,60.00,Monday
250,-0.2156028588399275
251,37815916.91343733
336,0.0
385,19.60065941589711
386,24.812497806795363
387,-0.9314948898221624
388,0.0
425,0.0
450,0.0
451,0.0
452,-1.628551432360192
453,0.0
490,0.0
515,0.0
516,0.0
542,0.0
592,4772559.326581574
632,32784484.449317433
686,1.0
687,1.0
688,2.0
2,21, 1,21, 0, 5, 0.00,10.00,Monday
250,-0.2155708451456397
251,37815938.29808269
336,0.0
385,19.60065941589711
386,24.812497806795363
387,-0.9308336964679127
388,0.0
425,0.0
450,0.0
451,0.0
452,-1.6136701837134788
453,0.0
490,0.0
515,0.0
516,0.0
542,0.0
592,4759720.858689581
632,32797343.252408877
686,1.0
687,1.0
688,2.0
2,21, 1,21, 0, 5,10.00,20.00,Monday
250,-0.21552659219179143
251,37817219.63881784
336,0.0
385,19.60065941589711
386,24.812497806795363
387,-0.9308667272808859
388,0.0
425,0.0
450,0.0
451,0.0
452,-1.6006940427547343
453,0.0
490,0.0
515,0.0
516,0.0
542,0.0
592,4746877.262331868
632,32811474.782011595
686,1.0
687,1.0
688,2.0
2,21, 1,21, 0, 5,20.00,30.00,Monday
250,-0.21548180481999318
251,37818529.528512955
336,0.0
385,19.60065941589711
386,24.812497806795363
387,-0.9313657978848705
388,0.0
425,0.0
450,0.0
451,0.0
452,-1.5882213217054888
453,0.0
490,0.0
515,0.0
516,0.0
542,0.0
592,4734028.534436011
632,32825633.68828441
686,1.0
687,1.0
688,2.0
2,21, 1,21, 0, 5,30.00,40.00,Monday
250,-0.2154375360912851
251,37819830.07128822
336,0.0
385,19.60065941589711
386,24.812497806795363
387,-0.9321277179877157
388,0.0
425,0.0
450,0.0
451,0.0
452,-1.575818398783883
453,0.0
490,0.0
515,0.0
516,0.0
542,0.0
592,4721174.671927155
632,32839787.815058876
686,1.0
687,1.0
688,2.0
2,21, 1,21, 0, 5,40.00,50.00,Monday
250,-0.21539350352272088
251,37821133.19689339
336,0.0
385,19.60065941589711
386,24.812497806795363
387,-0.9330162828331579
388,0.0
425,0.0
450,0.0
451,0.0
452,-1.5635538848132262
453,0.0
490,0.0
515,0.0
516,0.0
542,0.0
592,4708315.671727969
632,32853949.81449341
686,1.0
687,1.0
688,2.0
2,21, 1,21, 0, 5,50.00,60.00,Monday
250,-0.21534939441405396
251,37822436.99193676
336,0.0
385,19.60065941589711
386,24.812497806795363
387,-0.9339520797943381
388,0.0
425,0.0
450,0.0
451,0.0
452,-1.5515787201240396
453,0.0
490,0.0
515,0.0
516,0.0
542,0.0
592,4695451.530758676
632,32868117.79256794
686,1.0
687,1.0
688,2.0
2,21, 1,21, 0, 6, 0.00,10.00,Monday
250,-0.21530338437890337
251,37823740.259198375
336,0.0
385,19.60065941589711
386,24.812497806795363
387,-0.9350216403421643
388,0.0
425,0.0
450,0.0
451,0.0
452,-1.5405888746026506
453,0.0
490,0.0
515,0.0
516,0.0
542,0.0
592,4695264.082255858
632,32869609.533162083
686,1.0
687,1.0
688,2.0
2,21, 1,21, 0, 6,10.00,20.00,Monday
250,-0.2152699216533025
251,37823782.54338891
336,0.0
385,19.60065941589711
386,24.812497806795363
387,-0.9363084892798206
388,0.0
425,0.0
450,0.0
451,0.0
452,-1.531397529205524
453,0.0
490,0.0
515,0.0
516,0.0
542,0.0
592,4695076.569900009
632,32869832.570723794
686,1.0
687,1.0
688,2.0
2,21, 1,21, 0, 6,20.00,30.00,Monday
250,-0.21523681865156144
251,37823796.67822093
336,0.0
385,19.60065941589711
386,24.812497806795363
387,-0.9378071125663414
388,0.0
425,0.0
450,0.0
451,0.0
452,-1.524331247321975
453,0.0
490,0.0
515,0.0
516,0.0
542,0.0
592,4694888.993658494
632,32870034.08803521
686,1.0
687,1.0
688,2.0
2,21, 1,21, 0, 6,30.00,40.00,Monday
250,-0.21520319320337306
251,37823820.71146507
336,0.0
385,19.60065941589711
386,24.812497806795363
387,-0.9394755648850248
388,0.0
425,0.0
450,0.0
451,0.0
452,-1.5191838632669936
453,0.0
490,0.0
515,0.0
516,0.0
542,0.0
592,4694701.35349866
632,32870246.04289271
686,1.0
687,1.0
688,2.0
2,21, 1,21, 0, 6,40.00,50.00,Monday
250,-0.21516922611567152
251,37823842.643292554
336,0.0
385,19.60065941589711
386,24.812497806795363
387,-0.9412819278619291
388,0.0
425,0.0
450,0.0
451,0.0
452,-1.5155055087441591
453,0.0
490,0.0
515,0.0
516,0.0
542,0.0
592,4694513.649387832
632,32870455.862886295
686,1.0
687,1.0
688,2.0
2,21, 1,21, 0, 6,50.00,60.00,Monday
250,-0.21513485334776503
251,37823864.186692424
336,0.0
385,19.60065941589711
386,24.812497806795363
387,-0.9432090456893792
388,0.0
425,0.0
450,0.0
451,0.0
452,-1.5128757288539676
453,0.0
490,0.0
515,0.0
516,0.0
542,0.0
592,4694325.881293308
632,32870665.392934047
686,1.0
687,1.0
688,2.0
2,21, 1,21, 0, 7, 0.00,10.00,Monday
250,-0.2160155367911487
251,37824378.70316392
336,0.0
385,19.60065941589711
386,24.812497806795363
387,-0.9476800618465133
388,0.0
425,0.0
450,0.0
451,0.0
452,-1.5161616283660617
453,0.0
490,0.0
515,0.0
516,0.0
542,0.0
592,4723573.583255435
632,32841439.27956895
686,1.0
687,1.0
688,2.0
2,21, 1,21, 0, 7,10.00,20.00,Monday
250,-0.21598884007791225
251,37821481.34010013
336,0.0
385,19.60065941589711
386,24.812497806795363
387,-0.9568689995642693
388,0.0
425,0.0
450,0.0
451,0.0
452,-1.5348354714724435
453,0.0
490,0.0
515,0.0
516,0.0
542,0.0
592,4752837.186047653
632,32809767.105528366
686,1.0
687,1.0
688,2.0
2,21, 1,21, 0, 7,20.00,30.00,Monday
250,-0.2159331402721932
251,37818501.441090204
336,0.0
385,19.60065941589711
386,24.812497806795363
387,-0.9710162675550371
388,0.0
425,0.0
450,0.0
451,0.0
452,-1.5742686351625639
453,0.0
490,0.0
515,0.0
516,0.0
542,0.0
592,4782116.702651945
632,32777523.30994073
686,1.0
687,1.0
688,2.0
2,21, 1,21, 0, 7,30.00,40.00,Monday
250,-0.21588457510340298
251,37815547.22795554
336,0.0
385,19.60065941589711
386,24.812497806795363
387,-0.9891662865458075
388,0.0
425,0.0
450,0.0
451,0.0
452,-1.632081012708039
453,0.0
490,0.0
515,0.0
516,0.0
542,0.0
592,4811412.146064443
632,32745269.808632605
686,1.0
687,1.0
688,2.0
2,21, 1,21, 0, 7,40.00,50.00,Monday
250,-0.21583371743813223
251,37812585.74516309
336,0.0
385,19.60065941589711
386,24.812497806795363
387,-1.0102398689917595
388,0.0
425,0.0
450,0.0
451,0.0
452,-1.7020178824979568
453,0.0
490,0.0
515,0.0
516,0.0
542,0.0
592,4840723.52929546
632,32712998.175133493
686,1.0
687,1.0
688,2.0
2,21, 1,21, 0, 7,50.00,60.00,Monday
250,-0.215781982639306
251,37809621.78059616
336,0.0
385,19.60065941589711
386,24.812497806795363
387,-1.0334897481267245
388,0.0
425,0.0
450,0.0
451,0.0
452,-1.7783847026543327
453,0.0
490,0.0
515,0.0
516,0.0
542,0.0
592,4870050.865369484
632,32680707.344682623
686,1.0
687,1.0
688,2.0
2,21, 1,21, 0, 8, 0.00,10.00,Monday
250,-0.015402954025775783
251,37698792.93299437
336,0.0
385,19.60065941589711
386,24.812497806795363
387,-1.0295953973360281
388,0.0
425,0.0
450,0.0
451,0.0
452,-1.837340119951399
453,0.0
490,0.0
515,0.0
516,0.0
542,0.0
592,4889730.300311495
632,32658062.42788654
686,1.0
687,1.0
688,2.0
2,21, 1,21, 0, 8,10.00,20.00,Monday
250,0.1851212815244186
251,37593110.20087109
336,0.0
385,19.60065941589711
386,24.812497806795363
387,-0.9880299787007614
388,0.0
425,0.0
450,0.0
451,0.0
452,-1.8285189953775312
453,0.0
490,0.0
515,0.0
516,0.0
542,0.0
592,4909380.719869504
632,32532814.028659835
686,1.0
687,1.0
688,2.0
2,21, 1,21, 0, 8,20.00,30.00,Monday
250,0.3837294752109503
251,37488574.835419565
336,0.0
385,19.60065941589711
386,24.812497806795363
387,-0.9170086541379512
388,0.0
425,0.0
450,0.0
451,0.0
452,-1.7211390777408861
453,0.0
490,0.0
515,0.0
516,0.0
542,0.0
592,4929009.6156952735
632,32407624.911570814
686,1.0
687,1.0
688,2.0
2,21, 1,21, 0, 8,30.00,40.00,Monday
250,0.5828935183285361
251,37383697.38573029
336,0.0
385,19.60065941589711
386,24.812497806795363
387,-0.8266835142677621
388,0.0
425,0.0
450,0.0
451,0.0
452,-1.5256089197581197
453,0.0
490,0.0
515,0.0
516,0.0
542,0.0
592,4952863.646772657
632,32279199.565771695
686,1.0
687,1.0
688,2.0
2,21, 1,21, 0, 8,40.00,50.00,Monday
250,0.782133273353709
251,37278376.06552408
336,0.0
385,19.60065941589711
386,24.812497806795363
387,-0.7250358744034919
388,0.0
425,0.0
450,0.0
451,0.0
452,-1.249992210936632
453,0.0
490,0.0
515,0.0
516,0.0
542,0.0
592,4977062.298687916
632,32149726.057178278
686,1.0
687,1.0
688,2.0
2,21, 1,21, 0, 8,50.00,60.00,Monday
250,0.9820633505513452
251,37173610.82237488
336,0.0
385,19.60065941589711
386,24.812497806795363
387,-0.6291297054822774
388,0.0
425,0.0
450,0.0
451,0.0
452,-0.9369597854251057
453,0.0
490,0.0
515,0.0
516,0.0
542,0.0
592,5001395.306277511
632,31967885.83871504
686,1.0
687,1.0
688,2.0
2,21, 1,21, 0, 9, 0.00,10.00,Monday
250,1.2475936480062586
251,37034551.51504091
336,0.0
385,19.60065941589711
386,24.812497806795363
387,-0.4907186149998316
388,0.0
425,0.0
450,0.0
451,0.0
452,-0.45749517207873125
453,0.0
490,0.0
515,0.0
516,0.0
542,0.0
592,5029363.153609448
632,31817570.723311
686,1.0
687,1.0
688,2.0
2,21, 1,21, 0, 9,10.00,20.00,Monday
250,1.5130162110225633
251,36894604.164004065
336,0.0
385,19.60065941589711
386,24.812497806795363
387,-0.33990910059402324
388,0.0
425,0.0
450,0.0
451,0.0
452,0.06673281733136188
453,0.0
490,0.0
515,0.0
516,0.0
542,0.0
592,5057356.862312016
632,31649603.33274579
686,1.0
687,1.0
688,2.0
2,21, 1,21, 0, 9,20.00,30.00,Monday
250,1.7785697921629824
251,36754581.06162527
336,0.0
385,19.60065941589711
386,24.812497806795363
387,-0.18000586245117478
388,0.0
425,0.0
450,0.0
451,0.0
452,0.6314231969519973
453,0.0
490,0.0
515,0.0
516,0.0
542,0.0
592,5085392.284952975
632,31481580.540937446
686,1.0
687,1.0
688,2.0
2,21, 1,21, 0, 9,30.00,40.00,Monday
250,2.044069909016603
251,36614584.89641641
336,0.0
385,19.60065941589711
386,24.812497806795363
387,-0.010268199462149928
388,0.0
425,0.0
450,0.0
451,0.0
452,1.2260507985321523
453,0.0
490,0.0
515,0.0
516,0.0
542,0.0
592,5113485.892141593
632,31313477.82919278
686,1.0
687,1.0
688,2.0
2,21, 1,21, 0, 9,40.00,50.00,Monday
250,2.3098311426395197
251,36473463.737132624
336,0.0
385,19.600659415897123
386,24.81249780679538
387,0.13489014311121456
388,0.0
425,0.0
450,0.0
451,0.0
452,1.7277989899014075
453,0.0
490,0.0
515,0.0
516,0.0
542,0.0
592,5141654.529350725
632,31120674.34719002
686,1.0000000000000009
687,1.0000000000000009
688,2.0000000000000018
2,21, 1,21, 0, 9,50.00,60.00,Monday
250,2.5757232309541025
251,36332718.37042588
336,0.0
385,19.60065941589711
386,24.812497806795363
387,0.28703942987556197
388,0.0
425,0.0
450,0.0
451,0.0
452,2.2683402603695715
453,0.0
490,0.0
515,0.0
516,0.0
542,0.0
592,5169915.672059796
632,30976507.9536845
686,1.0
687,1.0
688,2.0
2,21, 1,21, 0,10, 0.00,10.00,Monday
250,3.0382456106787186
251,36087313.4889367
336,0.0
385,19.60065941589711
386,24.812497806795363
387,0.47750788025273916
388,0.0
425,0.0
450,0.0
451,0.0
452,2.8276912346866068
453,0.0
490,0.0
515,0.0
516,0.0
542,0.0
592,5241404.10703412
632,30670185.2563178
686,1.0
687,1.0
688,2.0
2,21, 1,21, 0,10,10.00,20.00,Monday
250,3.501820440044976
251,35841956.95687933
336,0.0
385,19.600659415897105
386,24.812497806795363
387,0.768552376008814
388,0.0
425,0.0
450,0.0
451,0.0
452,3.5825864184236362
453,0.0
490,0.0
515,0.0
516,0.0
542,0.0
592,5315291.857316207
632,30350095.068985414
686,1.0
687,1.0
688,2.0
2,21, 1,21, 0,10,20.00,30.00,Monday
250,3.9657153245086354
251,35595163.306069314
336,0.0
385,19.600659415897102
386,24.812497806795356
387,1.0489380487402613
388,0.0
425,0.0
450,0.0
451,0.0
452,4.271573242001734
453,0.0
490,0.0
515,0.0
516,0.0
542,0.0
592,5391793.298050372
632,30026899.95392842
686,0.9999999999999996
687,0.9999999999999996
688,1.9999999999999991
2,21, 1,21, 0,10,30.00,40.00,Monday
250,4.429797251176277
251,35348135.36828449
336,0.0
385,19.600659415897116
386,24.812497806795374
387,1.3307016893831545
388,0.0
425,0.0
450,0.0
451,0.0
452,4.973378506537106
453,0.0
490,0.0
515,0.0
516,0.0
542,0.0
592,5471132.199313744
632,29700611.174139075
686,1.0000000000000004
687,1.0000000000000004
688,2.000000000000001
2,21, 1,21, 0,10,40.00,50.00,Monday
250,4.89413581469559
251,35100828.57626288
336,0.0
385,19.600659415897123
386,24.81249780679538
387,1.6208368888500853
388,0.0
425,0.0
450,0.0
451,0.0
452,5.737447421600169
453,0.0
490,0.0
515,0.0
516,0.0
542,0.0
592,5553542.375759332
632,29370987.06090621
686,1.0000000000000009
687,1.0000000000000009
688,2.0000000000000018
2,21, 1,21, 0,10,50.00,60.00,Monday
250,5.358489272204872
251,34853366.476101704
336,0.0
385,19.600659415897123
386,24.81249780679538
387,1.921058036379883
388,0.0
425,0.0
450,0.0
451,0.0
452,6.56651548797967
453,0.0
490,0.0
515,0.0
516,0.0
542,0.0
592,5639267.778995938
632,29037851.17564696
686,1.0000000000000009
687,1.0000000000000009
688,2.0000000000000018
2,21, 1,21, 0,11, 0.00,10.00,Monday
250,5.642006107126024
251,34702498.343963705
336,0.0
385,19.60065941589711
386,24.812497806795363
387,2.207564517602524
388,0.0
425,0.0
450,0.0
451,0.0
452,7.421738001203394
453,0.0
490,0.0
515,0.0
516,0.0
542,0.0
592,5689519.861596227
632,28804479.08430966
686,1.0
687,1.0
688,2.0
2,21, 1,21, 0,11,10.00,20.00,Monday
250,5.924710883342037
251,34552007.10676128
336,0.0
385,19.600659415897105
386,24.812497806795363
387,2.47733228967154
388,0.0
425,0.0
450,0.0
451,0.0
452,8.272265574986008
453,0.0
490,0.0
515,0.0
516,0.0
542,0.0
592,5740969.350869595
632,28602405.643195547
686,1.0
687,1.0
688,2.0
2,21, 1,21, 0,11,20.00,30.00,Monday
250,6.207476349404218
251,34401434.27179891
336,0.0
385,19.600659415897102
386,24.812497806795356
387,2.7494909832151415
388,0.0
425,0.0
450,0.0
451,0.0
452,9.118878569915905
453,0.0
490,0.0
515,0.0
516,0.0
542,0.0
592,5793671.095282218
632,28399158.431296878
686,0.9999999999999996
687,0.9999999999999996
688,1.9999999999999991
2,21, 1,21, 0,11,30.00,40.00,Monday
250,6.489944113582672
251,34250969.02481695
336,0.0
385,19.600659415897116
386,24.812497806795374
387,3.0268243697606043
388,0.0
425,0.0
450,0.0
451,0.0
452,9.940750973057693
453,0.0
490,0.0
515,0.0
516,0.0
542,0.0
592,5847681.427966584
632,28194646.71263083
686,1.0000000000000004
687,1.0000000000000004
688,2.000000000000001
2,21, 1,21, 0,11,40.00,50.00,Monday
250,6.772282662318622
251,34100519.5658779
336,0.0
385,19.600659415897123
386,24.81249780679538
387,3.3059308935213503
388,0.0
425,0.0
450,0.0
451,0.0
452,10.686299709358256
453,0.0
490,0.0
515,0.0
516,0.0
542,0.0
592,5903058.082199926
632,27988815.25333295
686,1.0000000000000009
687,1.0000000000000009
688,2.0000000000000018
2,21, 1,21, 0,11,50.00,60.00,Monday
250,7.054446594605201
251,33950108.90914431
336,0.0
385,19.600659415897123
386,24.81249780679538
387,3.5829579355920487
388,0.0
425,0.0
450,0.0
451,0.0
452,11.322078928956348
453,0.0
490,0.0
515,0.0
516,0.0
542,0.0
592,5959860.237244541
632,27781589.41388081
686,1.0000000000000009
687,1.0000000000000009
688,2.0000000000000018
2,21, 1,21, 0,12, 0.00,10.00,Monday
250,7.3211027182062
251,33807988.03137758
336,0.0
385,19.60065941589711
386,24.812497806795363
387,3.8229574134594833
388,0.0
425,0.0
450,0.0
451,0.0
452,11.821209713669578
453,0.0
490,0.0
515,0.0
516,0.0
542,0.0
592,5991096.197635709
632,27630861.003978178
686,1.0
687,1.0
688,2.0
2,21, 1,21, 0,12,10.00,20.00,Monday
250,7.5860120600366425
251,33670284.12491201
336,0.0
385,19.60065941589711
386,24.812497806795363
387,4.115347425631757
388,0.0
425,0.0
450,0.0
451,0.0
452,12.385199729004936
453,0.0
490,0.0
515,0.0
516,0.0
542,0.0
592,7572016.881221027
632,25910370.58179097
686,1.0
687,1.0
688,2.0
2,21, 1,21, 0,12,20.00,30.00,Monday
250,7.851802070581034
251,33530392.60366112
336,0.0
385,19.60065941589711
386,24.812497806795363
387,4.384467258027653
388,0.0
425,0.0
450,0.0
451,0.0
452,12.900415212836368
453,0.0
490,0.0
515,0.0
516,0.0
542,0.0
592,7609409.155487608
632,25733311.41470935
686,1.0
687,1.0
688,2.0
2,21, 1,21, 0,12,30.00,40.00,Monday
250,8.117476981033647
251,33390564.738311
336,0.0
385,19.60065941589711
386,24.812497806795363
387,4.64328263260159
388,0.0
425,0.0
450,0.0
451,0.0
452,13.392069926258536
453,0.0
490,0.0
515,0.0
516,0.0
542,0.0
592,7646583.592010483
632,25556277.97328814
686,1.0
687,1.0
688,2.0
2,21, 1,21, 0,12,40.00,50.00,Monday
250,8.383112802702428
251,33250757.624819472
336,0.0
385,19.60065941589711
386,24.812497806795363
387,4.897710935030079
388,0.0
425,0.0
450,0.0
451,0.0
452,13.834003066955148
453,0.0
490,0.0
515,0.0
516,0.0
542,0.0
592,7683540.190789654
632,25379503.864645883
686,1.0
687,1.0
688,2.0
2,21, 1,21, 0,12,50.00,60.00,Monday
250,8.64873633826655
251,33110956.34951452
336,0.0
385,19.60065941589711
386,24.812497806795363
387,5.146659648386757
388,0.0
425,0.0
450,0.0
451,0.0
452,14.20179899250249
453,0.0
490,0.0
515,0.0
516,0.0
542,0.0
592,7720278.951825121
632,25202961.014022008
686,1.0
687,1.0
688,2.0
2,21, 1,21, 0,13, 0.00,10.00,Monday
250,8.83158974803966
251,33012383.516429324
336,0.0
385,19.60065941589711
386,24.812497806795363
387,5.379049042017562
388,0.0
425,0.0
450,0.0
451,0.0
452,14.49305305763415
453,0.0
490,0.0
515,0.0
516,0.0
542,0.0
592,7745410.487127085
632,25104227.322023846
686,1.0
687,1.0
688,2.0
2,21, 1,21, 0,13,10.00,20.00,Monday
250,9.013938259630603
251,32918005.618513763
336,0.0
385,19.60065941589711
386,24.812497806795363
387,5.597838572903109
388,0.0
425,0.0
450,0.0
451,0.0
452,14.722306082026682
453,0.0
490,0.0
515,0.0
516,0.0
542,0.0
592,7770439.060057994
632,24987100.06761245
686,1.0
687,1.0
688,2.0
2,21, 1,21, 0,13,20.00,30.00,Monday
250,9.196958685506534
251,32823392.15623729
336,0.0
385,19.60065941589711
386,24.812497806795363
387,5.802742575137179
388,0.0
425,0.0
450,0.0
451,0.0
452,14.905479595936075
453,0.0
490,0.0
515,0.0
516,0.0
542,0.0
592,7795364.670617863
632,24867936.233507186
686,1.0
687,1.0
688,2.0
2,21, 1,21, 0,13,30.00,40.00,Monday
250,9.379772749920344
251,32728919.08610139
336,0.0
385,19.60065941589711
386,24.812497806795363
387,5.997780731036058
388,0.0
425,0.0
450,0.0
451,0.0
452,15.054349438004625
453,0.0
490,0.0
515,0.0
516,0.0
542,0.0
592,7820187.318806678
632,24748541.828200016
686,1.0
687,1.0
688,2.0
2,21, 1,21, 0,13,40.00,50.00,Monday
250,9.562588084437065
251,32634478.911707547
336,0.0
385,19.60065941589711
386,24.812497806795363
387,6.186703149087061
388,0.0
425,0.0
450,0.0
451,0.0
452,15.173668492489183
453,0.0
490,0.0
515,0.0
516,0.0
542,0.0
592,7844907.0046244515
632,24629395.545718018
686,1.0
687,1.0
688,2.0
2,21, 1,21, 0,13,50.00,60.00,Monday
250,9.745395601607562
251,32540076.08614208
336,0.0
385,19.60065941589711
386,24.812497806795363
387,6.370810126744304
388,0.0
425,0.0
450,0.0
451,0.0
452,15.267074639486069
453,0.0
490,0.0
515,0.0
516,0.0
542,0.0
592,7869523.72807117
632,24510384.84574189
686,1.0
687,1.0
688,2.0
2,21, 1,21, 0,14, 0.00,10.00,Monday
250,9.945285725143016
251,32436479.916289687
336,0.0
385,19.60065941589711
386,24.812497806795363
387,6.552940226321237
388,0.0
425,0.0
450,0.0
451,0.0
452,15.323170356527307
453,0.0
490,0.0
515,0.0
516,0.0
542,0.0
592,7896260.907308882
632,24389291.327399295
686,1.0
687,1.0
688,2.0
2,21, 1,21, 0,14,10.00,20.00,Monday
250,10.144684766061614
251,32332755.095436018
336,0.0
385,19.60065941589711
386,24.812497806795363
387,6.7332250601382455
388,0.0
425,0.0
450,0.0
451,0.0
452,15.323637157643908
453,0.0
490,0.0
515,0.0
516,0.0
542,0.0
592,7922875.552815757
632,24258699.857460223
686,1.0
687,1.0
688,2.0
2,21, 1,21, 0,14,20.00,30.00,Monday
250,10.34392667828342
251,32229125.726213194
336,0.0
385,19.60065941589711
386,24.812497806795363
387,6.909507285956623
388,0.0
425,0.0
450,0.0
451,0.0
452,15.26800826103079
453,0.0
490,0.0
515,0.0
516,0.0
542,0.0
592,7949367.664591796
632,24128506.84939975
686,1.0
687,1.0
688,2.0
2,21, 1,21, 0,14,30.00,40.00,Monday
250,10.543066760663622
251,32125577.02708426
336,0.0
385,19.60065941589711
386,24.812497806795363
387,7.075835380033557
388,0.0
425,0.0
450,0.0
451,0.0
452,15.145758886297626
453,0.0
490,0.0
515,0.0
516,0.0
542,0.0
592,7975737.242637003
632,23998547.078297872
686,1.0
687,1.0
688,2.0
2,21, 1,21, 0,14,40.00,50.00,Monday
250,10.742115459702687
251,32022099.51316069
336,0.0
385,19.60065941589711
386,24.812497806795363
387,7.228515698467053
388,0.0
425,0.0
450,0.0
451,0.0
452,14.937168489278637
453,0.0
490,0.0
515,0.0
516,0.0
542,0.0
592,8001984.286951375
632,23868786.821496084
686,1.0
687,1.0
688,2.0
2,21, 1,21, 0,14,50.00,60.00,Monday
250,10.941101386674738
251,31918678.327641003
336,0.0
385,19.60065941589711
386,24.812497806795363
387,7.367838243356261
388,0.0
425,0.0
450,0.0
451,0.0
452,14.645277383316119
453,0.0
490,0.0
515,0.0
516,0.0
542,0.0
592,8028108.797534912
632,23739221.04500086
686,1.0
687,1.0
688,2.0
2,21, 1,21, 0,15, 0.00,10.00,Monday
250,11.206477660340585
251,31780127.768063672
336,0.0
385,19.60065941589711
386,24.812497806795363
387,7.488806066655803
388,0.0
425,0.0
450,0.0
451,0.0
452,14.349930038671587
453,0.0
490,0.0
515,0.0
516,0.0