Program Version,EnergyPlus, Version 24.2.0-94a887817b, YMD=2025.01.21 23:16
1,5,Environment Title[],Latitude[deg],Longitude[deg],Time Zone[],Elevation[m]
2,8,Day of Simulation[],Month[],Day of Month[],DST Indicator[1=yes 0=no],Hour[],StartMinute[],EndMinute[],DayType
3,5,Cumulative Day of Simulation[],Month[],Day of Month[],DST Indicator[1=yes 0=no],DayType  ! When Daily Report Variables Requested
4,2,Cumulative Days of Simulation[],Month[]  ! When Monthly Report Variables Requested
5,1,Cumulative Days of Simulation[] ! When Run Period Report Variables Requested
6,1,Calendar Year of Simulation[] ! When Annual Report Variables Requested
250,1,LIVING ZONE,Zone Air Temperature [C] !TimeStep,REPORTSCH
251,1,LIVING ZONE,Zone Air System Sensible Heating Energy [J] !TimeStep,REPORTSCH
336,1,LIVING ZONE,Zone Air System Sensible Cooling Energy [J] !TimeStep,REPORTSCH
385,1,LIVING ZONE,Zone Thermostat Heating Setpoint Temperature [C] !TimeStep,REPORTSCH
386,1,LIVING ZONE,Zone Thermostat Cooling Setpoint Temperature [C] !TimeStep,REPORTSCH
387,1,GARAGE ZONE,Zone Air Temperature [C] !TimeStep,REPORTSCH
388,1,GARAGE ZONE,Zone Air System Sensible Heating Energy [J] !TimeStep,REPORTSCH
425,1,GARAGE ZONE,Zone Air System Sensible Cooling Energy [J] !TimeStep,REPORTSCH
450,1,GARAGE ZONE,Zone Thermostat Heating Setpoint Temperature [C] !TimeStep,REPORTSCH
451,1,GARAGE ZONE,Zone Thermostat Cooling Setpoint Temperature [C] !TimeStep,REPORTSCH
452,1,ATTIC ZONE,Zone Air Temperature [C] !TimeStep,REPORTSCH
453,1,ATTIC ZONE,Zone Air System Sensible Heating Energy [J] !TimeStep,REPORTSCH
490,1,ATTIC ZONE,Zone Air System Sensible Cooling Energy [J] !TimeStep,REPORTSCH
515,1,ATTIC ZONE,Zone Thermostat Heating Setpoint Temperature [C] !TimeStep,REPORTSCH
516,1,ATTIC ZONE,Zone Thermostat Cooling Setpoint Temperature [C] !TimeStep,REPORTSCH
542,1,ACDXCOIL 1,Cooling Coil Total Cooling Energy [J] !TimeStep,REPORTSCH
592,1,HEAT PUMP DX HEATING COIL 1,Heating Coil Heating Energy [J] !TimeStep,REPORTSCH
632,1,SUPP HEATING COIL 1,Heating Coil Heating Energy [J] !TimeStep,REPORTSCH
686,1,TWOSPEED HEAT PUMP 1,Unitary System DX Coil Cycling Ratio [] !TimeStep,REPORTSCH
687,1,TWOSPEED HEAT PUMP 1,Unitary System DX Coil Speed Ratio [] !TimeStep,REPORTSCH
688,1,TWOSPEED HEAT PUMP 1,Unitary System DX Coil Speed Level [] !TimeStep,REPORTSCH
End of Data Dictionary
1,CHICAGO_IL_USA ANNUAL HEATING 99% DESIGN CONDITIONS DB,  41.98, -87.92,  -6.00, 201.00
2,1, 1,21, 0, 1, 0.00,10.00,WinterDesignDay
250,-17.06432000182009
251,33258891.428629883
336,0.0
385,23.9416331941381
386,27.648819615315738
387,-18.49885386355895
388,0.0
425,0.0
450,0.0
451,0.0
452,-19.361661354034748
453,0.0
490,0.0
515,0.0
516,0.0
542,0.0
592,0.0
632,33000000.0
686,1.0
687,1.0
688,2.0
2,1, 1,21, 0, 1,10.00,20.00,WinterDesignDay
250,-17.06432000192767
251,33258891.428629108
336,0.0
385,23.9416331941381
386,27.648819615315738
387,-18.498855351503387
388,0.0
425,0.0
450,0.0
451,0.0
452,-19.361661561485285
453,0.0
490,0.0
515,0.0
516,0.0
542,0.0
592,0.0
632,33000000.0
686,1.0
687,1.0
688,2.0
2,1, 1,21, 0, 1,20.00,30.00,WinterDesignDay
250,-17.06432000203382
251,33258891.428628337
336,0.0
385,23.9416331941381
386,27.648819615315738
387,-18.49885682004861
388,0.0
425,0.0
450,0.0
451,0.0
452,-19.361661766230558
453,0.0
490,0.0
515,0.0
516,0.0
542,0.0
592,0.0
632,33000000.0
686,1.0
687,1.0
688,2.0
2,1, 1,21, 0, 1,30.00,40.00,WinterDesignDay
250,-17.06432000213856
251,33258891.428627588
336,0.0
385,23.9416331941381
386,27.648819615315738
387,-18.498858269447545
388,0.0
425,0.0
450,0.0
451,0.0
452,-19.361661968305846
453,0.0
490,0.0
515,0.0
516,0.0
542,0.0
592,0.0
632,33000000.0
686,1.0
687,1.0
688,2.0
2,1, 1,21, 0, 1,40.00,50.00,WinterDesignDay
250,-17.06432000224191
251,33258891.428626835
336,0.0
385,23.9416331941381
386,27.648819615315738
387,-18.498859699949882
388,0.0
425,0.0
450,0.0
451,0.0
452,-19.361662167745973
453,0.0
490,0.0
515,0.0
516,0.0
542,0.0
592,0.0
632,33000000.0
686,1.0
687,1.0
688,2.0
2,1, 1,21, 0, 1,50.00,60.00,WinterDesignDay
250,-17.06432000234389
251,33258891.42862611
336,0.0
385,23.9416331941381
386,27.648819615315738
387,-18.498861111801798
388,0.0
425,0.0
450,0.0
451,0.0
452,-19.361662364585307
453,0.0
490,0.0
515,0.0
516,0.0
542,0.0
592,0.0
632,33000000.0
686,1.0
687,1.0
688,2.0
2,1, 1,21, 0, 2, 0.00,10.00,WinterDesignDay
250,-17.064320002444514
251,33258891.42862538
336,0.0
385,23.9416331941381
386,27.648819615315738
387,-18.498862505246525
388,0.0
425,0.0
450,0.0
451,0.0
452,-19.36166255885777
453,0.0
490,0.0
515,0.0
516,0.0
542,0.0
592,0.0
632,33000000.0
686,1.0
687,1.0
688,2.0
2,1, 1,21, 0, 2,10.00,20.00,WinterDesignDay
250,-17.06432000254381
251,33258891.428624667
336,0.0
385,23.9416331941381
386,27.648819615315738
387,-18.498863880524155
388,0.0
425,0.0
450,0.0
451,0.0
452,-19.36166275059684
453,0.0
490,0.0
515,0.0
516,0.0
542,0.0
592,0.0
632,33000000.0
686,1.0
687,1.0
688,2.0
2,1, 1,21, 0, 2,20.00,30.00,WinterDesignDay
250,-17.06432000264178
251,33258891.428623956
336,0.0
385,23.9416331941381
386,27.648819615315738
387,-18.498865237871556
388,0.0
425,0.0
450,0.0
451,0.0
452,-19.361662939835558
453,0.0
490,0.0
515,0.0
516,0.0
542,0.0
592,0.0
632,33000000.0
686,1.0
687,1.0
688,2.0
2,1, 1,21, 0, 2,30.00,40.00,WinterDesignDay
250,-17.06432000273845
251,33258891.428623263
336,0.0
385,23.9416331941381
386,27.648819615315738
387,-18.498866577522296
388,0.0
425,0.0
450,0.0
451,0.0
452,-19.36166312660653
453,0.0
490,0.0
515,0.0
516,0.0
542,0.0
592,0.0
632,33000000.0
686,1.0
687,1.0
688,2.0
2,1, 1,21, 0, 2,40.00,50.00,WinterDesignDay
250,-17.064320002833846
251,33258891.428622577
336,0.0
385,23.9416331941381
386,27.648819615315738
387,-18.498867899707207
388,0.0
425,0.0
450,0.0
451,0.0
452,-19.361663310941942
453,0.0
490,0.0
515,0.0
516,0.0
542,0.0
592,0.0
632,33000000.0
686,1.0
687,1.0
688,2.0
2,1, 1,21, 0, 2,50.00,60.00,WinterDesignDay
250,-17.06432000292797
251,33258891.428621896
336,0.0
385,23.9416331941381
386,27.648819615315738
387,-18.498869204653996
388,0.0
425,0.0
450,0.0
451,0.0
452,-19.361663492873568
453,0.0
490,0.0
515,0.0
516,0.0
542,0.0
592,0.0
632,33000000.0
686,1.0
687,1.0
688,2.0
2,1, 1,21, 0, 3, 0.00,10.00,WinterDesignDay
250,-17.064320003020846
251,33258891.428621225
336,0.0
385,23.9416331941381
386,27.648819615315738
387,-18.498870492587383
388,0.0
425,0.0
450,0.0
451,0.0
452,-19.36166367243275
453,0.0
490,0.0
515,0.0
516,0.0
542,0.0
592,0.0
632,33000000.0
686,1.0
687,1.0
688,2.0
2,1, 1,21, 0, 3,10.00,20.00,WinterDesignDay
250,-17.064320003112496
251,33258891.428620562
336,0.0
385,23.9416331941381
386,27.648819615315738
387,-18.498871763728864
388,0.0
425,0.0
450,0.0
451,0.0
452,-19.361663849650434
453,0.0
490,0.0
515,0.0
516,0.0
542,0.0
592,0.0
632,33000000.0
686,1.0
687,1.0
688,2.0
2,1, 1,21, 0, 3,20.00,30.00,WinterDesignDay
250,-17.064320003202923
251,33258891.428619914
336,0.0
385,23.9416331941381
386,27.648819615315738
387,-18.498873018297644
388,0.0
425,0.0
450,0.0
451,0.0
452,-19.361664024557154
453,0.0
490,0.0
515,0.0
516,0.0
542,0.0
592,0.0
632,33000000.0
686,1.0
687,1.0
688,2.0
2,1, 1,21, 0, 3,30.00,40.00,WinterDesignDay
250,-17.06432000329216
251,33258891.428619277
336,0.0
385,23.9416331941381
386,27.648819615315738
387,-18.498874256510003
388,0.0
425,0.0
450,0.0
451,0.0
452,-19.36166419718305
453,0.0
490,0.0
515,0.0
516,0.0
542,0.0
592,0.0
632,33000000.0
686,1.0
687,1.0
688,2.0
2,1, 1,21, 0, 3,40.00,50.00,WinterDesignDay
250,-17.064320003380207
251,33258891.428618632
336,0.0
385,23.9416331941381
386,27.648819615315738
387,-18.498875478579087
388,0.0
425,0.0
450,0.0
451,0.0
452,-19.361664367557864
453,0.0
490,0.0
515,0.0
516,0.0
542,0.0
592,0.0
632,33000000.0
686,1.0
687,1.0
688,2.0
2,1, 1,21, 0, 3,50.00,60.00,WinterDesignDay
250,-17.064320003467092
251,33258891.42861801
336,0.0
385,23.9416331941381
386,27.648819615315738
387,-18.498876684715185
388,0.0
425,0.0
450,0.0
451,0.0
452,-19.36166453571096
453,0.0
490,0.0
515,0.0
516,0.0
542,0.0
592,0.0
632,33000000.0
686,1.0
687,1.0
688,2.0
2,1, 1,21, 0, 4, 0.00,10.00,WinterDesignDay
250,-17.064320003552822
251,33258891.428617395
336,0.0
385,23.9416331941381
386,27.648819615315738
387,-18.498877875126023
388,0.0
425,0.0
450,0.0
451,0.0
452,-19.36166470167132
453,0.0
490,0.0
515,0.0
516,0.0
542,0.0
592,0.0
632,33000000.0
686,1.0
687,1.0
688,2.0
2,1, 1,21, 0, 4,10.00,20.00,WinterDesignDay
250,-17.06432000363742
251,33258891.42861679
336,0.0
385,23.9416331941381
386,27.648819615315738
387,-18.49887905001645
388,0.0
425,0.0
450,0.0
451,0.0
452,-19.36166486546753
453,0.0
490,0.0
515,0.0
516,0.0
542,0.0
592,0.0
632,33000000.0
686,1.0
687,1.0
688,2.0
2,1, 1,21, 0, 4,20.00,30.00,WinterDesignDay
250,-17.0643200037209
251,33258891.42861619
336,0.0
385,23.9416331941381
386,27.648819615315738
387,-18.49888020958896
388,0.0
425,0.0
450,0.0
451,0.0
452,-19.36166502712782
453,0.0
490,0.0
515,0.0
516,0.0
542,0.0
592,0.0
632,33000000.0
686,1.0
687,1.0
688,2.0
2,1, 1,21, 0, 4,30.00,40.00,WinterDesignDay
250,-17.064320003803267
251,33258891.428615592
336,0.0
385,23.9416331941381
386,27.648819615315738
387,-18.49888135404337
388,0.0
425,0.0
450,0.0
451,0.0
452,-19.361665186680046
453,0.0
490,0.0
515,0.0
516,0.0
542,0.0
592,0.0
632,33000000.0
686,1.0
687,1.0
688,2.0
2,1, 1,21, 0, 4,40.00,50.00,WinterDesignDay
250,-17.064320003884546
251,33258891.428615008
336,0.0
385,23.9416331941381
386,27.648819615315738
387,-18.49888248357677
388,0.0
425,0.0
450,0.0
451,0.0
452,-19.361665344151696
453,0.0
490,0.0
515,0.0
516,0.0
542,0.0
592,0.0
632,33000000.0
686,1.0
687,1.0
688,2.0
2,1, 1,21, 0, 4,50.00,60.00,WinterDesignDay
250,-17.06432000396475
251,33258891.42861443
336,0.0
385,23.9416331941381
386,27.648819615315738
387,-18.49888359838379
388,0.0
425,0.0
450,0.0
451,0.0
452,-19.361665499569906
453,0.0
490,0.0
515,0.0
516,0.0
542,0.0
592,0.0
632,33000000.0
686,1.0
687,1.0
688,2.0
2,1, 1,21, 0, 5, 0.00,10.00,WinterDesignDay
250,-17.064320004043893
251,33258891.428613864
336,0.0
385,23.9416331941381
386,27.648819615315738
387,-18.498884698656223
388,0.0
425,0.0
450,0.0
451,0.0
452,-19.36166565296146
453,0.0
490,0.0
515,0.0
516,0.0
542,0.0
592,0.0
632,33000000.0
686,1.0
687,1.0
688,2.0
2,1, 1,21, 0, 5,10.00,20.00,WinterDesignDay
250,-17.06432000412199
251,33258891.428613298
336,0.0
385,23.9416331941381
386,27.648819615315738
387,-18.498885784583486
388,0.0
425,0.0
450,0.0
451,0.0
452,-19.361665804352786
453,0.0
490,0.0
515,0.0
516,0.0
542,0.0
592,0.0
632,33000000.0
686,1.0
687,1.0
688,2.0
2,1, 1,21, 0, 5,20.00,30.00,WinterDesignDay
250,-17.06432000419905
251,33258891.428612746
336,0.0
385,23.9416331941381
386,27.648819615315738
387,-18.49888685635266
388,0.0
425,0.0
450,0.0
451,0.0
452,-19.36166595376997
453,0.0
490,0.0
515,0.0
516,0.0
542,0.0
592,0.0
632,33000000.0
686,1.0
687,1.0
688,2.0
2,1, 1,21, 0, 5,30.00,40.00,WinterDesignDay
250,-17.064320004275093
251,33258891.4286122
336,0.0
385,23.9416331941381
386,27.648819615315738
387,-18.498887914148373
388,0.0
425,0.0
450,0.0
451,0.0
452,-19.361666101238754
453,0.0
490,0.0
515,0.0
516,0.0
542,0.0
592,0.0
632,33000000.0
686,1.0
687,1.0
688,2.0
2,1, 1,21, 0, 5,40.00,50.00,WinterDesignDay
250,-17.064320004350126
251,33258891.428611662
336,0.0
385,23.9416331941381
386,27.648819615315738
387,-18.49888895815286
388,0.0
425,0.0
450,0.0
451,0.0
452,-19.36166624678455
453,0.0
490,0.0
515,0.0
516,0.0
542,0.0
592,0.0
632,33000000.0
686,1.0
687,1.0
688,2.0
2,1, 1,21, 0, 5,50.00,60.00,WinterDesignDay
250,-17.064320004424168
251,33258891.428611126
336,0.0
385,23.9416331941381
386,27.648819615315738
387,-18.498889988545972
388,0.0
425,0.0
450,0.0
451,0.0
452,-19.36166639043244
453,0.0
490,0.0
515,0.0
516,0.0
542,0.0
592,0.0
632,33000000.0
686,1.0
687,1.0
688,2.0
2,1, 1,21, 0, 6, 0.00,10.00,WinterDesignDay
250,-17.064320004497237
251,33258891.4286106
336,0.0
385,23.9416331941381
386,27.648819615315738
387,-18.49889100550497
388,0.0
425,0.0
450,0.0
451,0.0
452,-19.36166653220717
453,0.0
490,0.0
515,0.0
516,0.0
542,0.0
592,0.0
632,33000000.0
686,1.0
687,1.0
688,2.0
2,1, 1,21, 0, 6,10.00,20.00,WinterDesignDay
250,-17.064320004569332
251,33258891.428610083
336,0.0
385,23.9416331941381
386,27.648819615315738
387,-18.498892009205168
388,0.0
425,0.0
450,0.0
451,0.0
452,-19.36166667213317
453,0.0
490,0.0
515,0.0
516,0.0
542,0.0
592,0.0
632,33000000.0
686,1.0
687,1.0
688,2.0
2,1, 1,21, 0, 6,20.00,30.00,WinterDesignDay
250,-17.06432000464048
251,33258891.428609572
336,0.0
385,23.9416331941381
386,27.648819615315738
387,-18.49889299981939
388,0.0
425,0.0
450,0.0
451,0.0
452,-19.36166681023455
453,0.0
490,0.0
515,0.0
516,0.0
542,0.0
592,0.0
632,33000000.0
686,1.0
687,1.0
688,2.0
2,1, 1,21, 0, 6,30.00,40.00,WinterDesignDay
250,-17.06432000471068
251,33258891.428609066
336,0.0
385,23.9416331941381
386,27.648819615315738
387,-18.498893977518062
388,0.0
425,0.0
450,0.0
451,0.0
452,-19.361666946535117
453,0.0
490,0.0
515,0.0
516,0.0
542,0.0
592,0.0
632,33000000.0
686,1.0
687,1.0
688,2.0
2,1, 1,21, 0, 6,40.00,50.00,WinterDesignDay
250,-17.064320004779955
251,33258891.42860857
336,0.0
385,23.9416331941381
386,27.648819615315738
387,-18.498894942469597
388,0.0
425,0.0
450,0.0
451,0.0
452,-19.361667081058343
453,0.0
490,0.0
515,0.0
516,0.0
542,0.0
592,0.0
632,33000000.0
686,1.0
687,1.0
688,2.0
2,1, 1,21, 0, 6,50.00,60.00,WinterDesignDay
250,-17.064320004848312
251,33258891.42860808
336,0.0
385,23.9416331941381
386,27.648819615315738
387,-18.498895894840356
388,0.0
425,0.0
450,0.0
451,0.0
452,-19.361667213827406
453,0.0
490,0.0
515,0.0
516,0.0
542,0.0
592,0.0
632,33000000.0
686,1.0
687,1.0
688,2.0
2,1, 1,21, 0, 7, 0.00,10.00,WinterDesignDay
250,-17.064320004915768
251,33258891.428607598
336,0.0
385,23.9416331941381
386,27.648819615315738
387,-18.49889683479442
388,0.0
425,0.0
450,0.0
451,0.0
452,-19.36166734486519
453,0.0
490,0.0
515,0.0
516,0.0
542,0.0
592,0.0
632,33000000.0
686,1.0
687,1.0
688,2.0
2,1, 1,21, 0, 7,10.00,20.00,WinterDesignDay
250,-17.064320004982335
251,33258891.428607117
336,0.0
385,23.9416331941381
386,27.648819615315738
387,-18.498897762493655
388,0.0
425,0.0
450,0.0
451,0.0
452,-19.361667474194263
453,0.0
490,0.0
515,0.0
516,0.0
542,0.0
592,0.0
632,33000000.0
686,1.0
687,1.0
688,2.0
2,1, 1,21, 0, 7,20.00,30.00,WinterDesignDay
250,-17.06432000504802
251,33258891.428606644
336,0.0
385,23.9416331941381
386,27.648819615315738
387,-18.4988986780977
388,0.0
425,0.0
450,0.0
451,0.0
452,-19.36166760183691
453,0.0
490,0.0
515,0.0
516,0.0
542,0.0
592,0.0
632,33000000.0
686,1.0
687,1.0
688,2.0
2,1, 1,21, 0, 7,30.00,40.00,WinterDesignDay
250,-17.064320005112837
251,33258891.428606182
336,0.0
385,23.9416331941381
386,27.648819615315738
387,-18.49889958176416
388,0.0
425,0.0
450,0.0
451,0.0
452,-19.361667727815135
453,0.0
490,0.0
515,0.0
516,0.0
542,0.0
592,0.0
632,33000000.0
686,1.0
687,1.0
688,2.0
2,1, 1,21, 0, 7,40.00,50.00,WinterDesignDay
250,-17.064320005176793
251,33258891.428605717
336,0.0
385,23.9416331941381
386,27.648819615315738
387,-18.49890047364884
388,0.0
425,0.0
450,0.0
451,0.0
452,-19.36166785215064
453,0.0
490,0.0
515,0.0
516,0.0
542,0.0
592,0.0
632,33000000.0
686,1.0
687,1.0
688,2.0
2,1, 1,21, 0, 7,50.00,60.00,WinterDesignDay
250,-17.064320005239914
251,33258891.428605273
336,0.0
385,23.9416331941381
386,27.648819615315738
387,-18.498901353905264
388,0.0
425,0.0
450,0.0
451,0.0
452,-19.361667974864837
453,0.0
490,0.0
515,0.0
516,0.0
542,0.0
592,0.0
632,33000000.0
686,1.0
687,1.0
688,2.0
2,1, 1,21, 0, 8, 0.00,10.00,WinterDesignDay
250,-17.064320005302193
251,33258891.428604815
336,0.0
385,23.9416331941381
386,27.648819615315738
387,-18.498902222684944
388,0.0
425,0.0
450,0.0
451,0.0
452,-19.361668095978878
453,0.0
490,0.0
515,0.0
516,0.0
542,0.0
592,0.0
632,33000000.0
686,1.0
687,1.0
688,2.0
2,1, 1,21, 0, 8,10.00,20.00,WinterDesignDay
250,-17.064320005363655
251,33258891.428604383
336,0.0
385,23.9416331941381
386,27.648819615315738
387,-18.49890308013769
388,0.0
425,0.0
450,0.0
451,0.0
452,-19.361668215513628
453,0.0
490,0.0
515,0.0
516,0.0
542,0.0
592,0.0
632,33000000.0
686,1.0
687,1.0
688,2.0
2,1, 1,21, 0, 8,20.00,30.00,WinterDesignDay
250,-17.0643200054243
251,33258891.428603947
336,0.0
385,23.9416331941381
386,27.648819615315738
387,-18.498903926411177
388,0.0
425,0.0
450,0.0
451,0.0
452,-19.361668333489682
453,0.0
490,0.0
515,0.0
516,0.0
542,0.0
592,0.0
632,33000000.0
686,1.0
687,1.0
688,2.0
2,1, 1,21, 0, 8,30.00,40.00,WinterDesignDay
250,-17.06432000548415
251,33258891.428603515
336,0.0
385,23.9416331941381
386,27.648819615315738
387,-18.49890476165103
388,0.0
425,0.0
450,0.0
451,0.0
452,-19.361668449927375
453,0.0
490,0.0
515,0.0
516,0.0
542,0.0
592,0.0
632,33000000.0
686,1.0
687,1.0
688,2.0
2,1, 1,21, 0, 8,40.00,50.00,WinterDesignDay
250,-17.06432000554321
251,33258891.42860309
336,0.0
385,23.9416331941381
386,27.648819615315738
387,-18.498905586001055
388,0.0
425,0.0
450,0.0
451,0.0
452,-19.361668564846767
453,0.0
490,0.0
515,0.0
516,0.0
542,0.0
592,0.0
632,33000000.0
686,1.0
687,1.0
688,2.0
2,1, 1,21, 0, 8,50.00,60.00,WinterDesignDay
250,-17.064320005601484
251,33258891.428602677
336,0.0
385,23.9416331941381
386,27.648819615315738
387,-18.49890639960328
388,0.0
425,0.0
450,0.0
451,0.0
452,-19.361668678267648
453,0.0
490,0.0
515,0.0
516,0.0
542,0.0
592,0.0
632,33000000.0
686,1.0
687,1.0
688,2.0
2,1, 1,21, 0, 9, 0.00,10.00,WinterDesignDay
250,-17.064320005658992
251,33258891.42860226
336,0.0
385,23.9416331941381
386,27.648819615315738
387,-18.498907202597863
388,0.0
425,0.0
450,0.0
451,0.0
452,-19.361668790209563
453,0.0
490,0.0
515,0.0
516,0.0
542,0.0
592,0.0
632,33000000.0
686,1.0
687,1.0
688,2.0
2,1, 1,21, 0, 9,10.00,20.00,WinterDesignDay
250,-17.064320005715743
251,33258891.428601854
336,0.0
385,23.9416331941381
386,27.648819615315738
387,-18.498907995123254
388,0.0
425,0.0
450,0.0
451,0.0
452,-19.361668900691797
453,0.0
490,0.0
515,0.0
516,0.0
542,0.0
592,0.0
632,33000000.0
686,1.0
687,1.0
688,2.0
2,1, 1,21, 0, 9,20.00,30.00,WinterDesignDay
250,-17.064320005771744
251,33258891.428601455
336,0.0
385,23.9416331941381
386,27.648819615315738
387,-18.4989087773159
388,0.0
425,0.0
450,0.0
451,0.0
452,-19.361669009733387
453,0.0
490,0.0
515,0.0
516,0.0
542,0.0
592,0.0
632,33000000.0
686,1.0
687,1.0
688,2.0
2,1, 1,21, 0, 9,30.00,40.00,WinterDesignDay
250,-17.064320005827003
251,33258891.428601056
336,0.0
385,23.9416331941381
386,27.648819615315738
387,-18.498909549310444
388,0.0
425,0.0
450,0.0
451,0.0
452,-19.361669117353127
453,0.0
490,0.0
515,0.0
516,0.0
542,0.0
592,0.0
632,33000000.0
686,1.0
687,1.0
688,2.0
2,1, 1,21, 0, 9,40.00,50.00,WinterDesignDay
250,-17.064320005881537
251,33258891.428600665
336,0.0
385,23.9416331941381
386,27.648819615315738
387,-18.498910311239655
388,0.0
425,0.0
450,0.0
451,0.0
452,-19.361669223569553
453,0.0
490,0.0
515,0.0
516,0.0
542,0.0
592,0.0
632,33000000.0
686,1.0
687,1.0
688,2.0
2,1, 1,21, 0, 9,50.00,60.00,WinterDesignDay
250,-17.06432000593535
251,33258891.42860028
336,0.0
385,23.9416331941381
386,27.648819615315738
387,-18.498911063234683
388,0.0
425,0.0
450,0.0
451,0.0
452,-19.361669328400968
453,0.0
490,0.0
515,0.0
516,0.0
542,0.0
592,0.0
632,33000000.0
686,1.0
687,1.0
688,2.0
2,1, 1,21, 0,10, 0.00,10.00,WinterDesignDay
250,-17.064320005988453
251,33258891.428599898
336,0.0
385,23.9416331941381
386,27.648819615315738
387,-18.498911805425404
388,0.0
425,0.0
450,0.0
451,0.0
452,-19.361669431865426
453,0.0
490,0.0
515,0.0
516,0.0
542,0.0
592,0.0
632,33000000.0
686,1.0
687,1.0
688,2.0
2,1, 1,21, 0,10,10.00,20.00,WinterDesignDay
250,-17.064320006040855
251,33258891.42859952
336,0.0
385,23.9416331941381
386,27.648819615315738
387,-18.49891253793985
388,0.0
425,0.0
450,0.0
451,0.0
452,-19.36166953398076
453,0.0
490,0.0
515,0.0
516,0.0
542,0.0
592,0.0
632,33000000.0
686,1.0
687,1.0
688,2.0
2,1, 1,21, 0,10,20.00,30.00,WinterDesignDay
250,-17.06432000609257
251,33258891.428599153
336,0.0
385,23.9416331941381
386,27.648819615315738
387,-18.498913260903812
388,0.0
425,0.0
450,0.0
451,0.0
452,-19.36166963476456
453,0.0
490,0.0
515,0.0
516,0.0
542,0.0
592,0.0
632,33000000.0
686,1.0
687,1.0
688,2.0
2,1, 1,21, 0,10,30.00,40.00,WinterDesignDay
250,-17.0643200061436
251,33258891.428598788
336,0.0
385,23.9416331941381
386,27.648819615315738
387,-18.49891397444177
388,0.0
425,0.0
450,0.0
451,0.0
452,-19.361669734234194
453,0.0
490,0.0
515,0.0
516,0.0
542,0.0
592,0.0
632,33000000.0
686,1.0
687,1.0
688,2.0
2,1, 1,21, 0,10,40.00,50.00,WinterDesignDay
250,-17.064320006193956
251,33258891.42859843
336,0.0
385,23.9416331941381
386,27.648819615315738
387,-18.498914678676726
388,0.0
425,0.0
450,0.0
451,0.0
452,-19.361669832406793
453,0.0
490,0.0
515,0.0
516,0.0
542,0.0
592,0.0
632,33000000.0
686,1.0
687,1.0
688,2.0
2,1, 1,21, 0,10,50.00,60.00,WinterDesignDay
250,-17.064320006243648
251,33258891.428598072
336,0.0
385,23.9416331941381
386,27.648819615315738
387,-18.49891537372979
388,0.0
425,0.0
450,0.0
451,0.0
452,-19.361669929299275
453,0.0
490,0.0
515,0.0
516,0.0
542,0.0
592,0.0
632,33000000.0
686,1.0
687,1.0
688,2.0
2,1, 1,21, 0,11, 0.00,10.00,WinterDesignDay
250,-17.064320006292686
251,33258891.428597722
336,0.0
385,23.9416331941381
386,27.648819615315738
387,-18.498916059720766
388,0.0
425,0.0
450,0.0
451,0.0
452,-19.361670024928333
453,0.0
490,0.0
515,0.0
516,0.0
542,0.0
592,0.0
632,33000000.0
686,1.0
687,1.0
688,2.0
2,1, 1,21, 0,11,10.00,20.00,WinterDesignDay
250,-17.064320006341077
251,33258891.428597372
336,0.0
385,23.9416331941381
386,27.648819615315738
387,-18.49891673676798
388,0.0
425,0.0
450,0.0
451,0.0
452,-19.36167011931045
453,0.0
490,0.0
515,0.0
516,0.0
542,0.0
592,0.0
632,33000000.0
686,1.0
687,1.0
688,2.0
2,1, 1,21, 0,11,20.00,30.00,WinterDesignDay
250,-17.06432000638883
251,33258891.42859703
336,0.0
385,23.9416331941381
386,27.648819615315738
387,-18.498917404988006
388,0.0
425,0.0
450,0.0
451,0.0
452,-19.361670212461878
453,0.0
490,0.0
515,0.0
516,0.0
542,0.0
592,0.0
632,33000000.0
686,1.0
687,1.0
688,2.0
2,1, 1,21, 0,11,30.00,40.00,WinterDesignDay
250,-17.064320006435956
251,33258891.428596698
336,0.0
385,23.9416331941381
386,27.648819615315738
387,-18.49891806449585
388,0.0
425,0.0
450,0.0
451,0.0
452,-19.361670304398665
453,0.0
490,0.0
515,0.0
516,0.0
542,0.0
592,0.0
632,33000000.0
686,1.0
687,1.0
688,2.0
2,1, 1,21, 0,11,40.00,50.00,WinterDesignDay
250,-17.064320006482458
251,33258891.42859636
336,0.0
385,23.9416331941381
386,27.648819615315738
387,-18.498918715404972
388,0.0
425,0.0
450,0.0
451,0.0
452,-19.361670395136652
453,0.0
490,0.0
515,0.0
516,0.0
542,0.0
592,0.0
632,33000000.0
686,1.0
687,1.0
688,2.0
2,1, 1,21, 0,11,50.00,60.00,WinterDesignDay
250,-17.06432000652835
251,33258891.428596035
336,0.0
385,23.9416331941381
386,27.648819615315738
387,-18.498919357827386
388,0.0
425,0.0
450,0.0
451,0.0
452,-19.361670484691476
453,0.0
490,0.0
515,0.0
516,0.0
542,0.0
592,0.0
632,33000000.0
686,1.0
687,1.0
688,2.0
2,1, 1,21, 0,12, 0.00,10.00,WinterDesignDay
250,-17.064320006573638
251,33258891.428595707
336,0.0
385,23.9416331941381
386,27.648819615315738
387,-18.498919991874015
388,0.0
425,0.0
450,0.0
451,0.0
452,-19.361670573078563
453,0.0
490,0.0
515,0.0
516,0.0
542,0.0
592,0.0
632,33000000.0
686,1.0
687,1.0
688,2.0
2,1, 1,21, 0,12,10.00,20.00,WinterDesignDay
250,-17.064320006618328
251,33258891.428595386
336,0.0
385,23.9416331941381
386,27.648819615315738
387,-18.498920617654075
388,0.0
425,0.0
450,0.0
451,0.0
452,-19.361670660313134
453,0.0
490,0.0
515,0.0
516,0.0
542,0.0
592,0.0
632,33000000.0
686,1.0
687,1.0
688,2.0
2,1, 1,21, 0,12,20.00,30.00,WinterDesignDay
250,-17.064320006662427
251,33258891.428595074
336,0.0
385,23.9416331941381
386,27.648819615315738
387,-18.49892123527536
388,0.0
425,0.0
450,0.0
451,0.0
452,-19.36167074641023
453,0.0
490,0.0
515,0.0
516,0.0
542,0.0
592,0.0
632,33000000.0
686,1.0
687,1.0
688,2.0
2,1, 1,21, 0,12,30.00,40.00,WinterDesignDay
250,-17.064320006705945
251,33258891.428594764
336,0.0
385,23.9416331941381
386,27.648819615315738
387,-18.498921844844098
388,0.0
425,0.0
450,0.0
451,0.0
452,-19.361670831384675
453,0.0
490,0.0
515,0.0
516,0.0
542,0.0
592,0.0
632,33000000.0
686,1.0
687,1.0
688,2.0
2,1, 1,21, 0,12,40.00,50.00,WinterDesignDay
250,-17.064320006748893
251,33258891.42859446
336,0.0
385,23.9416331941381
386,27.648819615315738
387,-18.498922446465187
388,0.0
425,0.0
450,0.0
451,0.0
452,-19.36167091525111
453,0.0
490,0.0
515,0.0
516,0.0
542,0.0
592,0.0
632,33000000.0
686,1.0
687,1.0
688,2.0
2,1, 1,21, 0,12,50.00,60.00,WinterDesignDay
250,-17.064320006791274
251,33258891.428594146
336,0.0
385,23.9416331941381
386,27.648819615315738
387,-18.498923040242282
388,0.0
425,0.0
450,0.0
451,0.0
452,-19.36167099802399
453,0.0
490,0.0
515,0.0
516,0.0
542,0.0
592,0.0
632,33000000.0
686,1.0
687,1.0
688,2.0
2,1, 1,21, 0,13, 0.00,10.00,WinterDesignDay
250,-17.0643200068331
251,33258891.428593855
336,0.0
385,23.9416331941381
386,27.648819615315738
387,-18.49892362627769
388,0.0
425,0.0
450,0.0
451,0.0
452,-19.361671079717567
453,0.0
490,0.0
515,0.0
516,0.0
542,0.0
592,0.0
632,33000000.0
686,1.0
687,1.0
688,2.0
2,1, 1,21, 0,13,10.00,20.00,WinterDesignDay
250,-17.06432000687437
251,33258891.42859356
336,0.0
385,23.9416331941381
386,27.648819615315738
387,-18.498924204672548
388,0.0
425,0.0
450,0.0
451,0.0
452,-19.361671160345914
453,0.0
490,0.0
515,0.0
516,0.0
542,0.0
592,0.0
632,33000000.0
686,1.0
687,1.0
688,2.0
2,1, 1,21, 0,13,20.00,30.00,WinterDesignDay
250,-17.0643200069151
251,33258891.42859326
336,0.0
385,23.9416331941381
386,27.648819615315738
387,-18.498924775526557
388,0.0
425,0.0
450,0.0
451,0.0
452,-19.361671239922927
453,0.0
490,0.0
515,0.0
516,0.0
542,0.0
592,0.0
632,33000000.0
686,1.0
687,1.0
688,2.0
2,1, 1,21, 0,13,30.00,40.00,WinterDesignDay
250,-17.064320006955295
251,33258891.428592972
336,0.0
385,23.9416331941381
386,27.648819615315738
387,-18.498925338937628
388,0.0
425,0.0
450,0.0
451,0.0
452,-19.361671318462314
453,0.0
490,0.0
515,0.0
516,0.0
542,0.0
592,0.0
632,33000000.0
686,1.0
687,1.0
688,2.0
2,1, 1,21, 0,13,40.00,50.00,WinterDesignDay
250,-17.06432000699496
251,33258891.428592697
336,0.0
385,23.9416331941381
386,27.648819615315738
387,-18.498925895002802
388,0.0
425,0.0
450,0.0
451,0.0
452,-19.361671395977606
453,0.0
490,0.0
515,0.0
516,0.0
542,0.0
592,0.0
632,33000000.0
686,1.0
687,1.0
688,2.0
2,1, 1,21, 0,13,50.00,60.00,WinterDesignDay
250,-17.0643200070341
251,33258891.428592414
336,0.0
385,23.9416331941381
386,27.648819615315738
387,-18.4989264438181
388,0.0
425,0.0
450,0.0
451,0.0
452,-19.36167147248216
453,0.0
490,0.0
515,0.0
516,0.0
542,0.0
592,0.0
632,33000000.0
686,1.0
687,1.0
688,2.0
2,1, 1,21, 0,14, 0.00,10.00,WinterDesignDay
250,-17.064320007072727
251,33258891.428592138
336,0.0
385,23.9416331941381
386,27.648819615315738
387,-18.49892698547796
388,0.0
425,0.0
450,0.0
451,0.0
452,-19.36167154798916
453,0.0
490,0.0
515,0.0
516,0.0
542,0.0
592,0.0
632,33000000.0
686,1.0
687,1.0
688,2.0
2,1, 1,21, 0,14,10.00,20.00,WinterDesignDay
250,-17.064320007110844
251,33258891.428591862
336,0.0
385,23.9416331941381
386,27.648819615315738
387,-18.49892752007568
388,0.0
425,0.0
450,0.0
451,0.0
452,-19.361671622511608
453,0.0
490,0.0
515,0.0
516,0.0
542,0.0
592,0.0
632,33000000.0
686,1.0
687,1.0
688,2.0
2,1, 1,21, 0,14,20.00,30.00,WinterDesignDay
250,-17.06432000714846
251,33258891.428591598
336,0.0
385,23.9416331941381
386,27.648819615315738
387,-18.498928047703313
388,0.0
425,0.0
450,0.0
451,0.0
452,-19.361671696062338
453,0.0
490,0.0
515,0.0
516,0.0
542,0.0
592,0.0
632,33000000.0
686,1.0
687,1.0
688,2.0
2,1, 1,21, 0,14,30.00,40.00,WinterDesignDay
250,-17.064320007185582
251,33258891.42859133
336,0.0
385,23.9416331941381
386,27.648819615315738
387,-18.49892856845166
388,0.0
425,0.0
450,0.0
451,0.0
452,-19.36167176865403
453,0.0
490,0.0
515,0.0
516,0.0
542,0.0
592,0.0
632,33000000.0
686,1.0
687,1.0
688,2.0
2,1, 1,21, 0,14,40.00,50.00,WinterDesignDay
250,-17.064320007222218
251,33258891.42859107
336,0.0
385,23.9416331941381
386,27.648819615315738
387,-18.49892908241058
388,0.0
425,0.0
450,0.0
451,0.0
452,-19.361671840299184
453,0.0
490,0.0
515,0.0
516,0.0
542,0.0
592,0.0
632,33000000.0
686,1.0
687,1.0
688,2.0
2,1, 1,21, 0,14,50.00,60.00,WinterDesignDay
250,-17.06432000725837
251,33258891.42859081
336,0.0
385,23.9416331941381
386,27.648819615315738
387,-18.49892958966848
388,0.0
425,0.0
450,0.0
451,0.0
452,-19.36167191101014
453,0.0
490,0.0
515,0.0
516,0.0
542,0.0
592,0.0
632,33000000.0
686,1.0
687,1.0
688,2.0
2,1, 1,21, 0,15, 0.00,10.00,WinterDesignDay
250,-17.064320007294043
251,33258891.428590555
336,0.0
385,23.9416331941381
386,27.648819615315738
387,-18.498930090312825
388,0.0
425,0.0
450,0.0
451,0.0
452,-19.361671980799084
453,0.0
490,0.0
515,0.0
516,0.0
542,0.0
592,0.0
632,33000000.0
686,1.0
687,1.0
688,2.0
2,1, 1,21, 0,15,10.00,20.00,WinterDesignDay
250,-17.064320007329254
251,33258891.42859031
336,0.0
385,23.9416331941381
386,27.648819615315738
387,-18.498930584429853
388,0.0
425,0.0
450,0.0
451,0.0
452,-19.361672049678038
453,0.0
490,0.0
515,0.0
516,0.0
542,0.0
592,0.0
632,33000000.0
686,1.0
687,1.0
688,2.0
2,1, 1,21, 0,15,20.00,30.00,WinterDesignDay
250,-17.064320007363996
251,33258891.428590056
336,0.0
385,23.9416331941381
386,27.648819615315738
387,-18.4989310721045
388,0.0
425,0.0
450,0.0
451,0.0
452,-19.361672117658873
453,0.0
490,0.0
515,0.0
516,0.0
542,0.0
592,0.0
632,33000000.0
686,1.0
687,1.0
688,2.0
2,1, 1,21, 0,15,30.00,40.00,WinterDesignDay
250,-17.06432000739828
251,33258891.428589806
336,0.0
385,23.9416331941381
386,27.648819615315738
387,-18.498931553420864
388,0.0
425,0.0
450,0.0
451,0.0
452,-19.361672184753303
453,0.0
490,0.0
515,0.0
516,0.0
542,0.0
592,0.0
632,33000000.0
686,1.0
687,1.0
688,2.0
2,1, 1,21, 0,15,40.00,50.00,WinterDesignDay
250,-17.064320007432116
251,33258891.42858957
336,0.0
385,23.9416331941381
386,27.648819615315738
387,-18.498932028461876
388,0.0
425,0.0
450,0.0
451,0.0
452,-19.361672250972877
453,0.0
490,0.0
515,0.0
516,0.0
542,0.0
592,0.0
632,33000000.0
686,1.0
687,1.0
688,2.0
2,1, 1,21, 0,15,50.00,60.00,WinterDesignDay
250,-17.064320007465508
251,33258891.428589337