Program Version,EnergyPlus, Version 24.2.0-94a887817b, YMD=2025.02.04 15:39
1,5,Environment Title[],Latitude[deg],Longitude[deg],Time Zone[],Elevation[m]
2,8,Day of Simulation[],Month[],Day of Month[],DST Indicator[1=yes 0=no],Hour[],StartMinute[],EndMinute[],DayType
3,5,Cumulative Day of Simulation[],Month[],Day of Month[],DST Indicator[1=yes 0=no],DayType  ! When Daily Report Variables Requested
4,2,Cumulative Days of Simulation[],Month[]  ! When Monthly Report Variables Requested
5,1,Cumulative Days of Simulation[] ! When Run Period Report Variables Requested
6,1,Calendar Year of Simulation[] ! When Annual Report Variables Requested
250,1,LIVING ZONE,Zone Air Temperature [C] !TimeStep,REPORTSCH
251,1,LIVING ZONE,Zone Air System Sensible Heating Energy [J] !TimeStep,REPORTSCH
336,1,LIVING ZONE,Zone Air System Sensible Cooling Energy [J] !TimeStep,REPORTSCH
385,1,LIVING ZONE,Zone Thermostat Heating Setpoint Temperature [C] !TimeStep,REPORTSCH
386,1,LIVING ZONE,Zone Thermostat Cooling Setpoint Temperature [C] !TimeStep,REPORTSCH
387,1,GARAGE ZONE,Zone Air Temperature [C] !TimeStep,REPORTSCH
388,1,GARAGE ZONE,Zone Air System Sensible Heating Energy [J] !TimeStep,REPORTSCH
425,1,GARAGE ZONE,Zone Air System Sensible Cooling Energy [J] !TimeStep,REPORTSCH
450,1,GARAGE ZONE,Zone Thermostat Heating Setpoint Temperature [C] !TimeStep,REPORTSCH
451,1,GARAGE ZONE,Zone Thermostat Cooling Setpoint Temperature [C] !TimeStep,REPORTSCH
452,1,ATTIC ZONE,Zone Air Temperature [C] !TimeStep,REPORTSCH
453,1,ATTIC ZONE,Zone Air System Sensible Heating Energy [J] !TimeStep,REPORTSCH
490,1,ATTIC ZONE,Zone Air System Sensible Cooling Energy [J] !TimeStep,REPORTSCH
515,1,ATTIC ZONE,Zone Thermostat Heating Setpoint Temperature [C] !TimeStep,REPORTSCH
516,1,ATTIC ZONE,Zone Thermostat Cooling Setpoint Temperature [C] !TimeStep,REPORTSCH
542,1,ACDXCOIL 1,Cooling Coil Total Cooling Energy [J] !TimeStep,REPORTSCH
592,1,HEAT PUMP DX HEATING COIL 1,Heating Coil Heating Energy [J] !TimeStep,REPORTSCH
632,1,SUPP HEATING COIL 1,Heating Coil Heating Energy [J] !TimeStep,REPORTSCH
686,1,TWOSPEED HEAT PUMP 1,Unitary System DX Coil Cycling Ratio [] !TimeStep,REPORTSCH
687,1,TWOSPEED HEAT PUMP 1,Unitary System DX Coil Speed Ratio [] !TimeStep,REPORTSCH
688,1,TWOSPEED HEAT PUMP 1,Unitary System DX Coil Speed Level [] !TimeStep,REPORTSCH
End of Data Dictionary
1,RUN PERIOD 1,  41.98, -87.92,  -6.00, 201.00
2,21, 1,21, 0, 1, 0.00,10.00,Monday
250,-0.5712672878975067
251,37987822.60693901
336,0.0
385,23.616578687616443
386,28.916113180295454
387,-0.9419995019098796
388,0.0
425,0.0
450,0.0
451,0.0
452,-1.968922399332583
453,0.0
490,0.0
515,0.0
516,0.0
542,0.0
592,4839743.985079642
632,32890331.542654376
686,1.0
687,1.0
688,2.0
2,21, 1,21, 0, 1,10.00,20.00,Monday
250,-0.5713155868819457
251,37989462.81984921
336,0.0
385,23.616578687616443
386,28.916113180295454
387,-0.9503744066126968
388,0.0
425,0.0
450,0.0
451,0.0
452,-1.9508021172276384
453,0.0
490,0.0
515,0.0
516,0.0
542,0.0
592,4823801.676011793
632,32906743.715290524
686,1.0
687,1.0
688,2.0
2,21, 1,21, 0, 1,20.00,30.00,Monday
250,-0.571470861312483
251,37991209.60865419
336,0.0
385,23.616578687616443
386,28.916113180295454
387,-0.9599799567422109
388,0.0
425,0.0
450,0.0
451,0.0
452,-1.947716622944919
453,0.0
490,0.0
515,0.0
516,0.0
542,0.0
592,4807858.162905219
632,32924376.4272599
686,1.0
687,1.0
688,2.0
2,21, 1,21, 0, 1,30.00,40.00,Monday
250,-0.5716025938510422
251,37992926.68692473
336,0.0
385,23.616578687616443
386,28.916113180295454
387,-0.9710209225419425
388,0.0
425,0.0
450,0.0
451,0.0
452,-1.9605748645304422
453,0.0
490,0.0
515,0.0
516,0.0
542,0.0
592,4791913.445623511
632,32942050.893202737
686,1.0
687,1.0
688,2.0
2,21, 1,21, 0, 1,40.00,50.00,Monday
250,-0.5717399730837713
251,37994649.99544874
336,0.0
385,23.616578687616443
386,28.916113180295454
387,-0.9836547731591263
388,0.0
425,0.0
450,0.0
451,0.0
452,-1.9877592355831968
453,0.0
490,0.0
515,0.0
516,0.0
542,0.0
592,4775967.524030239
632,32959717.080155116
686,1.0
687,1.0
688,2.0
2,21, 1,21, 0, 1,50.00,60.00,Monday
250,-0.5718779440509217
251,37996374.17008799
336,0.0
385,23.616578687616443
386,28.916113180295454
387,-0.998070422719343
388,0.0
425,0.0
450,0.0
451,0.0
452,-2.027737395207571
453,0.0
490,0.0
515,0.0
516,0.0
542,0.0
592,4760020.397988958
632,32977388.05903007
686,1.0
687,1.0
688,2.0
2,21, 1,21, 0, 2, 0.00,10.00,Monday
250,-0.5720074840003271
251,37998093.86947443
336,0.0
385,23.616578687616443
386,28.916113180295454
387,-1.0135881018937867
388,0.0
425,0.0
450,0.0
451,0.0
452,-2.0744686322016035
453,0.0
490,0.0
515,0.0
516,0.0
542,0.0
592,4760020.397988958
632,32979112.29470462
686,1.0
687,1.0
688,2.0
2,21, 1,21, 0, 2,10.00,20.00,Monday
250,-0.5721564655262441
251,37998209.24895046
336,0.0
385,23.616578687616443
386,28.916113180295454
387,-1.0292679182039732
388,0.0
425,0.0
450,0.0
451,0.0
452,-2.117173889292327
453,0.0
490,0.0
515,0.0
516,0.0
542,0.0
592,4760020.397988958
632,32979217.20617621
686,1.0
687,1.0
688,2.0
2,21, 1,21, 0, 2,20.00,30.00,Monday
250,-0.572305063696784
251,37998275.49787138
336,0.0
385,23.616578687616443
386,28.916113180295454
387,-1.044557707443085
388,0.0
425,0.0
450,0.0
451,0.0
452,-2.148626003890726
453,0.0
490,0.0
515,0.0
516,0.0
542,0.0
592,4760020.397988958
632,32979283.661536373
686,1.0
687,1.0
688,2.0
2,21, 1,21, 0, 2,30.00,40.00,Monday
250,-0.5724505788180002
251,37998357.260506354
336,0.0
385,23.616578687616443
386,28.916113180295454
387,-1.0591363655836057
388,0.0
425,0.0
450,0.0
451,0.0
452,-2.168004822586135
453,0.0
490,0.0
515,0.0
516,0.0
542,0.0
592,4760020.397988958
632,32979367.084171843
686,1.0
687,1.0
688,2.0
2,21, 1,21, 0, 2,40.00,50.00,Monday
250,-0.5725939834167572
251,37998434.82657179
336,0.0
385,23.616578687616443
386,28.916113180295454
387,-1.072863205873285
388,0.0
425,0.0
450,0.0
451,0.0
452,-2.1781467709766686
453,0.0
490,0.0
515,0.0
516,0.0
542,0.0
592,4760020.397988958
632,32979445.786606148
686,1.0
687,1.0
688,2.0
2,21, 1,21, 0, 2,50.00,60.00,Monday
250,-0.5727348434009435
251,37998510.605805494
336,0.0
385,23.616578687616443
386,28.916113180295454
387,-1.0857005096200671
388,0.0
425,0.0
450,0.0
451,0.0
452,-2.1821993275657907
453,0.0
490,0.0
515,0.0
516,0.0
542,0.0
592,4760020.397988958
632,32979522.935937982
686,1.0
687,1.0
688,2.0
2,21, 1,21, 0, 3, 0.00,10.00,Monday
250,-0.4914328404328151
251,37954735.13309221
336,0.0
385,23.616578687616443
386,28.916113180295454
387,-1.0872643241909614
388,0.0
425,0.0
450,0.0
451,0.0
452,-2.1747372098896056
453,0.0
490,0.0
515,0.0
516,0.0
542,0.0
592,4762558.894114006
632,32977060.28586675
686,1.0
687,1.0
688,2.0
2,21, 1,21, 0, 3,10.00,20.00,Monday
250,-0.40826702637970735
251,37911485.36235431
336,0.0
385,23.616578687616443
386,28.916113180295454
387,-1.076252395507712
388,0.0
425,0.0
450,0.0
451,0.0
452,-2.149782997956552
453,0.0
490,0.0
515,0.0
516,0.0
542,0.0
592,4764988.4357309695
632,32932386.312511403
686,1.0
687,1.0
688,2.0
2,21, 1,21, 0, 3,20.00,30.00,Monday
250,-0.3259435533028324
251,37868741.88086607
336,0.0
385,23.616578687616443
386,28.916113180295454
387,-1.0570808493785904
388,0.0
425,0.0
450,0.0
451,0.0
452,-2.1058839976118997
453,0.0
490,0.0
515,0.0
516,0.0
542,0.0
592,4767308.250738335
632,32886871.309637476
686,1.0
687,1.0
688,2.0
2,21, 1,21, 0, 3,30.00,40.00,Monday
250,-0.24341753900016389
251,37825879.79580335
336,0.0
385,23.616578687616443
386,28.916113180295454
387,-1.0335488257413983
388,0.0
425,0.0
450,0.0
451,0.0
452,-2.046167743152616
453,0.0
490,0.0
515,0.0
516,0.0
542,0.0
592,4769517.689516205
632,32841910.700801246
686,1.0
687,1.0
688,2.0
2,21, 1,21, 0, 3,40.00,50.00,Monday
250,-0.16084036069197205
251,37782999.685232684
336,0.0
385,23.616578687616443
386,28.916113180295454
387,-1.0069702757105887
388,0.0
425,0.0
450,0.0
451,0.0
452,-1.9751168308784632
453,0.0
490,0.0
515,0.0
516,0.0
542,0.0
592,4771616.115684971
632,32796961.584129844
686,1.0
687,1.0
688,2.0
2,21, 1,21, 0, 3,50.00,60.00,Monday
250,-0.07823413928771415
251,37740111.00105695
336,0.0
385,23.616578687616443
386,28.916113180295454
387,-0.9771531082922564
388,0.0
425,0.0
450,0.0
451,0.0
452,-1.8963510180640872
453,0.0
490,0.0
515,0.0
516,0.0
542,0.0
592,4773602.736238394
632,32752103.80147199
686,1.0
687,1.0
688,2.0
2,21, 1,21, 0, 4, 0.00,10.00,Monday
250,-0.07703834461992243
251,37741073.79950667
336,0.0
385,23.616578687616443
386,28.916113180295454
387,-0.9544483643070535
388,0.0
425,0.0
450,0.0
451,0.0
452,-1.8201563993892156
453,0.0
490,0.0
515,0.0
516,0.0
542,0.0
592,4773428.982371633
632,32709397.402292967
686,1.0
687,1.0
688,2.0
2,21, 1,21, 0, 4,10.00,20.00,Monday
250,-0.0776853828879188
251,37741494.284245625
336,0.0
385,23.616578687616443
386,28.916113180295454
387,-0.9417956358518792
388,0.0
425,0.0
450,0.0
451,0.0
452,-1.755568887440807
453,0.0
490,0.0
515,0.0
516,0.0
542,0.0
592,4773255.169447958
632,32708999.213085894
686,1.0
687,1.0
688,2.0
2,21, 1,21, 0, 4,20.00,30.00,Monday
250,-0.07745101497048497
251,37741393.45456673
336,0.0
385,23.616578687616443
386,28.916113180295454
387,-0.9357785265826288
388,0.0
425,0.0
450,0.0
451,0.0
452,-1.7061960918510406
453,0.0
490,0.0
515,0.0
516,0.0
542,0.0
592,4773081.29743726
632,32709546.951353773
686,1.0
687,1.0
688,2.0
2,21, 1,21, 0, 4,30.00,40.00,Monday
250,-0.07738794690532133
251,37741401.23847037
336,0.0
385,23.616578687616443
386,28.916113180295454
387,-0.9325479440466329
388,0.0
425,0.0
450,0.0
451,0.0
452,-1.6703856121597869
453,0.0
490,0.0
515,0.0
516,0.0
542,0.0
592,4772907.3663094025
632,32709636.40999757
686,1.0
687,1.0
688,2.0
2,21, 1,21, 0, 4,40.00,50.00,Monday
250,-0.0773453078014344
251,37741417.13178611
336,0.0
385,23.616578687616443
386,28.916113180295454
387,-0.9302987955153579
388,0.0
425,0.0
450,0.0
451,0.0
452,-1.644469706821068
453,0.0
490,0.0
515,0.0
516,0.0
542,0.0
592,4772733.376034233
632,32709815.29123822
686,1.0
687,1.0
688,2.0
2,21, 1,21, 0, 4,50.00,60.00,Monday
250,-0.0773000820646072
251,37741431.24836443
336,0.0
385,23.616578687616443
386,28.916113180295454
387,-0.9288306774096127
388,0.0
425,0.0
450,0.0
451,0.0
452,-1.625387681407069
453,0.0
490,0.0
515,0.0
516,0.0
542,0.0
592,4772559.326581573
632,32710004.85037181
686,1.0
687,1.0
688,2.0
2,21, 1,21, 0, 5, 0.00,10.00,Monday
250,-0.07725763697386065
251,37741446.9390358
336,0.0
385,23.616578687616443
386,28.916113180295454
387,-0.9281902747679747
388,0.0
425,0.0
450,0.0
451,0.0
452,-1.6105225826772385
453,0.0
490,0.0
515,0.0
516,0.0
542,0.0
592,4759720.858689582
632,32722857.511389945
686,1.0
687,1.0
688,2.0
2,21, 1,21, 0, 5,10.00,20.00,Monday
250,-0.07719899464636698
251,37742710.757533394
336,0.0
385,23.616578687616443
386,28.916113180295454
387,-0.928242038930541
388,0.0
425,0.0
450,0.0
451,0.0
452,-1.5975638594768062
453,0.0
490,0.0
515,0.0
516,0.0
542,0.0
592,4746877.262331866
632,32736973.6506608
686,1.0
687,1.0
688,2.0
2,21, 1,21, 0, 5,20.00,30.00,Monday
250,-0.07713977845708929
251,37744012.89562007
336,0.0
385,23.616578687616443
386,28.916113180295454
387,-0.9287585053683381
388,0.0
425,0.0
450,0.0
451,0.0
452,-1.585109569312145
453,0.0
490,0.0
515,0.0
516,0.0
542,0.0
592,4734028.534436011
632,32751124.826845452
686,1.0
687,1.0
688,2.0
2,21, 1,21, 0, 5,30.00,40.00,Monday
250,-0.07708103771567044
251,37745302.4548133
336,0.0
385,23.616578687616443
386,28.916113180295454
387,-0.9295366266935979
388,0.0
425,0.0
450,0.0
451,0.0
452,-1.5727252599142247
453,0.0
490,0.0
515,0.0
516,0.0
542,0.0
592,4721174.671927155
632,32765267.99357563
686,1.0
687,1.0
688,2.0
2,21, 1,21, 0, 5,40.00,50.00,Monday
250,-0.0770221629785675
251,37746594.847406805
336,0.0
385,23.616578687616443
386,28.916113180295454
387,-0.930439929944227
388,0.0
425,0.0
450,0.0
451,0.0
452,-1.5604787938596663
453,0.0
490,0.0
515,0.0
516,0.0
542,0.0
592,4708315.671727969
632,32779419.459654253
686,1.0
687,1.0
688,2.0
2,21, 1,21, 0, 5,50.00,60.00,Monday
250,-0.07696303158315611
251,37747887.95196621
336,0.0
385,23.616578687616443
386,28.916113180295454
387,-0.9313887973086843
388,0.0
425,0.0
450,0.0
451,0.0
452,-1.5485207927797935
453,0.0
490,0.0
515,0.0
516,0.0
542,0.0
592,4695451.530758674
632,32793576.844548523
686,1.0
687,1.0
688,2.0
2,21, 1,21, 0, 6, 0.00,10.00,Monday
250,-0.07690117269699182
251,37749180.06146858
336,0.0
385,23.616578687616443
386,28.916113180295454
387,-0.9324695480143631
388,0.0
425,0.0
450,0.0
451,0.0
452,-1.5375458150370949
453,0.0
490,0.0
515,0.0
516,0.0
542,0.0
592,4695264.082255858
632,32795057.87292286
686,1.0
687,1.0
688,2.0
2,21, 1,21, 0, 6,10.00,20.00,Monday
250,-0.07685606269316776
251,37749223.16400516
336,0.0
385,23.616578687616443
386,28.916113180295454
387,-0.933765985459191
388,0.0
425,0.0
450,0.0
451,0.0
452,-1.528366268052118
453,0.0
490,0.0
515,0.0
516,0.0
542,0.0
592,4695076.569900009
632,32795279.465533715
686,1.0
687,1.0
688,2.0
2,21, 1,21, 0, 6,20.00,30.00,Monday
250,-0.07681158006574013
251,37749228.45189248
336,0.0
385,23.616578687616443
386,28.916113180295454
387,-0.9352731634893696
388,0.0
425,0.0
450,0.0
451,0.0
452,-1.521312146334517
453,0.0
490,0.0
515,0.0
516,0.0
542,0.0
592,4694888.993658494
632,32795471.991724003
686,1.0
687,1.0
688,2.0
2,21, 1,21, 0, 6,30.00,40.00,Monday
250,-0.07676621903178198
251,37749246.657448865
336,0.0
385,23.616578687616443
386,28.916113180295454
387,-0.9369495504317992
388,0.0
425,0.0
450,0.0
451,0.0
452,-1.5161769937169247
453,0.0
490,0.0
515,0.0
516,0.0
542,0.0
592,4694701.35349866
632,32795678.310651004
686,1.0
687,1.0
688,2.0
2,21, 1,21, 0, 6,40.00,50.00,Monday
250,-0.07672032598088095
251,37749262.20694807
336,0.0
385,23.616578687616443
386,28.916113180295454
387,-0.9387633863489266
388,0.0
425,0.0
450,0.0
451,0.0
452,-1.5125101780835088
453,0.0
490,0.0
515,0.0
516,0.0
542,0.0
592,4694513.649387832
632,32795881.850876536
686,1.0
687,1.0
688,2.0
2,21, 1,21, 0, 6,50.00,60.00,Monday
250,-0.07667381744560003
251,37749277.11360972
336,0.0
385,23.616578687616443
386,28.916113180295454
387,-0.9406975586085271
388,0.0
425,0.0
450,0.0
451,0.0
452,-1.509890901974702
453,0.0
490,0.0
515,0.0
516,0.0
542,0.0
592,4694325.881293308
632,32796084.85721128
686,1.0
687,1.0
688,2.0
2,21, 1,21, 0, 7, 0.00,10.00,Monday
250,-0.07786772675713273
251,37749960.28145912
336,0.0
385,23.616578687616443
386,28.916113180295454
387,-0.9451773299655459
388,0.0
425,0.0
450,0.0
451,0.0
452,-1.5131853506107673
453,0.0
490,0.0
515,0.0
516,0.0
542,0.0
592,4723573.583255435
632,32766852.127502624
686,1.0
687,1.0
688,2.0
2,21, 1,21, 0, 7,10.00,20.00,Monday
250,-0.07783854271380157
251,37747083.86613463
336,0.0
385,23.616578687616443
386,28.916113180295454
387,-0.9543783845887662
388,0.0
425,0.0
450,0.0
451,0.0
452,-1.5318629557094066
453,0.0
490,0.0
515,0.0
516,0.0
542,0.0
592,4752837.186047653
632,32735370.971357282
686,1.0
687,1.0
688,2.0
2,21, 1,21, 0, 7,20.00,30.00,Monday
250,-0.0777595970659311
251,37744091.14281714
336,0.0
385,23.616578687616443
386,28.916113180295454
387,-0.96854097555109
388,0.0
425,0.0
450,0.0
451,0.0
452,-1.5712980290651775
453,0.0
490,0.0
515,0.0
516,0.0
542,0.0
592,4782116.702651945
632,32703125.53195608
686,1.0
687,1.0
688,2.0
2,21, 1,21, 0, 7,30.00,40.00,Monday
250,-0.0776940392509036
251,37741134.87825789
336,0.0
385,23.616578687616443
386,28.916113180295454
387,-0.9867086439242887
388,0.0
425,0.0
450,0.0
451,0.0
452,-1.6291180734060946
453,0.0
490,0.0
515,0.0
516,0.0
542,0.0
592,4811412.146064443
632,32670866.61052493
686,1.0
687,1.0
688,2.0
2,21, 1,21, 0, 7,40.00,50.00,Monday
250,-0.07762480061605169
251,37738169.5592113
336,0.0
385,23.616578687616443
386,28.916113180295454
387,-1.0078014093167424
388,0.0
425,0.0
450,0.0
451,0.0
452,-1.6990684252013575
453,0.0
490,0.0
515,0.0
516,0.0
542,0.0
592,4840723.529295459
632,32638591.887701496
686,1.0
687,1.0
688,2.0
2,21, 1,21, 0, 7,50.00,60.00,Monday
250,-0.07755405488031217
251,37735201.09814799
336,0.0
385,23.616578687616443
386,28.916113180295454
387,-1.0310713808648926
388,0.0
425,0.0
450,0.0
451,0.0
452,-1.7754511143300047
453,0.0
490,0.0
515,0.0
516,0.0
542,0.0
592,4870050.865369484
632,32606296.89920912
686,1.0
687,1.0
688,2.0
2,21, 1,21, 0, 8, 0.00,10.00,Monday
250,0.12297541409925004
251,37624297.005340055
336,0.0
385,23.616578687616443
386,28.916113180295454
387,-1.0271541729098244
388,0.0
425,0.0
450,0.0
451,0.0
452,-1.8344161870504299
453,0.0
490,0.0
515,0.0
516,0.0
542,0.0
592,4889730.300311495
632,32583647.536923595
686,1.0
687,1.0
688,2.0
2,21, 1,21, 0, 8,10.00,20.00,Monday
250,0.32369225286347686
251,37518476.35172476
336,0.0
385,23.616578687616443
386,28.916113180295454
387,-0.9855159963884185
388,0.0
425,0.0
450,0.0
451,0.0
452,-1.8256361727372061
453,0.0
490,0.0
515,0.0
516,0.0
542,0.0
592,4909380.719869504
632,32458283.839132186
686,1.0
687,1.0
688,2.0
2,21, 1,21, 0, 8,20.00,30.00,Monday
250,0.5217883487308833
251,37414222.80354574
336,0.0
385,23.616578687616443
386,28.916113180295454
387,-0.9144525046224834
388,0.0
425,0.0
450,0.0
451,0.0
452,-1.718317638324558
453,0.0
490,0.0
515,0.0
516,0.0
542,0.0
592,4929009.6156952735
632,32332997.09376371
686,1.0
687,1.0
688,2.0
2,21, 1,21, 0, 8,30.00,40.00,Monday
250,0.7206419138851408
251,37309505.45748594
336,0.0
385,23.616578687616443
386,28.916113180295454
387,-0.8240454516167453
388,0.0
425,0.0
450,0.0
451,0.0
452,-1.5229179138249347
453,0.0
490,0.0
515,0.0
516,0.0
542,0.0
592,4952863.646772657
632,32204840.406924438
686,1.0
687,1.0
688,2.0
2,21, 1,21, 0, 8,40.00,50.00,Monday
250,0.9195916458588408
251,37204338.21861811
336,0.0
385,23.616578687616443
386,28.916113180295454
387,-0.7223036628667395
388,0.0
425,0.0
450,0.0
451,0.0
452,-1.2471359380363014
453,0.0
490,0.0
515,0.0
516,0.0
542,0.0
592,4977062.298687916
632,32075531.992266804
686,1.0
687,1.0
688,2.0
2,21, 1,21, 0, 8,50.00,60.00,Monday
250,1.1194712315365747
251,37099590.284407735
336,0.0
385,23.616578687616443
386,28.916113180295454
387,-0.626344104923481
388,0.0
425,0.0
450,0.0
451,0.0
452,-0.9339556527651426
453,0.0
490,0.0
515,0.0
516,0.0
542,0.0
592,5001395.306277512
632,31894098.459731482
686,1.0
687,1.0
688,2.0
2,21, 1,21, 0, 9, 0.00,10.00,Monday
250,1.384662601168909
251,36960695.9958385
336,0.0
385,23.616578687616443
386,28.916113180295454
387,-0.4878739982674185
388,0.0
425,0.0
450,0.0
451,0.0
452,-0.45438263423088726
453,0.0
490,0.0
515,0.0
516,0.0
542,0.0
592,5029363.153609448
632,31744048.039101183
686,1.0
687,1.0
688,2.0
2,21, 1,21, 0, 9,10.00,20.00,Monday
250,1.6496458069201556
251,36820980.16474928
336,0.0
385,23.616578687616443
386,28.916113180295454
387,-0.3370026217555324
388,0.0
425,0.0
450,0.0
451,0.0
452,0.06985448362634863
453,0.0
490,0.0
515,0.0
516,0.0
542,0.0
592,5057356.862312016
632,31576276.281718962
686,1.0
687,1.0
688,2.0
2,21, 1,21, 0, 9,20.00,30.00,Monday
250,1.914797674187142
251,36681167.07729556
336,0.0
385,23.616578687616443
386,28.916113180295454
387,-0.17709796518432724
388,0.0
425,0.0
450,0.0
451,0.0
452,0.6345365364997314
453,0.0
490,0.0
515,0.0
516,0.0
542,0.0
592,5085392.284952975
632,31408473.453269728
686,1.0
687,1.0
688,2.0
2,21, 1,21, 0, 9,30.00,40.00,Monday
250,2.179866907993854
251,36541396.92192371
336,0.0
385,23.616578687616443
386,28.916113180295454
387,-0.007384133794372926
388,0.0
425,0.0
450,0.0
451,0.0
452,1.2291635581203249
453,0.0
490,0.0
515,0.0
516,0.0
542,0.0
592,5113485.892141593
632,31240588.730560087
686,1.0
687,1.0
688,2.0
2,21, 1,21, 0, 9,40.00,50.00,Monday
250,2.4453102835120966
251,36400454.16858202
336,0.0
385,23.61657868761646
386,28.91611318029548
387,0.13774170302367067
388,0.0
425,0.0
450,0.0
451,0.0
452,1.7309911506814597
453,0.0
490,0.0
515,0.0
516,0.0
542,0.0
592,5141654.529350725
632,31047646.92167697
686,1.0000000000000009
687,1.0000000000000009
688,2.0000000000000018
2,21, 1,21, 0, 9,50.00,60.00,Monday
250,2.7108693634213124
251,36259877.6099619
336,0.0
385,23.616578687616443
386,28.916113180295454
387,0.2898783336540445
388,0.0
425,0.0
450,0.0
451,0.0
452,2.271602972342473
453,0.0
490,0.0
515,0.0
516,0.0
542,0.0
592,5169915.672059795
632,30903903.979647975
686,1.0
687,1.0
688,2.0
2,21, 1,21, 0,10, 0.00,10.00,Monday
250,3.1719448725354336
251,36015250.43357548
336,0.0
385,23.616578687616443
386,28.916113180295454
387,0.48032861318149067
388,0.0
425,0.0
450,0.0
451,0.0
452,2.8310401161298673
453,0.0
490,0.0
515,0.0
516,0.0
542,0.0
592,5241404.10703412
632,30597946.75833089
686,1.0
687,1.0
688,2.0
2,21, 1,21, 0,10,10.00,20.00,Monday
250,3.6343598052507122
251,35770506.56685401
336,0.0
385,23.61657868761644
386,28.916113180295454
387,0.7713778071249752
388,0.0
425,0.0
450,0.0
451,0.0
452,3.5859517924499618
453,0.0
490,0.0
515,0.0
516,0.0
542,0.0
592,5315291.857316207
632,30278560.277515523
686,1.0
687,1.0
688,2.0
2,21, 1,21, 0,10,20.00,30.00,Monday
250,4.097243821956715
251,35524251.62416024
336,0.0
385,23.616578687616432
386,28.91611318029544
387,1.0517839311900066
388,0.0
425,0.0
450,0.0
451,0.0
452,4.275052485879295
453,0.0
490,0.0
515,0.0
516,0.0
542,0.0
592,5391793.298050372
632,29955930.934369113
686,0.9999999999999996
687,0.9999999999999996
688,1.9999999999999991
2,21, 1,21, 0,10,30.00,40.00,Monday
250,4.56039206888889
251,35277721.25675996
336,0.0
385,23.616578687616453
386,28.916113180295465
387,1.333565061367649
388,0.0
425,0.0
450,0.0
451,0.0
452,4.97672562530208
453,0.0
490,0.0
515,0.0
516,0.0
542,0.0
592,5471132.199313744
632,29630153.42812489
686,1.0000000000000004
687,1.0000000000000004
688,2.000000000000001
2,21, 1,21, 0,10,40.00,50.00,Monday
250,5.023885864906523
251,35030864.409066916
336,0.0
385,23.61657868761646
386,28.91611318029548
387,1.6237153178767234
388,0.0
425,0.0
450,0.0
451,0.0
452,5.740769130819856
453,0.0
490,0.0
515,0.0
516,0.0
542,0.0
592,5553542.375759333
632,29300995.144289576
686,1.0000000000000009
687,1.0000000000000009
688,2.0000000000000018
2,21, 1,21, 0,10,50.00,60.00,Monday
250,5.4873980375449865
251,34783850.70032269
336,0.0
385,23.61657868761646
386,28.91611318029548
387,1.9239502417293042
388,0.0
425,0.0
450,0.0
451,0.0
452,6.5698786734389145
453,0.0
490,0.0
515,0.0
516,0.0
542,0.0
592,5639267.778995938
632,28968308.10311339
686,1.0000000000000009
687,1.0000000000000009
688,2.0000000000000018
2,21, 1,21, 0,11, 0.00,10.00,Monday
250,5.770961880913774
251,34632957.148953386
336,0.0
385,23.616578687616443
386,28.916113180295454
387,2.2104691021023397
388,0.0
425,0.0
450,0.0
451,0.0
452,7.4251200008792075
453,0.0
490,0.0
515,0.0
516,0.0
542,0.0
592,5689519.861596228
632,28735026.950433895
686,1.0
687,1.0
688,2.0
2,21, 1,21, 0,11,10.00,20.00,Monday
250,6.0534598596412135
251,34482573.26846097
336,0.0
385,23.61657868761644
386,28.916113180295454
387,2.4802446412418058
388,0.0
425,0.0
450,0.0
451,0.0
452,8.275671302254555
453,0.0
490,0.0
515,0.0
516,0.0
542,0.0
592,5740969.350869594
632,28533010.72771348
686,1.0
687,1.0
688,2.0
2,21, 1,21, 0,11,20.00,30.00,Monday
250,6.336023521738717
251,34332105.82444421
336,0.0
385,23.616578687616432
386,28.91611318029544
387,2.7524074892277457
388,0.0
425,0.0
450,0.0
451,0.0
452,9.122309672011799
453,0.0
490,0.0
515,0.0
516,0.0
542,0.0
592,5793671.095282218
632,28329869.599090677
686,0.9999999999999996
687,0.9999999999999996
688,1.9999999999999991
2,21, 1,21, 0,11,30.00,40.00,Monday
250,6.618182732164762
251,34181803.45436858
336,0.0
385,23.616578687616453
386,28.916113180295465
387,3.0297435744495256
388,0.0
425,0.0
450,0.0
451,0.0
452,9.944254263281847
453,0.0
490,0.0
515,0.0
516,0.0
542,0.0
592,5847681.4279665835
632,28125501.440328754
686,1.0000000000000004
687,1.0000000000000004
688,2.000000000000001
2,21, 1,21, 0,11,40.00,50.00,Monday
250,6.900164701281565
251,34031542.873966366
336,0.0
385,23.61657868761646
386,28.91611318029548
387,3.3088513458503357
388,0.0
425,0.0
450,0.0
451,0.0
452,10.689802236932632
453,0.0
490,0.0
515,0.0
516,0.0
542,0.0
592,5903058.082199926
632,27919850.125861563
686,1.0000000000000009
687,1.0000000000000009
688,2.0000000000000018
2,21, 1,21, 0,11,50.00,60.00,Monday
250,7.181907222201232
251,33881356.17173343
336,0.0
385,23.61657868761646
386,28.91611318029548
387,3.5858779512496133
388,0.0
425,0.0
450,0.0
451,0.0
452,11.325529103060559
453,0.0
490,0.0
515,0.0
516,0.0
542,0.0
592,5959860.237244541
632,27712836.46953827
686,1.0000000000000009
687,1.0000000000000009
688,2.0000000000000018
2,21, 1,21, 0,12, 0.00,10.00,Monday
250,7.448526880549945
251,33739241.55812277
336,0.0
385,23.616578687616443
386,28.916113180295454
387,3.8258706588600875
388,0.0
425,0.0
450,0.0
451,0.0
452,11.824688759473354
453,0.0
490,0.0
515,0.0
516,0.0
542,0.0
592,5991096.197635707
632,27562429.326841567
686,1.0
687,1.0
688,2.0
2,21, 1,21, 0,12,10.00,20.00,Monday
250,7.712823748791301
251,33601851.015337065
336,0.0
385,23.616578687616443
386,28.916113180295454
387,4.1182583482540664
388,0.0
425,0.0
450,0.0
451,0.0
452,12.388683036405904
453,0.0
490,0.0
515,0.0
516,0.0
542,0.0
592,7572016.881221028
632,25842196.538129285
686,1.0
687,1.0
688,2.0
2,21, 1,21, 0,12,20.00,30.00,Monday
250,7.97830960737398
251,33462116.00909225
336,0.0
385,23.616578687616443
386,28.916113180295454
387,4.387376942646517
388,0.0
425,0.0
450,0.0
451,0.0
452,12.904064814351399
453,0.0
490,0.0
515,0.0
516,0.0
542,0.0
592,7609409.155487608
632,25665369.179346442
686,1.0
687,1.0
688,2.0
2,21, 1,21, 0,12,30.00,40.00,Monday
250,8.243626707603998
251,33322474.014912307
336,0.0
385,23.616578687616443
386,28.916113180295454
387,4.646189360099141
388,0.0
425,0.0
450,0.0
451,0.0
452,13.395598172437063
453,0.0
490,0.0
515,0.0
516,0.0
542,0.0
592,7646583.592010483
632,25488507.18496657
686,1.0
687,1.0
688,2.0
2,21, 1,21, 0,12,40.00,50.00,Monday
250,8.508889874062135
251,33182860.74208206
336,0.0
385,23.616578687616443
386,28.916113180295454
387,4.900615592237793
388,0.0
425,0.0
450,0.0
451,0.0
452,13.837442365948975
453,0.0
490,0.0
515,0.0
516,0.0
542,0.0
592,7683540.190789654
632,25311922.82361902
686,1.0
687,1.0
688,2.0
2,21, 1,21, 0,12,50.00,60.00,Monday
250,8.774135445038079
251,33043256.166988727
336,0.0
385,23.616578687616443
386,28.916113180295454
387,5.149562827722513
388,0.0
425,0.0
450,0.0
451,0.0
452,14.205262230251464
453,0.0
490,0.0
515,0.0
516,0.0
542,0.0
592,7720278.951825121
632,25135575.245673075
686,1.0
687,1.0
688,2.0
2,21, 1,21, 0,13, 0.00,10.00,Monday
250,8.956819472817502
251,32944811.123894233
336,0.0
385,23.616578687616443
386,28.916113180295454
387,5.381949497123649
388,0.0
425,0.0
450,0.0
451,0.0
452,14.496532519589366
453,0.0
490,0.0
515,0.0
516,0.0
542,0.0
592,7745410.487127082
632,25035741.0039587
686,1.0
687,1.0
688,2.0
2,21, 1,21, 0,13,10.00,20.00,Monday
250,9.138825502441167
251,32850579.34927735
336,0.0
385,23.616578687616443
386,28.916113180295454
387,5.600733696759267
388,0.0
425,0.0
450,0.0
451,0.0
452,14.72577986777014
453,0.0
490,0.0
515,0.0
516,0.0
542,0.0
592,7770439.060057994
632,24919488.88916461
686,1.0
687,1.0
688,2.0
2,21, 1,21, 0,13,20.00,30.00,Monday
250,9.321736965838072
251,32756016.590408497
336,0.0
385,23.616578687616443
386,28.916113180295454
387,5.8056315995705265
388,0.0
425,0.0
450,0.0
451,0.0
452,14.908945992450327
453,0.0
490,0.0
515,0.0
516,0.0
542,0.0
592,7795364.67061786
632,24800501.79708407
686,1.0
687,1.0
688,2.0
2,21, 1,21, 0,13,30.00,40.00,Monday
250,9.504406258910441
251,32661612.649384104
336,0.0
385,23.616578687616443
386,28.916113180295454
387,6.000662844803491
388,0.0
425,0.0
450,0.0
451,0.0
452,15.057823147357297
453,0.0
490,0.0
515,0.0
516,0.0
542,0.0
592,7820187.318806678
632,24681157.17891442
686,1.0
687,1.0
688,2.0
2,21, 1,21, 0,13,40.00,50.00,Monday
250,9.686998565730637
251,32567283.886300158
336,0.0
385,23.616578687616443
386,28.916113180295454
387,6.1895769988281515
388,0.0
425,0.0
450,0.0
451,0.0
452,15.177130909263639
453,0.0
490,0.0
515,0.0
516,0.0
542,0.0
592,7844907.00462445
632,24562080.040510915
686,1.0
687,1.0
688,2.0
2,21, 1,21, 0,13,50.00,60.00,Monday
250,9.869614514493186
251,32472975.456005152
336,0.0
385,23.616578687616443
386,28.916113180295454
387,6.373674378949539
388,0.0
425,0.0
450,0.0
451,0.0
452,15.270510839797291
453,0.0
490,0.0
515,0.0
516,0.0
542,0.0
592,7869523.728071173
632,24443180.708564326
686,1.0
687,1.0
688,2.0
2,21, 1,21, 0,14, 0.00,10.00,Monday
250,10.069460371017618
251,32369394.024458036
336,0.0
385,23.616578687616443
386,28.916113180295454
387,6.555792898198236
388,0.0
425,0.0
450,0.0
451,0.0
452,15.326571852693135
453,0.0
490,0.0
515,0.0
516,0.0
542,0.0
592,7896260.907308879
632,24322181.46876396
686,1.0
687,1.0
688,2.0
2,21, 1,21, 0,14,10.00,20.00,Monday
250,10.268645530371085
251,32265779.725075085
336,0.0
385,23.616578687616443
386,28.916113180295454
387,6.736064240261636
388,0.0
425,0.0
450,0.0
451,0.0
452,15.32700294276373
453,0.0
490,0.0
515,0.0
516,0.0
542,0.0
592,7922875.552815753
632,24191608.90542354
686,1.0
687,1.0
688,2.0
2,21, 1,21, 0,14,20.00,30.00,Monday
250,10.467612708672602
251,32162289.558415055
336,0.0
385,23.616578687616443
386,28.916113180295454
387,6.912331960385918
388,0.0
425,0.0
450,0.0
451,0.0
452,15.271343396197633
453,0.0
490,0.0
515,0.0
516,0.0
542,0.0
592,7949367.664591796
632,24061522.20701315
686,1.0
687,1.0
688,2.0
2,21, 1,21, 0,14,30.00,40.00,Monday
250,10.666443844626611
251,32058899.47227968
336,0.0
385,23.616578687616443
386,28.916113180295454
387,7.078645777597934
388,0.0
425,0.0
450,0.0
451,0.0
452,15.149070781392911
453,0.0
490,0.0
515,0.0
516,0.0
542,0.0
592,7975737.242637001
632,23931702.544801846
686,1.0
687,1.0
688,2.0
2,21, 1,21, 0,14,40.00,50.00,Monday
250,10.865152307182527
251,31955597.29151995
336,0.0
385,23.616578687616443
386,28.916113180295454
387,7.2313122516693635
388,0.0
425,0.0
450,0.0
451,0.0
452,14.940464686597519
453,0.0
490,0.0
515,0.0
516,0.0
542,0.0
592,8001984.286951372
632,23802100.69094539
686,1.0
687,1.0
688,2.0
2,21, 1,21, 0,14,50.00,60.00,Monday
250,11.063778667789814
251,31852361.780717265
336,0.0
385,23.616578687616443
386,28.916113180295454
387,7.370621104856179
388,0.0
425,0.0
450,0.0
451,0.0
452,14.64856722736638
453,0.0
490,0.0
515,0.0
516,0.0
542,0.0
592,8028108.797534915
632,23672710.118095983
686,1.0
687,1.0
688,2.0
2,21, 1,21, 0,15, 0.00,10.00,Monday
250,11.328677569309418