Program Version,EnergyPlus, Version 24.2.0-94a887817b, YMD=2025.02.04 15:40
1,5,Environment Title[],Latitude[deg],Longitude[deg],Time Zone[],Elevation[m]
2,8,Day of Simulation[],Month[],Day of Month[],DST Indicator[1=yes 0=no],Hour[],StartMinute[],EndMinute[],DayType
3,5,Cumulative Day of Simulation[],Month[],Day of Month[],DST Indicator[1=yes 0=no],DayType  ! When Daily Report Variables Requested
4,2,Cumulative Days of Simulation[],Month[]  ! When Monthly Report Variables Requested
5,1,Cumulative Days of Simulation[] ! When Run Period Report Variables Requested
6,1,Calendar Year of Simulation[] ! When Annual Report Variables Requested
250,1,LIVING ZONE,Zone Air Temperature [C] !TimeStep,REPORTSCH
251,1,LIVING ZONE,Zone Air System Sensible Heating Energy [J] !TimeStep,REPORTSCH
336,1,LIVING ZONE,Zone Air System Sensible Cooling Energy [J] !TimeStep,REPORTSCH
385,1,LIVING ZONE,Zone Thermostat Heating Setpoint Temperature [C] !TimeStep,REPORTSCH
386,1,LIVING ZONE,Zone Thermostat Cooling Setpoint Temperature [C] !TimeStep,REPORTSCH
387,1,GARAGE ZONE,Zone Air Temperature [C] !TimeStep,REPORTSCH
388,1,GARAGE ZONE,Zone Air System Sensible Heating Energy [J] !TimeStep,REPORTSCH
425,1,GARAGE ZONE,Zone Air System Sensible Cooling Energy [J] !TimeStep,REPORTSCH
450,1,GARAGE ZONE,Zone Thermostat Heating Setpoint Temperature [C] !TimeStep,REPORTSCH
451,1,GARAGE ZONE,Zone Thermostat Cooling Setpoint Temperature [C] !TimeStep,REPORTSCH
452,1,ATTIC ZONE,Zone Air Temperature [C] !TimeStep,REPORTSCH
453,1,ATTIC ZONE,Zone Air System Sensible Heating Energy [J] !TimeStep,REPORTSCH
490,1,ATTIC ZONE,Zone Air System Sensible Cooling Energy [J] !TimeStep,REPORTSCH
515,1,ATTIC ZONE,Zone Thermostat Heating Setpoint Temperature [C] !TimeStep,REPORTSCH
516,1,ATTIC ZONE,Zone Thermostat Cooling Setpoint Temperature [C] !TimeStep,REPORTSCH
542,1,ACDXCOIL 1,Cooling Coil Total Cooling Energy [J] !TimeStep,REPORTSCH
592,1,HEAT PUMP DX HEATING COIL 1,Heating Coil Heating Energy [J] !TimeStep,REPORTSCH
632,1,SUPP HEATING COIL 1,Heating Coil Heating Energy [J] !TimeStep,REPORTSCH
686,1,TWOSPEED HEAT PUMP 1,Unitary System DX Coil Cycling Ratio [] !TimeStep,REPORTSCH
687,1,TWOSPEED HEAT PUMP 1,Unitary System DX Coil Speed Ratio [] !TimeStep,REPORTSCH
688,1,TWOSPEED HEAT PUMP 1,Unitary System DX Coil Speed Level [] !TimeStep,REPORTSCH
End of Data Dictionary
1,RUN PERIOD 1,  41.98, -87.92,  -6.00, 201.00
2,21, 1,21, 0, 1, 0.00,10.00,Monday
250,-0.672989329997252
251,38042578.58681668
336,0.0
385,20.610336904965436
386,28.762570390176936
387,-0.9441937899716702
388,0.0
425,0.0
450,0.0
451,0.0
452,-1.9712879975342805
453,0.0
490,0.0
515,0.0
516,0.0
542,0.0
592,4839743.985079641
632,32944869.907269858
686,1.0
687,1.0
688,2.0
2,21, 1,21, 0, 1,10.00,20.00,Monday
250,-0.6730358906135725
251,38044226.90310393
336,0.0
385,20.610336904965436
386,28.762570390176936
387,-0.9525630538034416
388,0.0
425,0.0
450,0.0
451,0.0
452,-1.9531580097652756
453,0.0
490,0.0
515,0.0
516,0.0
542,0.0
592,4823801.676011795
632,32961508.734327134
686,1.0
687,1.0
688,2.0
2,21, 1,21, 0, 1,20.00,30.00,Monday
250,-0.6731579726151741
251,38045955.75696683
336,0.0
385,20.610336904965436
386,28.762570390176936
387,-0.9621648725711595
388,0.0
425,0.0
450,0.0
451,0.0
452,-1.9500755372086755
453,0.0
490,0.0
515,0.0
516,0.0
542,0.0
592,4807858.162905219
632,32979140.444266386
686,1.0
687,1.0
688,2.0
2,21, 1,21, 0, 1,30.00,40.00,Monday
250,-0.6732654567806622
251,38047662.68207582
336,0.0
385,20.610336904965436
386,28.762570390176936
387,-0.973203987631509
388,0.0
425,0.0
450,0.0
451,0.0
452,-1.9629403044820763
453,0.0
490,0.0
515,0.0
516,0.0
542,0.0
592,4791913.4456235105
632,32996799.942700244
686,1.0
687,1.0
688,2.0
2,21, 1,21, 0, 1,40.00,50.00,Monday
250,-0.6735318575183447
251,38035002.378342524
336,0.0
385,20.610336904965436
386,28.762570390176936
387,-0.985837792337021
388,0.0
425,0.0
450,0.0
451,0.0
452,-1.990133211908424
453,0.0
490,0.0
515,0.0
516,0.0
542,0.0
592,4775967.524030239
632,33000000.0
686,1.0
687,1.0
688,2.0
2,21, 1,21, 0, 1,50.00,60.00,Monday
250,-0.6738372231705395
251,38019076.2375043
336,0.0
385,20.610336904965436
386,28.762570390176936
387,-1.0002551490012388
388,0.0
425,0.0
450,0.0
451,0.0
452,-2.0301234155801264
453,0.0
490,0.0
515,0.0
516,0.0
542,0.0
592,4760020.397988958
632,33000000.0
686,1.0
687,1.0
688,2.0
2,21, 1,21, 0, 2, 0.00,10.00,Monday
250,-0.6739637220832989
251,38018979.93739284
336,0.0
385,20.610336904965436
386,28.762570390176936
387,-1.0157751847017396
388,0.0
425,0.0
450,0.0
451,0.0
452,-2.076868333955455
453,0.0
490,0.0
515,0.0
516,0.0
542,0.0
592,4760020.397988958
632,33000000.0
686,1.0
687,1.0
688,2.0
2,21, 1,21, 0, 2,10.00,20.00,Monday
250,-0.6740844438949098
251,38018976.82687589
336,0.0
385,20.610336904965436
386,28.762570390176936
387,-1.031456769732115
388,0.0
425,0.0
450,0.0
451,0.0
452,-2.119584312187758
453,0.0
490,0.0
515,0.0
516,0.0
542,0.0
592,4760020.397988958
632,33000000.0
686,1.0
687,1.0
688,2.0
2,21, 1,21, 0, 2,20.00,30.00,Monday
250,-0.6742054727225852
251,38018976.99216335
336,0.0
385,20.610336904965436
386,28.762570390176936
387,-1.0467471336377154
388,0.0
425,0.0
450,0.0
451,0.0
452,-2.1510430519256585
453,0.0
490,0.0
515,0.0
516,0.0
542,0.0
592,4760020.397988958
632,33000000.0
686,1.0
687,1.0
688,2.0
2,21, 1,21, 0, 2,30.00,40.00,Monday
250,-0.6743240754444334
251,38018975.685879014
336,0.0
385,20.610336904965436
386,28.762570390176936
387,-1.0613250777586267
388,0.0
425,0.0
450,0.0
451,0.0
452,-2.170423264073715
453,0.0
490,0.0
515,0.0
516,0.0
542,0.0
592,4760020.397988958
632,33000000.0
686,1.0
687,1.0
688,2.0
2,21, 1,21, 0, 2,40.00,50.00,Monday
250,-0.6744408738644444
251,38018974.714388326
336,0.0
385,20.610336904965436
386,28.762570390176936
387,-1.07505001267286
388,0.0
425,0.0
450,0.0
451,0.0
452,-2.1805644492653755
453,0.0
490,0.0
515,0.0
516,0.0
542,0.0
592,4760020.397988958
632,33000000.0
686,1.0
687,1.0
688,2.0
2,21, 1,21, 0, 2,50.00,60.00,Monday
250,-0.6745555973381796
251,38018973.59717396
336,0.0
385,20.610336904965436
386,28.762570390176936
387,-1.0878843452719766
388,0.0
425,0.0
450,0.0
451,0.0
452,-2.1846146467634484
453,0.0
490,0.0
515,0.0
516,0.0
542,0.0
592,4760020.397988959
632,33000000.0
686,1.0
687,1.0
688,2.0
2,21, 1,21, 0, 3, 0.00,10.00,Monday
250,-0.5928424813193535
251,37977453.49144155
336,0.0
385,20.610336904965436
386,28.762570390176936
387,-1.0894420997962717
388,0.0
425,0.0
450,0.0
451,0.0
452,-2.177145673973485
453,0.0
490,0.0
515,0.0
516,0.0
542,0.0
592,4762558.894114006
632,33000000.0
686,1.0
687,1.0
688,2.0
2,21, 1,21, 0, 3,10.00,20.00,Monday
250,-0.5092966385110486
251,37965891.33795433
336,0.0
385,20.610336904965436
386,28.762570390176936
387,-1.0784169088241509
388,0.0
425,0.0
450,0.0
451,0.0
452,-2.1521808806066214
453,0.0
490,0.0
515,0.0
516,0.0
542,0.0
592,4764988.4357309695
632,32986996.922961682
686,1.0
687,1.0
688,2.0
2,21, 1,21, 0, 3,20.00,30.00,Monday
250,-0.42678048790404943
251,37923044.083102666
336,0.0
385,20.610336904965436
386,28.762570390176936
387,-1.0592218217603075
388,0.0
425,0.0
450,0.0
451,0.0
452,-2.10826923839522
453,0.0
490,0.0
515,0.0
516,0.0
542,0.0
592,4767308.250738335
632,32941277.26861163
686,1.0
687,1.0
688,2.0
2,21, 1,21, 0, 3,30.00,40.00,Monday
250,-0.34410285089060794
251,37880103.13373159
336,0.0
385,20.610336904965436
386,28.762570390176936
387,-1.035654802285108
388,0.0
425,0.0
450,0.0
451,0.0
452,-2.048540315121208
453,0.0
490,0.0
515,0.0
516,0.0
542,0.0
592,4769517.689516205
632,32896215.692515157
686,1.0
687,1.0
688,2.0
2,21, 1,21, 0, 3,40.00,50.00,Monday
250,-0.26138340008903166
251,37837148.8200648
336,0.0
385,20.610336904965436
386,28.762570390176936
387,-1.0090275210265327
388,0.0
425,0.0
450,0.0
451,0.0
452,-1.9774775586953142
453,0.0
490,0.0
515,0.0
516,0.0
542,0.0
592,4771616.115684973
632,32851187.34106975
686,1.0
687,1.0
688,2.0
2,21, 1,21, 0, 3,50.00,60.00,Monday
250,-0.1786416285330211
251,37794189.43355209
336,0.0
385,20.610336904965436
386,28.762570390176936
387,-0.9791348963580981
388,0.0
425,0.0
450,0.0
451,0.0
452,-1.8987001564545682
453,0.0
490,0.0
515,0.0
516,0.0
542,0.0
592,4773602.736238394
632,32806255.239064973
686,1.0
687,1.0
688,2.0
2,21, 1,21, 0, 4, 0.00,10.00,Monday
250,-0.17767318239670796
251,37795277.00683896
336,0.0
385,20.610336904965436
386,28.762570390176936
387,-0.9564251911578048
388,0.0
425,0.0
450,0.0
451,0.0
452,-1.8224953668168271
453,0.0
490,0.0
515,0.0
516,0.0
542,0.0
592,4773428.982371633
632,32763478.167619903
686,1.0
687,1.0
688,2.0
2,21, 1,21, 0, 4,10.00,20.00,Monday
250,-0.17820158770039216
251,37795627.29309974
336,0.0
385,20.610336904965436
386,28.762570390176936
387,-0.9437783800773946
388,0.0
425,0.0
450,0.0
451,0.0
452,-1.7579008810601655
453,0.0
490,0.0
515,0.0
516,0.0
542,0.0
592,4773255.169447958
632,32763196.113693736
686,1.0
687,1.0
688,2.0
2,21, 1,21, 0, 4,20.00,30.00,Monday
250,-0.17800739430869233
251,37795550.482575744
336,0.0
385,20.610336904965436
386,28.762570390176936
387,-0.9377583011615948
388,0.0
425,0.0
450,0.0
451,0.0
452,-1.7085228433616557
453,0.0
490,0.0
515,0.0
516,0.0
542,0.0
592,4773081.297437258
632,32763682.342696127
686,1.0
687,1.0
688,2.0
2,21, 1,21, 0, 4,30.00,40.00,Monday
250,-0.17795808785046027
251,37795565.236144304
336,0.0
385,20.610336904965436
386,28.762570390176936
387,-0.9345151599842747
388,0.0
425,0.0
450,0.0
451,0.0
452,-1.6727056723556852
453,0.0
490,0.0
515,0.0
516,0.0
542,0.0
592,4772907.366309401
632,32763792.996117868
686,1.0
687,1.0
688,2.0
2,21, 1,21, 0, 4,40.00,50.00,Monday
250,-0.17792252815336898
251,37795584.88628064
336,0.0
385,20.610336904965436
386,28.762570390176936
387,-0.9322491592499147
388,0.0
425,0.0
450,0.0
451,0.0
452,-1.6467803579662432
453,0.0
490,0.0
515,0.0
516,0.0
542,0.0
592,4772733.376034234
632,32763979.232990686
686,1.0
687,1.0
688,2.0
2,21, 1,21, 0, 4,50.00,60.00,Monday
250,-0.17788510810649927
251,37795603.280481644
336,0.0
385,20.610336904965436
386,28.762570390176936
387,-0.9307643647042672
388,0.0
425,0.0
450,0.0
451,0.0
452,-1.6276873538739272
453,0.0
490,0.0
515,0.0
516,0.0
542,0.0
592,4772559.326581573
632,32764172.6785898
686,1.0
687,1.0
688,2.0
2,21, 1,21, 0, 5, 0.00,10.00,Monday
250,-0.17784956018667508
251,37795622.74109211
336,0.0
385,20.610336904965436
386,28.762570390176936
387,-0.9301089093208942
388,0.0
425,0.0
450,0.0
451,0.0
452,-1.612810421913138
453,0.0
490,0.0
515,0.0
516,0.0
542,0.0
592,4759720.858689582
632,32777029.59884302
686,1.0
687,1.0
688,2.0
2,21, 1,21, 0, 5,10.00,20.00,Monday
250,-0.17780096126584174
251,37796899.06780891
336,0.0
385,20.610336904965436
386,28.762570390176936
387,-0.9301469262307149
388,0.0
425,0.0
450,0.0
451,0.0
452,-1.5998389368315722
453,0.0
490,0.0
515,0.0
516,0.0
542,0.0
592,4746877.262331866
632,32791156.551685676
686,1.0
687,1.0
688,2.0
2,21, 1,21, 0, 5,20.00,30.00,Monday
250,-0.17775244181806263
251,37798206.967307605
336,0.0
385,20.610336904965436
386,28.762570390176936
387,-0.9306505244073581
388,0.0
425,0.0
450,0.0
451,0.0
452,-1.5873711557438184
453,0.0
490,0.0
515,0.0
516,0.0
542,0.0
592,4734028.534436013
632,32805313.13719934
686,1.0
687,1.0
688,2.0
2,21, 1,21, 0, 5,30.00,40.00,Monday
250,-0.17770436860002498
251,37799504.58233519
336,0.0
385,20.610336904965436
386,28.762570390176936
387,-0.9314166767602995
388,0.0
425,0.0
450,0.0
451,0.0
452,-1.5749732411435247
453,0.0
490,0.0
515,0.0
516,0.0
542,0.0
592,4721174.671927155
632,32819464.375300087
686,1.0
687,1.0
688,2.0
2,21, 1,21, 0, 5,40.00,50.00,Monday
250,-0.17765628954493098
251,37800804.78453534
336,0.0
385,20.610336904965436
386,28.762570390176936
387,-0.9323091556088143
388,0.0
425,0.0
450,0.0
451,0.0
452,-1.5627136054487767
453,0.0
490,0.0
515,0.0
516,0.0
542,0.0
592,4708315.671727969
632,32833623.581751935
686,1.0
687,1.0
688,2.0
2,21, 1,21, 0, 5,50.00,60.00,Monday
250,-0.17760808871094091
251,37802105.66652522
336,0.0
385,20.610336904965436
386,28.762570390176936
387,-0.9332484875524899
388,0.0
425,0.0
450,0.0
451,0.0
452,-1.5507431017875324
453,0.0
490,0.0
515,0.0
516,0.0
542,0.0
592,4695451.530758676
632,32847788.671217967
686,1.0
687,1.0
688,2.0
2,21, 1,21, 0, 6, 0.00,10.00,Monday
250,-0.17755775897824808
251,37803405.8921493
336,0.0
385,20.610336904965436
386,28.762570390176936
387,-0.9343211269619701
388,0.0
425,0.0
450,0.0
451,0.0
452,-1.5397573151676691
453,0.0
490,0.0
515,0.0
516,0.0
542,0.0
592,4695264.08225586
632,32849277.493056502
686,1.0
687,1.0
688,2.0
2,21, 1,21, 0, 6,10.00,20.00,Monday
250,-0.1775211322936856
251,37803448.4144792
336,0.0
385,20.610336904965436
386,28.762570390176936
387,-0.935610652560951
388,0.0
425,0.0
450,0.0
451,0.0
452,-1.5305691781907658
453,0.0
490,0.0
515,0.0
516,0.0
542,0.0
592,4695076.569900009
632,32849500.14618572
686,1.0
687,1.0
688,2.0
2,21, 1,21, 0, 6,20.00,30.00,Monday
250,-0.17748492661791965
251,37803460.12243298
336,0.0
385,20.610336904965436
386,28.762570390176936
387,-0.9371116876062522
388,0.0
425,0.0
450,0.0
451,0.0
452,-1.5235061822504168
453,0.0
490,0.0
515,0.0
516,0.0
542,0.0
592,4694888.993658494
632,32849699.20360677
686,1.0
687,1.0
688,2.0
2,21, 1,21, 0, 6,30.00,40.00,Monday
250,-0.17744810593936558
251,37803482.57816543
336,0.0
385,20.610336904965436
386,28.762570390176936
387,-0.9387823904250411
388,0.0
425,0.0
450,0.0
451,0.0
452,-1.5183621298481622
453,0.0
490,0.0
515,0.0
516,0.0
542,0.0
592,4694701.35349866
632,32849909.63081316
686,1.0
687,1.0
688,2.0
2,21, 1,21, 0, 6,40.00,50.00,Monday
250,-0.17741089292007053
251,37803502.76988091
336,0.0
385,20.610336904965436
386,28.762570390176936
387,-0.9405908826820109
388,0.0
425,0.0
450,0.0
451,0.0
452,-1.514686937107535
453,0.0
490,0.0
515,0.0
516,0.0
542,0.0
592,4694513.649387832
632,32850117.73800857
686,1.0
687,1.0
688,2.0
2,21, 1,21, 0, 6,50.00,60.00,Monday
250,-0.17737321832340927
251,37803522.50784005
336,0.0
385,20.610336904965436
386,28.762570390176936
387,-0.9425200191309498
388,0.0
425,0.0
450,0.0
451,0.0
452,-1.5120600370257602
453,0.0
490,0.0
515,0.0
516,0.0
542,0.0
592,4694325.881293308
632,32850325.492728423
686,1.0
687,1.0
688,2.0
2,21, 1,21, 0, 7, 0.00,10.00,Monday
250,-0.17833963819017049
251,37804083.18785724
336,0.0
385,20.610336904965436
386,28.762570390176936
387,-0.9469935186740583
388,0.0
425,0.0
450,0.0
451,0.0
452,-1.5153483014602918
453,0.0
490,0.0
515,0.0
516,0.0
542,0.0
592,4723573.583255435
632,32821097.579258986
686,1.0
687,1.0
688,2.0
2,21, 1,21, 0, 7,10.00,20.00,Monday
250,-0.17831193452496047
251,37801191.38006806
336,0.0
385,20.610336904965436
386,28.762570390176936
387,-0.9561858062370812
388,0.0
425,0.0
450,0.0
451,0.0
452,-1.5340232169653774
453,0.0
490,0.0
515,0.0
516,0.0
542,0.0
592,4752837.186047653
632,32789477.687887568
686,1.0
687,1.0
688,2.0
2,21, 1,21, 0, 7,20.00,30.00,Monday
250,-0.17825008253186905
251,37798208.05106811
336,0.0
385,20.610336904965436
386,28.762570390176936
387,-0.970337177848183
388,0.0
425,0.0
450,0.0
451,0.0
452,-1.573456949486526
453,0.0
490,0.0
515,0.0
516,0.0
542,0.0
592,4782116.702651946
632,32757233.233506735
686,1.0
687,1.0
688,2.0
2,21, 1,21, 0, 7,30.00,40.00,Monday
250,-0.17819689418602588
251,37795253.30508321
336,0.0
385,20.610336904965436
386,28.762570390176936
387,-0.9884917652125118
388,0.0
425,0.0
450,0.0
451,0.0
452,-1.6312714256810876
453,0.0
490,0.0
515,0.0
516,0.0
542,0.0
592,4811412.146064443
632,32724978.375626218
686,1.0
687,1.0
688,2.0
2,21, 1,21, 0, 7,40.00,50.00,Monday
250,-0.17814105548559975
251,37792290.78623124
336,0.0
385,20.610336904965436
386,28.762570390176936
387,-1.0095701456368993
388,0.0
425,0.0
450,0.0
451,0.0
452,-1.701211949570833
453,0.0
490,0.0
515,0.0
516,0.0
542,0.0
592,4840723.5292954575
632,32692705.8985881
686,1.0
687,1.0
688,2.0
2,21, 1,21, 0, 7,50.00,60.00,Monday
250,-0.17808418897606917
251,37789325.624619484
336,0.0
385,20.610336904965436
386,28.762570390176936
387,-1.0328248790461316
388,0.0
425,0.0
450,0.0
451,0.0
452,-1.777583059572652
453,0.0
490,0.0
515,0.0
516,0.0
542,0.0
592,4870050.865369484
632,32660413.95201956
686,1.0
687,1.0
688,2.0
2,21, 1,21, 0, 8, 0.00,10.00,Monday
250,0.022334822050971065
251,37678476.81940047
336,0.0
385,20.610336904965436
386,28.762570390176936
387,-1.0289252745149162
388,0.0
425,0.0
450,0.0
451,0.0
452,-1.836540971586034
453,0.0
490,0.0
515,0.0
516,0.0
542,0.0
592,4889730.300311493
632,32637767.851567037
686,1.0
687,1.0
688,2.0
2,21, 1,21, 0, 8,10.00,20.00,Monday
250,0.22291535428453527
251,37572754.40923548
336,0.0
385,20.610336904965436
386,28.762570390176936
387,-0.9873416758166303
388,0.0
425,0.0
450,0.0
451,0.0
452,-1.8277309632511076
453,0.0
490,0.0
515,0.0
516,0.0
542,0.0
592,4909380.719869503
632,32512488.536997546
686,1.0
687,1.0
688,2.0
2,21, 1,21, 0, 8,20.00,30.00,Monday
250,0.42138071493776297
251,37468297.66959518
336,0.0
385,20.610336904965436
386,28.762570390176936
387,-0.916310258944775
388,0.0
425,0.0
450,0.0
451,0.0
452,-1.720367557569635
453,0.0
490,0.0
515,0.0
516,0.0
542,0.0
592,4929009.6156952735
632,32387270.82442106
686,1.0
687,1.0
688,2.0
2,21, 1,21, 0, 8,30.00,40.00,Monday
250,0.6204625292160327
251,37363462.53006244
336,0.0
385,20.610336904965436
386,28.762570390176936
387,-0.8259635241016684
388,0.0
425,0.0
450,0.0
451,0.0
452,-1.5248717683476325
453,0.0
490,0.0
515,0.0
516,0.0
542,0.0
592,4952863.6467726575
632,32258920.41951125
686,1.0
687,1.0
688,2.0
2,21, 1,21, 0, 8,40.00,50.00,Monday
250,0.8196226756696092
251,37258183.52232587
336,0.0
385,20.610336904965436
386,28.762570390176936
387,-0.7242906488076492
388,0.0
425,0.0
450,0.0
451,0.0
452,-1.2492093437218712
453,0.0
490,0.0
515,0.0
516,0.0
542,0.0
592,4977062.298687914
632,32129490.63367272
686,1.0
687,1.0
688,2.0
2,21, 1,21, 0, 8,50.00,60.00,Monday
250,1.0195409119722032
251,37153421.94890475
336,0.0
385,20.610336904965436
386,28.762570390176936
387,-0.6283702318068694
388,0.0
425,0.0
450,0.0
451,0.0
452,-0.9361367373502836
453,0.0
490,0.0
515,0.0
516,0.0
542,0.0
592,5001395.306277512
632,31947761.789951842
686,1.0
687,1.0
688,2.0
2,21, 1,21, 0, 9, 0.00,10.00,Monday
250,1.2849195030399772
251,37014439.530890584
336,0.0
385,20.610336904965436
386,28.762570390176936
387,-0.4899433773211135
388,0.0
425,0.0
450,0.0
451,0.0
452,-0.45664247855238926
453,0.0
490,0.0
515,0.0
516,0.0
542,0.0
592,5029363.153609448
632,31797535.169375595
686,1.0
687,1.0
688,2.0
2,21, 1,21, 0, 9,10.00,20.00,Monday
250,1.5502199745897605
251,36874556.536551066
336,0.0
385,20.610336904965436
386,28.762570390176936
387,-0.33911739957413956
388,0.0
425,0.0
450,0.0
451,0.0
452,0.06758774496483154
453,0.0
490,0.0
515,0.0
516,0.0
542,0.0
592,5057356.862312016
632,31629638.38321843
686,1.0
687,1.0
688,2.0
2,21, 1,21, 0, 9,20.00,30.00,Monday
250,1.815662984949495
251,36734591.25698534
336,0.0
385,20.610336904965436
386,28.762570390176936
387,-0.17921474564040682
388,0.0
425,0.0
450,0.0
451,0.0
452,0.6322743138162857
453,0.0
490,0.0
515,0.0
516,0.0
542,0.0
592,5085392.284952975
632,31461676.469513588
686,1.0
687,1.0
688,2.0
2,21, 1,21, 0, 9,30.00,40.00,Monday
250,2.081044313488153
251,36594657.42017295
336,0.0
385,20.610336904965436
386,28.762570390176936
387,-0.009485434543638465
388,0.0
425,0.0
450,0.0
451,0.0
452,1.226898331064486
453,0.0
490,0.0
515,0.0
516,0.0
542,0.0
592,5113485.892141593
632,31293633.815586902
686,1.0
687,1.0
688,2.0
2,21, 1,21, 0, 9,40.00,50.00,Monday
250,2.3467179414512547
251,36453585.5045523
336,0.0
385,20.61033690496545
386,28.762570390176958
387,0.1356619547109698
388,0.0
425,0.0
450,0.0
451,0.0
452,1.7286634471616713
453,0.0
490,0.0
515,0.0
516,0.0
542,0.0
592,5141654.529350725
632,31100789.67486996
686,1.0000000000000009
687,1.0000000000000009
688,2.0000000000000018
2,21, 1,21, 0, 9,50.00,60.00,Monday
250,2.612522865025574
251,36312884.15780716
336,0.0
385,20.610336904965436
386,28.762570390176936
387,0.2878053370462872
388,0.0
425,0.0
450,0.0
451,0.0
452,2.269217423373347
453,0.0
490,0.0
515,0.0
516,0.0
542,0.0
592,5169915.672059793
632,30956740.352055483
686,1.0
687,1.0
688,2.0
2,21, 1,21, 0,10, 0.00,10.00,Monday
250,3.0746437248187855
251,36067695.16881316
336,0.0
385,20.610336904965436
386,28.76257039017694
387,0.4782660852472152
388,0.0
425,0.0
450,0.0
451,0.0
452,2.828584053495913
453,0.0
490,0.0
515,0.0
516,0.0
542,0.0
592,5241404.10703412
632,30650515.32893849
686,1.0
687,1.0
688,2.0
2,21, 1,21, 0,10,10.00,20.00,Monday
250,3.537902592561684
251,35822505.53272523
336,0.0
385,20.610336904965436
386,28.762570390176936
387,0.7693077682465214
388,0.0
425,0.0
450,0.0
451,0.0
452,3.583473906722234
453,0.0
490,0.0
515,0.0
516,0.0
542,0.0
592,5315291.857316207
632,30330617.654087767
686,1.0
687,1.0
688,2.0
2,21, 1,21, 0,10,20.00,30.00,Monday
250,4.0015209674157015
251,35575859.24615799
336,0.0
385,20.61033690496543
386,28.762570390176926
387,1.049695467084561
388,0.0
425,0.0
450,0.0
451,0.0
452,4.272482409007313
453,0.0
490,0.0
515,0.0
516,0.0
542,0.0
592,5391793.298050374
632,30007577.05482215
686,0.9999999999999996
687,0.9999999999999996
688,1.9999999999999991
2,21, 1,21, 0,10,30.00,40.00,Monday
250,4.46534736949886
251,35328967.48738717
336,0.0
385,20.610336904965443
386,28.762570390176947
387,1.3314607908942164
388,0.0
425,0.0
450,0.0
451,0.0
452,4.974245289675208
453,0.0
490,0.0
515,0.0
516,0.0
542,0.0
592,5471132.199313744
632,29681428.179439805
686,1.0000000000000004
687,1.0000000000000004
688,2.000000000000001
2,21, 1,21, 0,10,40.00,50.00,Monday
250,4.929454925473868
251,35081783.74103697
336,0.0
385,20.61033690496545
386,28.762570390176958
387,1.6215973939116104
388,0.0
425,0.0
450,0.0
451,0.0
452,5.738300219303645
453,0.0
490,0.0
515,0.0
516,0.0
542,0.0
592,5553542.375759331
632,29351931.48889918
686,1.0000000000000009
687,1.0000000000000009
688,2.0000000000000018
2,21, 1,21, 0,10,50.00,60.00,Monday
250,5.393579396647068
251,34834443.6851496
336,0.0
385,20.61033690496545
386,28.762570390176958
387,1.9218199494324324
388,0.0
425,0.0
450,0.0
451,0.0
452,6.5673732661075395
453,0.0
490,0.0
515,0.0
516,0.0
542,0.0
592,5639267.778995938
632,29018917.965860702
686,1.0000000000000009
687,1.0000000000000009
688,2.0000000000000018
2,21, 1,21, 0,11, 0.00,10.00,Monday
250,5.677111871538904
251,34683567.09454785
336,0.0
385,20.610336904965436
386,28.76257039017694
387,2.208327783524815
388,0.0
425,0.0
450,0.0
451,0.0
452,7.422596028382948
453,0.0
490,0.0
515,0.0
516,0.0
542,0.0
592,5689519.861596227
632,28785570.598277025
686,1.0
687,1.0
688,2.0
2,21, 1,21, 0,11,10.00,20.00,Monday
250,5.959757793426553
251,34533106.45612679
336,0.0
385,20.610336904965436
386,28.762570390176936
387,2.4780959858263385
388,0.0
425,0.0
450,0.0
451,0.0
452,8.273126024561712
453,0.0
490,0.0
515,0.0
516,0.0
542,0.0
592,5740969.350869595
632,28583513.288380235
686,1.0
687,1.0
688,2.0
2,21, 1,21, 0,11,20.00,30.00,Monday
250,6.242468407660713
251,34382562.265718
336,0.0
385,20.61033690496543
386,28.762570390176926
387,2.750254378623317
388,0.0
425,0.0
450,0.0
451,0.0
452,9.119742591113736
453,0.0
490,0.0
515,0.0
516,0.0
542,0.0
592,5793671.0952822175
632,28380295.383695476
686,0.9999999999999996
687,0.9999999999999996
688,1.9999999999999991
2,21, 1,21, 0,11,30.00,40.00,Monday
250,6.52485191431171
251,34232141.498234674
336,0.0
385,20.610336904965443
386,28.762570390176947
387,3.0275872177449243
388,0.0
425,0.0
450,0.0
451,0.0
452,9.94163095727617
453,0.0
490,0.0
515,0.0
516,0.0
542,0.0
592,5847681.4279665835
632,28175822.828131903
686,1.0000000000000004
687,1.0000000000000004
688,2.000000000000001
2,21, 1,21, 0,11,40.00,50.00,Monday
250,6.807093032402081
251,34081743.65068628
336,0.0
385,20.61033690496545
386,28.762570390176958
387,3.3066928914046185
388,0.0
425,0.0
450,0.0
451,0.0
452,10.687177463179278
453,0.0
490,0.0
515,0.0
516,0.0
542,0.0
592,5903058.082199926
632,27970040.587487146
686,1.0000000000000009
687,1.0000000000000009
688,2.0000000000000018
2,21, 1,21, 0,11,50.00,60.00,Monday
250,7.08914164465716
251,33931394.283663884
336,0.0
385,20.61033690496545
386,28.762570390176958
387,3.5837186774837884
388,0.0
425,0.0
450,0.0
451,0.0
452,11.322941653282113
453,0.0
490,0.0
515,0.0
516,0.0
542,0.0
592,5959860.237244541
632,27762872.793312337
686,1.0000000000000009
687,1.0000000000000009
688,2.0000000000000018
2,21, 1,21, 0,12, 0.00,10.00,Monday
250,7.355789407523221
251,33789274.21538147
336,0.0
385,20.610336904965436
386,28.762570390176936
387,3.8237154182476303
388,0.0
425,0.0
450,0.0
451,0.0
452,11.822077876373182
453,0.0
490,0.0
515,0.0
516,0.0
542,0.0
592,5991096.197635707
632,27612234.403810244
686,1.0
687,1.0
688,2.0
2,21, 1,21, 0,12,10.00,20.00,Monday
250,7.6205304244249294
251,33651656.42804286
336,0.0
385,20.610336904965436
386,28.762570390176936
387,4.1161035567515265
388,0.0
425,0.0
450,0.0
451,0.0
452,12.386066806293147
453,0.0
490,0.0
515,0.0
516,0.0
542,0.0
592,7572016.881221027
632,25891815.38352815
686,1.0
687,1.0
688,2.0
2,21, 1,21, 0,12,20.00,30.00,Monday
250,7.8862368398903016
251,33511807.940714628
336,0.0
385,20.610336904965436
386,28.762570390176936
387,4.385221757607683
388,0.0
425,0.0
450,0.0
451,0.0
452,12.901329337479385
453,0.0
490,0.0
515,0.0
516,0.0
542,0.0
592,7609409.155487606
632,25714820.077577055
686,1.0
687,1.0
688,2.0
2,21, 1,21, 0,12,30.00,40.00,Monday
250,8.151813965373652
251,33372030.878665246
336,0.0
385,20.610336904965436
386,28.762570390176936
387,4.644035036793653
388,0.0
425,0.0
450,0.0
451,0.0
452,13.392946247526888
453,0.0
490,0.0
515,0.0
516,0.0
542,0.0
592,7646583.592010483
632,25537833.618201118
686,1.0
687,1.0
688,2.0
2,21, 1,21, 0,12,40.00,50.00,Monday
250,8.417347857847417
251,33232276.79407569
336,0.0
385,20.610336904965436
386,28.762570390176936
387,4.8984615167587915
388,0.0
425,0.0
450,0.0
451,0.0
452,13.834850146486044
453,0.0
490,0.0
515,0.0
516,0.0
542,0.0
592,7683540.190789654
632,25361111.40036975
686,1.0
687,1.0
688,2.0
2,21, 1,21, 0,12,50.00,60.00,Monday
250,8.682867993378586
251,33092529.33972329
336,0.0
385,20.610336904965436
386,28.762570390176936
387,5.147408559641521
388,0.0
425,0.0
450,0.0
451,0.0
452,14.202649774601028
453,0.0
490,0.0
515,0.0
516,0.0
542,0.0
592,7720278.951825122
632,25184621.976377033
686,1.0
687,1.0
688,2.0
2,21, 1,21, 0,13, 0.00,10.00,Monday
250,8.865675134689015
251,32993991.604134966
336,0.0
385,20.610336904965436
386,28.762570390176936
387,5.379795937492356
388,0.0
425,0.0
450,0.0
451,0.0
452,14.493905909008106
453,0.0
490,0.0
515,0.0
516,0.0
542,0.0
592,7745410.487127085
632,25085581.513345066
686,1.0
687,1.0
688,2.0
2,21, 1,21, 0,13,10.00,20.00,Monday
250,9.047930295891074
251,32899653.38448647
336,0.0
385,20.610336904965436
386,28.762570390176936
387,5.598582757505665
388,0.0
425,0.0
450,0.0
451,0.0
452,14.72315478541045
453,0.0
490,0.0
515,0.0
516,0.0
542,0.0
592,7770439.060057999
632,24968697.432770878
686,1.0
687,1.0
688,2.0
2,21, 1,21, 0,13,20.00,30.00,Monday
250,9.230921911747483
251,32805053.285686545
336,0.0
385,20.610336904965436
386,28.762570390176936
387,5.8034838428227955
388,0.0
425,0.0
450,0.0
451,0.0
452,14.906323364578757
453,0.0
490,0.0
515,0.0
516,0.0
542,0.0
592,7795364.670617863
632,24849581.796990857
686,1.0
687,1.0
688,2.0
2,21, 1,21, 0,13,30.00,40.00,Monday
250,9.413705555812358
251,32710594.17572738
336,0.0
385,20.610336904965436
386,28.762570390176936
387,5.998518834872624
388,0.0
425,0.0
450,0.0
451,0.0
452,15.055191737425211
453,0.0
490,0.0
515,0.0
516,0.0
542,0.0
592,7820187.318806678
632,24730200.480105896
686,1.0
687,1.0
688,2.0
2,21, 1,21, 0,13,40.00,50.00,Monday
250,9.596448801856301
251,32616190.473036442
336,0.0
385,20.610336904965436
386,28.762570390176936
387,6.187437535600666
388,0.0
425,0.0
450,0.0
451,0.0
452,15.174503687737586
453,0.0
490,0.0
515,0.0
516,0.0
542,0.0
592,7844907.00462445
632,24611068.167359594
686,1.0
687,1.0
688,2.0
2,21, 1,21, 0,13,50.00,60.00,Monday
250,9.779203911900817
251,32521813.48360548
336,0.0
385,20.610336904965436
386,28.762570390176936
387,6.371540088567094
388,0.0
425,0.0
450,0.0
451,0.0
452,15.267896271969551
453,0.0
490,0.0
515,0.0
516,0.0
542,0.0
592,7869523.72807117
632,24492093.926957086
686,1.0
687,1.0
688,2.0
2,21, 1,21, 0,14, 0.00,10.00,Monday
250,9.979082362908045
251,32418221.122007232
336,0.0
385,20.610336904965436
386,28.762570390176936
387,6.5536649117421115
388,0.0
425,0.0
450,0.0
451,0.0
452,15.323974025367395
453,0.0
490,0.0
515,0.0
516,0.0
542,0.0
592,7896260.907308882
632,24371026.212926947
686,1.0
687,1.0
688,2.0
2,21, 1,21, 0,14,10.00,20.00,Monday
250,10.17842290414401
251,32314526.538515817
336,0.0
385,20.610336904965436
386,28.762570390176936
387,6.733943800287896
388,0.0
425,0.0
450,0.0
451,0.0
452,15.32442270497142
453,0.0
490,0.0
515,0.0
516,0.0
542,0.0
592,7922875.552815756
632,24240439.687320616
686,1.0
687,1.0
688,2.0
2,21, 1,21, 0,14,20.00,30.00,Monday
250,10.377589926946637
251,32210935.11115858
336,0.0
385,20.610336904965436
386,28.762570390176936
387,6.9102198189088515
388,0.0
425,0.0
450,0.0
451,0.0
452,15.268778892208012
453,0.0
490,0.0
515,0.0
516,0.0
542,0.0
592,7949367.664591794
632,24110275.76178159
686,1.0
687,1.0
688,2.0
2,21, 1,21, 0,14,30.00,40.00,Monday
250,10.576645647598108
251,32107429.734108962
336,0.0
385,20.610336904965436
386,28.762570390176936
387,7.076541886034773
388,0.0
425,0.0
450,0.0
451,0.0
452,15.146518826558832
453,0.0
490,0.0
515,0.0
516,0.0
542,0.0
592,7975737.242637001
632,23980354.189674355
686,1.0
687,1.0
688,2.0
2,21, 1,21, 0,14,40.00,50.00,Monday
250,10.775601449479149
251,32004000.098882496
336,0.0
385,20.610336904965436
386,28.762570390176936
387,7.229216491493735
388,0.0
425,0.0
450,0.0
451,0.0
452,14.937921530864955
453,0.0
490,0.0
515,0.0
516,0.0
542,0.0
592,8001984.286951372
632,23850637.193264257
686,1.0
687,1.0
688,2.0
2,21, 1,21, 0,14,50.00,60.00,Monday
250,10.974489276427722
251,31900629.57642006
336,0.0
385,20.610336904965436
386,28.762570390176936
387,7.368533612415629
388,0.0
425,0.0
450,0.0
451,0.0
452,14.646027044881782
453,0.0
490,0.0
515,0.0
516,0.0
542,0.0
592,8028108.797534915
632,23721119.26131947
686,1.0
687,1.0
688,2.0
2,21, 1,21, 0,15, 0.00,10.00,Monday
250,11.239736883202216
251,31762147.139075078
336,0.0
385,20.610336904965436