Program Version,EnergyPlus, Version 24.2.0-94a887817b, YMD=2025.02.04 15:40
1,5,Environment Title[],Latitude[deg],Longitude[deg],Time Zone[],Elevation[m]
2,8,Day of Simulation[],Month[],Day of Month[],DST Indicator[1=yes 0=no],Hour[],StartMinute[],EndMinute[],DayType
3,5,Cumulative Day of Simulation[],Month[],Day of Month[],DST Indicator[1=yes 0=no],DayType  ! When Daily Meters Requested
4,2,Cumulative Days of Simulation[],Month[]  ! When Monthly Meters Requested
5,1,Cumulative Days of Simulation[] ! When Run Period Meters Requested
6,1,Calendar Year of Simulation[] ! When Annual Meters Requested
11,9,Electricity:Facility [J] !Monthly [Value,Min,Day,Hour,Minute,Max,Day,Hour,Minute]
23,9,Electricity:Building [J] !Monthly [Value,Min,Day,Hour,Minute,Max,Day,Hour,Minute]
59,9,InteriorLights:Electricity [J] !Monthly [Value,Min,Day,Hour,Minute,Max,Day,Hour,Minute]
521,9,Electricity:HVAC [J] !Monthly [Value,Min,Day,Hour,Minute,Max,Day,Hour,Minute]
637,9,NaturalGas:Facility [J] !Monthly [Value,Min,Day,Hour,Minute,Max,Day,Hour,Minute]
649,9,NaturalGas:HVAC [J] !Monthly [Value,Min,Day,Hour,Minute,Max,Day,Hour,Minute]
13,11,Electricity:Facility [J] !RunPeriod [Value,Min,Month,Day,Hour,Minute,Max,Month,Day,Hour,Minute]
25,11,Electricity:Building [J] !RunPeriod [Value,Min,Month,Day,Hour,Minute,Max,Month,Day,Hour,Minute]
61,11,InteriorLights:Electricity [J] !RunPeriod [Value,Min,Month,Day,Hour,Minute,Max,Month,Day,Hour,Minute]
523,11,Electricity:HVAC [J] !RunPeriod [Value,Min,Month,Day,Hour,Minute,Max,Month,Day,Hour,Minute]
639,11,NaturalGas:Facility [J] !RunPeriod [Value,Min,Month,Day,Hour,Minute,Max,Month,Day,Hour,Minute]
651,11,NaturalGas:HVAC [J] !RunPeriod [Value,Min,Month,Day,Hour,Minute,Max,Month,Day,Hour,Minute]
End of Data Dictionary
1,RUN PERIOD 1,  41.98, -87.92,  -6.00, 201.00
4,31, 1
11,9814184568.63286,408891.4285714286, 5, 6,50,2973048.9407972684,16,13,60
23,975134467.4018483,30000.0, 1, 1,10,603575.7010158437, 1, 9,10
59,970200000.0,30000.0, 1, 1,10,600000.0, 1, 8,10
521,8839050101.230986,378891.4285714286, 5, 6,50,2369473.239781425,16,13,60
637,178974542273.62582,28232142.179355618,21,16,10,41250000.0, 1, 1,10
649,178974542273.62582,28232142.179355618,21,16,10,41250000.0, 1, 1,10
4,59, 2
11,9348826962.28287,99999999999999.0, 5, 6,50,3014510.3810603907,22,15,30
23,852450841.2189988,99999999999999.0, 1, 1,10,-99999999999999.0, 1, 9,10
59,848160000.0,99999999999999.0, 1, 1,10,-99999999999999.0, 1, 8,10
521,8496376121.063895,99999999999999.0, 5, 6,50,2410934.680044547,22,15,30
637,158349581617.26474,26544256.56030337,23,12,10,-99999999999999.0, 1, 1,10
649,158349581617.26474,26544256.56030337,23,12,10,-99999999999999.0, 1, 1,10
4,90, 3
11,10967449833.460855,99999999999999.0, 5, 6,50,3228964.1212070314,27,15,20
23,901985383.2799486,99999999999999.0, 1, 1,10,-99999999999999.0, 1, 9,10
59,897480000.0,99999999999999.0, 1, 1,10,-99999999999999.0, 1, 8,10
521,10065464450.180906,0.0,27,15,30,2625388.420191188,27,15,20
637,162429014092.0955,0.0,27,15,30,-99999999999999.0, 1, 1,10
649,162429014092.0955,0.0,27,15,30,-99999999999999.0, 1, 1,10
4,120, 4
11,9370437255.597742,30000.0,11,19,10,-99999999999999.0,27,15,20
23,934239925.3408985,99999999999999.0, 1, 1,10,-99999999999999.0, 1, 9,10
59,929520000.0,99999999999999.0, 1, 1,10,-99999999999999.0, 1, 8,10
521,8436197330.256895,99999999999999.0,27,15,30,-99999999999999.0,27,15,20
637,120385276513.6211,99999999999999.0,27,15,30,-99999999999999.0, 1, 1,10
649,120385276513.6211,99999999999999.0,27,15,30,-99999999999999.0, 1, 1,10
4,151, 5
11,8727044650.359747,99999999999999.0,11,19,10,-99999999999999.0,27,15,20
23,975440479.029126,99999999999999.0, 1, 1,10,619483.6113462152,28,13,10
59,970200000.0,99999999999999.0, 1, 1,10,-99999999999999.0, 1, 8,10
521,7751604171.330759,99999999999999.0,27,15,30,-99999999999999.0,27,15,20
637,93182911397.07417,99999999999999.0,27,15,30,-99999999999999.0, 1, 1,10
649,93182911397.07417,99999999999999.0,27,15,30,-99999999999999.0, 1, 1,10
4,181, 6
11,6005246894.741037,99999999999999.0,11,19,10,3229458.4160248935,24,12,50
23,861195719.1830939,99999999999999.0, 1, 1,10,-99999999999999.0,28,13,10
59,856800000.0,99999999999999.0, 1, 1,10,-99999999999999.0, 1, 8,10
521,5144051175.557965,99999999999999.0,27,15,30,2625882.71500905,24,12,50
637,42165472465.3956,99999999999999.0,27,15,30,-99999999999999.0, 1, 1,10
649,42165472465.3956,99999999999999.0,27,15,30,-99999999999999.0, 1, 1,10
4,212, 7
11,4771063382.478423,99999999999999.0,11,19,10,-99999999999999.0,24,12,50
23,975406941.4322648,99999999999999.0, 1, 1,10,-99999999999999.0,28,13,10
59,970200000.0,99999999999999.0, 1, 1,10,-99999999999999.0, 1, 8,10
521,3795656441.046118,99999999999999.0,27,15,30,-99999999999999.0,24,12,50
637,15327607116.249788,99999999999999.0,27,15,30,-99999999999999.0, 1, 1,10
649,15327607116.249788,99999999999999.0,27,15,30,-99999999999999.0, 1, 1,10
4,243, 8
11,4405906792.680339,99999999999999.0,11,19,10,-99999999999999.0,24,12,50
23,938892248.1450068,99999999999999.0, 1, 1,10,630873.1040688511, 6,11,60
59,933840000.0,99999999999999.0, 1, 1,10,-99999999999999.0, 1, 8,10
521,3467014544.5352244,99999999999999.0,27,15,30,-99999999999999.0,24,12,50
637,28459415237.686665,99999999999999.0,27,15,30,-99999999999999.0, 1, 1,10
649,28459415237.686665,99999999999999.0,27,15,30,-99999999999999.0, 1, 1,10
4,273, 9
11,6898649123.902301,99999999999999.0,11,19,10,3229994.3265531636,25,14,30
23,897689581.2795014,99999999999999.0, 1, 1,10,-99999999999999.0, 6,11,60
59,893160000.0,99999999999999.0, 1, 1,10,-99999999999999.0, 1, 8,10
521,6000959542.622794,99999999999999.0,27,15,30,2626418.62553732,25,14,30
637,64432325305.705864,99999999999999.0,27,15,30,-99999999999999.0, 1, 1,10
649,64432325305.705864,99999999999999.0,27,15,30,-99999999999999.0, 1, 1,10
4,304,10
11,10548213280.5039,99999999999999.0,11,19,10,-99999999999999.0,25,14,30
23,975170065.83926,99999999999999.0, 1, 1,10,-99999999999999.0, 6,11,60
59,970200000.0,99999999999999.0, 1, 1,10,-99999999999999.0, 1, 8,10
521,9573043214.664663,99999999999999.0,27,15,30,-99999999999999.0,25,14,30
637,128397043057.07495,99999999999999.0,27,15,30,-99999999999999.0, 1, 1,10
649,128397043057.07495,99999999999999.0,27,15,30,-99999999999999.0, 1, 1,10
4,334,11
11,10453537134.511929,99999999999999.0,11,19,10,-99999999999999.0,25,14,30
23,897665383.2799486,99999999999999.0, 1, 1,10,-99999999999999.0, 6,11,60
59,893160000.0,99999999999999.0, 1, 1,10,-99999999999999.0, 1, 8,10
521,9555871751.231968,99999999999999.0,27,15,30,-99999999999999.0,25,14,30
637,147613885902.33597,99999999999999.0,27,15,30,-99999999999999.0, 1, 1,10
649,147613885902.33597,99999999999999.0,27,15,30,-99999999999999.0, 1, 1,10
4,365,12
11,10427510545.724712,99999999999999.0,11,19,10,-99999999999999.0,25,14,30
23,938559925.3408984,99999999999999.0, 1, 1,10,-99999999999999.0, 6,11,60
59,933840000.0,99999999999999.0, 1, 1,10,-99999999999999.0, 1, 8,10
521,9488950620.383821,99999999999999.0,27,15,30,-99999999999999.0,25,14,30
637,179808729820.7963,99999999999999.0,27,15,30,-99999999999999.0, 1, 1,10
649,179808729820.7963,99999999999999.0,27,15,30,-99999999999999.0, 1, 1,10
5,365
13,101738070424.89473,30000.0, 4,11,19,10,3229994.3265531636, 9,25,14,30
25,11123830960.76788,30000.0, 1, 1, 1,10,630873.1040688511, 8, 6,11,60
61,11066760000.0,30000.0, 1, 1, 1,10,600000.0, 1, 1, 8,10
523,90614239464.11063,0.0, 3,27,15,30,2626418.62553732, 9,25,14,30
639,1319525804798.9375,0.0, 3,27,15,30,41250000.0, 1, 1, 1,10
651,1319525804798.9375,0.0, 3,27,15,30,41250000.0, 1, 1, 1,10
1,RUN PERIOD 2,  41.98, -87.92,  -6.00, 201.00
4,1, 7
11,64707750.78513379,99999999999999.0,11,19,10,-99999999999999.0,25,14,30
23,40894542.06095067,99999999999999.0, 1, 1,10,-99999999999999.0, 6,11,60
59,40680000.0,99999999999999.0, 1, 1,10,-99999999999999.0, 1, 8,10
521,23813208.72418314,99999999999999.0,27,15,30,-99999999999999.0,25,14,30
637,0.0,99999999999999.0,27,15,30,-99999999999999.0, 1, 1,10
649,0.0,99999999999999.0,27,15,30,-99999999999999.0, 1, 1,10
5,1
13,64707750.78513379,99999999999999.0, 4,11,19,10,-99999999999999.0, 9,25,14,30
25,40894542.06095067,99999999999999.0, 1, 1, 1,10,-99999999999999.0, 8, 6,11,60
61,40680000.0,99999999999999.0, 1, 1, 1,10,-99999999999999.0, 1, 1, 8,10
523,23813208.72418314,99999999999999.0, 3,27,15,30,-99999999999999.0, 9,25,14,30
639,0.0,99999999999999.0, 3,27,15,30,-99999999999999.0, 1, 1, 1,10
651,0.0,99999999999999.0, 3,27,15,30,-99999999999999.0, 1, 1, 1,10
End of Data
 Number of Records Written=          90
