Program Version,EnergyPlus, Version 24.2.0-94a887817b, YMD=2025.01.21 11:39
1,5,Environment Title[],Latitude[deg],Longitude[deg],Time Zone[],Elevation[m]
2,8,Day of Simulation[],Month[],Day of Month[],DST Indicator[1=yes 0=no],Hour[],StartMinute[],EndMinute[],DayType
3,5,Cumulative Day of Simulation[],Month[],Day of Month[],DST Indicator[1=yes 0=no],DayType  ! When Daily Report Variables Requested
4,2,Cumulative Days of Simulation[],Month[]  ! When Monthly Report Variables Requested
5,1,Cumulative Days of Simulation[] ! When Run Period Report Variables Requested
6,1,Calendar Year of Simulation[] ! When Annual Report Variables Requested
250,1,LIVING ZONE,Zone Air Temperature [C] !TimeStep,REPORTSCH
251,1,LIVING ZONE,Zone Air System Sensible Heating Energy [J] !TimeStep,REPORTSCH
336,1,LIVING ZONE,Zone Air System Sensible Cooling Energy [J] !TimeStep,REPORTSCH
385,1,LIVING ZONE,Zone Thermostat Heating Setpoint Temperature [C] !TimeStep,REPORTSCH
386,1,LIVING ZONE,Zone Thermostat Cooling Setpoint Temperature [C] !TimeStep,REPORTSCH
387,1,GARAGE ZONE,Zone Air Temperature [C] !TimeStep,REPORTSCH
388,1,GARAGE ZONE,Zone Air System Sensible Heating Energy [J] !TimeStep,REPORTSCH
425,1,GARAGE ZONE,Zone Air System Sensible Cooling Energy [J] !TimeStep,REPORTSCH
450,1,GARAGE ZONE,Zone Thermostat Heating Setpoint Temperature [C] !TimeStep,REPORTSCH
451,1,GARAGE ZONE,Zone Thermostat Cooling Setpoint Temperature [C] !TimeStep,REPORTSCH
452,1,ATTIC ZONE,Zone Air Temperature [C] !TimeStep,REPORTSCH
453,1,ATTIC ZONE,Zone Air System Sensible Heating Energy [J] !TimeStep,REPORTSCH
490,1,ATTIC ZONE,Zone Air System Sensible Cooling Energy [J] !TimeStep,REPORTSCH
515,1,ATTIC ZONE,Zone Thermostat Heating Setpoint Temperature [C] !TimeStep,REPORTSCH
516,1,ATTIC ZONE,Zone Thermostat Cooling Setpoint Temperature [C] !TimeStep,REPORTSCH
542,1,ACDXCOIL 1,Cooling Coil Total Cooling Energy [J] !TimeStep,REPORTSCH
592,1,HEAT PUMP DX HEATING COIL 1,Heating Coil Heating Energy [J] !TimeStep,REPORTSCH
632,1,SUPP HEATING COIL 1,Heating Coil Heating Energy [J] !TimeStep,REPORTSCH
686,1,TWOSPEED HEAT PUMP 1,Unitary System DX Coil Cycling Ratio [] !TimeStep,REPORTSCH
687,1,TWOSPEED HEAT PUMP 1,Unitary System DX Coil Speed Ratio [] !TimeStep,REPORTSCH
688,1,TWOSPEED HEAT PUMP 1,Unitary System DX Coil Speed Level [] !TimeStep,REPORTSCH
End of Data Dictionary
1,CHICAGO_IL_USA ANNUAL HEATING 99% DESIGN CONDITIONS DB,  41.98, -87.92,  -6.00, 201.00
2,1, 1,21, 0, 1, 0.00,10.00,WinterDesignDay
250,-17.08068068958422
251,33258891.42862582
336,0.0
385,21.643476158029593
386,26.457746146233237
387,-18.49919900523526
388,0.0
425,0.0
450,0.0
451,0.0
452,-19.362050853965698
453,0.0
490,0.0
515,0.0
516,0.0
542,0.0
592,0.0
632,33000000.0
686,1.0
687,1.0
688,2.0
2,1, 1,21, 0, 1,10.00,20.00,WinterDesignDay
250,-17.08068068968432
251,33258891.4286251
336,0.0
385,21.643476158029593
386,26.457746146233237
387,-18.499200493270646
388,0.0
425,0.0
450,0.0
451,0.0
452,-19.362051061414377
453,0.0
490,0.0
515,0.0
516,0.0
542,0.0
592,0.0
632,33000000.0
686,1.0
687,1.0
688,2.0
2,1, 1,21, 0, 1,20.00,30.00,WinterDesignDay
250,-17.080680689783094
251,33258891.428624388
336,0.0
385,21.643476158029593
386,26.457746146233237
387,-18.499201961905683
388,0.0
425,0.0
450,0.0
451,0.0
452,-19.362051266157795
453,0.0
490,0.0
515,0.0
516,0.0
542,0.0
592,0.0
632,33000000.0
686,1.0
687,1.0
688,2.0
2,1, 1,21, 0, 1,30.00,40.00,WinterDesignDay
250,-17.080680689880555
251,33258891.428623684
336,0.0
385,21.643476158029593
386,26.457746146233237
387,-18.499203411393136
388,0.0
425,0.0
450,0.0
451,0.0
452,-19.362051468231247
453,0.0
490,0.0
515,0.0
516,0.0
542,0.0
592,0.0
632,33000000.0
686,1.0
687,1.0
688,2.0
2,1, 1,21, 0, 1,40.00,50.00,WinterDesignDay
250,-17.080680689976724
251,33258891.42862299
336,0.0
385,21.643476158029593
386,26.457746146233237
387,-18.49920484198261
388,0.0
425,0.0
450,0.0
451,0.0
452,-19.36205166766954
453,0.0
490,0.0
515,0.0
516,0.0
542,0.0
592,0.0
632,33000000.0
686,1.0
687,1.0
688,2.0
2,1, 1,21, 0, 1,50.00,60.00,WinterDesignDay
250,-17.080680690071613
251,33258891.4286223
336,0.0
385,21.643476158029593
386,26.457746146233237
387,-18.499206253920608
388,0.0
425,0.0
450,0.0
451,0.0
452,-19.362051864507052
453,0.0
490,0.0
515,0.0
516,0.0
542,0.0
592,0.0
632,33000000.0
686,1.0
687,1.0
688,2.0
2,1, 1,21, 0, 2, 0.00,10.00,WinterDesignDay
250,-17.08068069016524
251,33258891.428621627
336,0.0
385,21.643476158029593
386,26.457746146233237
387,-18.49920764745013
388,0.0
425,0.0
450,0.0
451,0.0
452,-19.362052058777703
453,0.0
490,0.0
515,0.0
516,0.0
542,0.0
592,0.0
632,33000000.0
686,1.0
687,1.0
688,2.0
2,1, 1,21, 0, 2,10.00,20.00,WinterDesignDay
250,-17.080680690257633
251,33258891.428620964
336,0.0
385,21.643476158029593
386,26.457746146233237
387,-18.499209022811286
388,0.0
425,0.0
450,0.0
451,0.0
452,-19.36205225051497
453,0.0
490,0.0
515,0.0
516,0.0
542,0.0
592,0.0
632,33000000.0
686,1.0
687,1.0
688,2.0
2,1, 1,21, 0, 2,20.00,30.00,WinterDesignDay
250,-17.0806806903488
251,33258891.428620305
336,0.0
385,21.643476158029593
386,26.457746146233237
387,-18.499210380241056
388,0.0
425,0.0
450,0.0
451,0.0
452,-19.3620524397519
453,0.0
490,0.0
515,0.0
516,0.0
542,0.0
592,0.0
632,33000000.0
686,1.0
687,1.0
688,2.0
2,1, 1,21, 0, 2,30.00,40.00,WinterDesignDay
250,-17.08068069043875
251,33258891.42861966
336,0.0
385,21.643476158029593
386,26.457746146233237
387,-18.499211719973207
388,0.0
425,0.0
450,0.0
451,0.0
452,-19.362052626521095
453,0.0
490,0.0
515,0.0
516,0.0
542,0.0
592,0.0
632,33000000.0
686,1.0
687,1.0
688,2.0
2,1, 1,21, 0, 2,40.00,50.00,WinterDesignDay
250,-17.080680690527508
251,33258891.428619012
336,0.0
385,21.643476158029593
386,26.457746146233237
387,-18.499213042238164
388,0.0
425,0.0
450,0.0
451,0.0
452,-19.362052810854742
453,0.0
490,0.0
515,0.0
516,0.0
542,0.0
592,0.0
632,33000000.0
686,1.0
687,1.0
688,2.0
2,1, 1,21, 0, 2,50.00,60.00,WinterDesignDay
250,-17.08068069061509
251,33258891.428618386
336,0.0
385,21.643476158029593
386,26.457746146233237
387,-18.4992143472638
388,0.0
425,0.0
450,0.0
451,0.0
452,-19.362052992784605
453,0.0
490,0.0
515,0.0
516,0.0
542,0.0
592,0.0
632,33000000.0
686,1.0
687,1.0
688,2.0
2,1, 1,21, 0, 3, 0.00,10.00,WinterDesignDay
250,-17.080680690701513
251,33258891.428617764
336,0.0
385,21.643476158029593
386,26.457746146233237
387,-18.499215635274997
388,0.0
425,0.0
450,0.0
451,0.0
452,-19.36205317234204
453,0.0
490,0.0
515,0.0
516,0.0
542,0.0
592,0.0
632,33000000.0
686,1.0
687,1.0
688,2.0
2,1, 1,21, 0, 3,10.00,20.00,WinterDesignDay
250,-17.08068069078679
251,33258891.42861715
336,0.0
385,21.643476158029593
386,26.457746146233237
387,-18.49921690649354
388,0.0
425,0.0
450,0.0
451,0.0
452,-19.362053349557986
453,0.0
490,0.0
515,0.0
516,0.0
542,0.0
592,0.0
632,33000000.0
686,1.0
687,1.0
688,2.0
2,1, 1,21, 0, 3,20.00,30.00,WinterDesignDay
250,-17.080680690870935
251,33258891.428616542
336,0.0
385,21.643476158029593
386,26.457746146233237
387,-18.499218161138288
388,0.0
425,0.0
450,0.0
451,0.0
452,-19.362053524462972
453,0.0
490,0.0
515,0.0
516,0.0
542,0.0
592,0.0
632,33000000.0
686,1.0
687,1.0
688,2.0
2,1, 1,21, 0, 3,30.00,40.00,WinterDesignDay
250,-17.08068069095396
251,33258891.428615943
336,0.0
385,21.643476158029593
386,26.457746146233237
387,-18.499219399425133
388,0.0
425,0.0
450,0.0
451,0.0
452,-19.36205369708714
453,0.0
490,0.0
515,0.0
516,0.0
542,0.0
592,0.0
632,33000000.0
686,1.0
687,1.0
688,2.0
2,1, 1,21, 0, 3,40.00,50.00,WinterDesignDay
250,-17.08068069103589
251,33258891.428615354
336,0.0
385,21.643476158029593
386,26.457746146233237
387,-18.499220621567446
388,0.0
425,0.0
450,0.0
451,0.0
452,-19.36205386746025
453,0.0
490,0.0
515,0.0
516,0.0
542,0.0
592,0.0
632,33000000.0
686,1.0
687,1.0
688,2.0
2,1, 1,21, 0, 3,50.00,60.00,WinterDesignDay
250,-17.080680691116736
251,33258891.428614773
336,0.0
385,21.643476158029593
386,26.457746146233237
387,-18.499221827775877
388,0.0
425,0.0
450,0.0
451,0.0
452,-19.362054035611656
453,0.0
490,0.0
515,0.0
516,0.0
542,0.0
592,0.0
632,33000000.0
686,1.0
687,1.0
688,2.0
2,1, 1,21, 0, 4, 0.00,10.00,WinterDesignDay
250,-17.08068069119651
251,33258891.4286142
336,0.0
385,21.643476158029593
386,26.457746146233237
387,-18.499223018258153
388,0.0
425,0.0
450,0.0
451,0.0
452,-19.362054201570324
453,0.0
490,0.0
515,0.0
516,0.0
542,0.0
592,0.0
632,33000000.0
686,1.0
687,1.0
688,2.0
2,1, 1,21, 0, 4,10.00,20.00,WinterDesignDay
250,-17.08068069127522
251,33258891.42861363
336,0.0
385,21.643476158029593
386,26.457746146233237
387,-18.499224193219344
388,0.0
425,0.0
450,0.0
451,0.0
452,-19.362054365364855
453,0.0
490,0.0
515,0.0
516,0.0
542,0.0
592,0.0
632,33000000.0
686,1.0
687,1.0
688,2.0
2,1, 1,21, 0, 4,20.00,30.00,WinterDesignDay
250,-17.080680691352892
251,33258891.42861307
336,0.0
385,21.643476158029593
386,26.457746146233237
387,-18.499225352861718
388,0.0
425,0.0
450,0.0
451,0.0
452,-19.362054527023474
453,0.0
490,0.0
515,0.0
516,0.0
542,0.0
592,0.0
632,33000000.0
686,1.0
687,1.0
688,2.0
2,1, 1,21, 0, 4,30.00,40.00,WinterDesignDay
250,-17.08068069142954
251,33258891.428612527
336,0.0
385,21.643476158029593
386,26.457746146233237
387,-18.49922649738487
388,0.0
425,0.0
450,0.0
451,0.0
452,-19.362054686574037
453,0.0
490,0.0
515,0.0
516,0.0
542,0.0
592,0.0
632,33000000.0
686,1.0
687,1.0
688,2.0
2,1, 1,21, 0, 4,40.00,50.00,WinterDesignDay
250,-17.08068069150517
251,33258891.428611975
336,0.0
385,21.643476158029593
386,26.457746146233237
387,-18.499227626986013
388,0.0
425,0.0
450,0.0
451,0.0
452,-19.362054844044042
453,0.0
490,0.0
515,0.0
516,0.0
542,0.0
592,0.0
632,33000000.0
686,1.0
687,1.0
688,2.0
2,1, 1,21, 0, 4,50.00,60.00,WinterDesignDay
250,-17.080680691579797
251,33258891.428611442
336,0.0
385,21.643476158029593
386,26.457746146233237
387,-18.499228741859547
388,0.0
425,0.0
450,0.0
451,0.0
452,-19.362054999460618
453,0.0
490,0.0
515,0.0
516,0.0
542,0.0
592,0.0
632,33000000.0
686,1.0
687,1.0
688,2.0
2,1, 1,21, 0, 5, 0.00,10.00,WinterDesignDay
250,-17.080680691653434
251,33258891.428610906
336,0.0
385,21.643476158029593
386,26.457746146233237
387,-18.49922984219757
388,0.0
425,0.0
450,0.0
451,0.0
452,-19.362055152850548
453,0.0
490,0.0
515,0.0
516,0.0
542,0.0
592,0.0
632,33000000.0
686,1.0
687,1.0
688,2.0
2,1, 1,21, 0, 5,10.00,20.00,WinterDesignDay
250,-17.080680691726098
251,33258891.428610384
336,0.0
385,21.643476158029593
386,26.457746146233237
387,-18.499230928189657
388,0.0
425,0.0
450,0.0
451,0.0
452,-19.362055304240258
453,0.0
490,0.0
515,0.0
516,0.0
542,0.0
592,0.0
632,33000000.0
686,1.0
687,1.0
688,2.0
2,1, 1,21, 0, 5,20.00,30.00,WinterDesignDay
250,-17.0806806917978
251,33258891.428609867
336,0.0
385,21.643476158029593
386,26.457746146233237
387,-18.499232000022904
388,0.0
425,0.0
450,0.0
451,0.0
452,-19.362055453655834
453,0.0
490,0.0
515,0.0
516,0.0
542,0.0
592,0.0
632,33000000.0
686,1.0
687,1.0
688,2.0
2,1, 1,21, 0, 5,30.00,40.00,WinterDesignDay
250,-17.080680691868558
251,33258891.42860937
336,0.0
385,21.643476158029593
386,26.457746146233237
387,-18.49923305788174
388,0.0
425,0.0
450,0.0
451,0.0
452,-19.36205560112303
453,0.0
490,0.0
515,0.0
516,0.0
542,0.0
592,0.0
632,33000000.0
686,1.0
687,1.0
688,2.0
2,1, 1,21, 0, 5,40.00,50.00,WinterDesignDay
250,-17.080680691938376
251,33258891.42860886
336,0.0
385,21.643476158029593
386,26.457746146233237
387,-18.499234101948275
388,0.0
425,0.0
450,0.0
451,0.0
452,-19.36205574666725
453,0.0
490,0.0
515,0.0
516,0.0
542,0.0
592,0.0
632,33000000.0
686,1.0
687,1.0
688,2.0
2,1, 1,21, 0, 5,50.00,60.00,WinterDesignDay
250,-17.080680692007263
251,33258891.42860836
336,0.0
385,21.643476158029593
386,26.457746146233237
387,-18.49923513240236
388,0.0
425,0.0
450,0.0
451,0.0
452,-19.362055890313567
453,0.0
490,0.0
515,0.0
516,0.0
542,0.0
592,0.0
632,33000000.0
686,1.0
687,1.0
688,2.0
2,1, 1,21, 0, 6, 0.00,10.00,WinterDesignDay
250,-17.080680692075248
251,33258891.428607877
336,0.0
385,21.643476158029593
386,26.457746146233237
387,-18.499236149421534
388,0.0
425,0.0
450,0.0
451,0.0
452,-19.36205603208674
453,0.0
490,0.0
515,0.0
516,0.0
542,0.0
592,0.0
632,33000000.0
686,1.0
687,1.0
688,2.0
2,1, 1,21, 0, 6,10.00,20.00,WinterDesignDay
250,-17.08068069214233
251,33258891.428607393
336,0.0
385,21.643476158029593
386,26.457746146233237
387,-18.499237153181014
388,0.0
425,0.0
450,0.0
451,0.0
452,-19.362056172011197
453,0.0
490,0.0
515,0.0
516,0.0
542,0.0
592,0.0
632,33000000.0
686,1.0
687,1.0
688,2.0
2,1, 1,21, 0, 6,20.00,30.00,WinterDesignDay
250,-17.08068069220853
251,33258891.42860692
336,0.0
385,21.643476158029593
386,26.457746146233237
387,-18.49923814385376
388,0.0
425,0.0
450,0.0
451,0.0
452,-19.36205631011104
453,0.0
490,0.0
515,0.0
516,0.0
542,0.0
592,0.0
632,33000000.0
686,1.0
687,1.0
688,2.0
2,1, 1,21, 0, 6,30.00,40.00,WinterDesignDay
250,-17.080680692273848
251,33258891.428606443
336,0.0
385,21.643476158029593
386,26.457746146233237
387,-18.499239121610472
388,0.0
425,0.0
450,0.0
451,0.0
452,-19.36205644641007
453,0.0
490,0.0
515,0.0
516,0.0
542,0.0
592,0.0
632,33000000.0
686,1.0
687,1.0
688,2.0
2,1, 1,21, 0, 6,40.00,50.00,WinterDesignDay
250,-17.08068069233831
251,33258891.428605985
336,0.0
385,21.643476158029593
386,26.457746146233237
387,-18.499240086619338
388,0.0
425,0.0
450,0.0
451,0.0
452,-19.36205658093177
453,0.0
490,0.0
515,0.0
516,0.0
542,0.0
592,0.0
632,33000000.0
686,1.0
687,1.0
688,2.0
2,1, 1,21, 0, 6,50.00,60.00,WinterDesignDay
250,-17.080680692401913
251,33258891.428605527
336,0.0
385,21.643476158029593
386,26.457746146233237
387,-18.499241039046655
388,0.0
425,0.0
450,0.0
451,0.0
452,-19.36205671369932
453,0.0
490,0.0
515,0.0
516,0.0
542,0.0
592,0.0
632,33000000.0
686,1.0
687,1.0
688,2.0
2,1, 1,21, 0, 7, 0.00,10.00,WinterDesignDay
250,-17.08068069246468
251,33258891.428605083
336,0.0
385,21.643476158029593
386,26.457746146233237
387,-18.499241979056308
388,0.0
425,0.0
450,0.0
451,0.0
452,-19.3620568447356
453,0.0
490,0.0
515,0.0
516,0.0
542,0.0
592,0.0
632,33000000.0
686,1.0
687,1.0
688,2.0
2,1, 1,21, 0, 7,10.00,20.00,WinterDesignDay
250,-17.08068069252661
251,33258891.428604633
336,0.0
385,21.643476158029593
386,26.457746146233237
387,-18.499242906810146
388,0.0
425,0.0
450,0.0
451,0.0
452,-19.362056974063186
453,0.0
490,0.0
515,0.0
516,0.0
542,0.0
592,0.0
632,33000000.0
686,1.0
687,1.0
688,2.0
2,1, 1,21, 0, 7,20.00,30.00,WinterDesignDay
250,-17.080680692587727
251,33258891.428604197
336,0.0
385,21.643476158029593
386,26.457746146233237
387,-18.49924382246799
388,0.0
425,0.0
450,0.0
451,0.0
452,-19.362057101704366
453,0.0
490,0.0
515,0.0
516,0.0
542,0.0
592,0.0
632,33000000.0
686,1.0
687,1.0
688,2.0
2,1, 1,21, 0, 7,30.00,40.00,WinterDesignDay
250,-17.080680692648038
251,33258891.428603765
336,0.0
385,21.643476158029593
386,26.457746146233237
387,-18.49924472618743
388,0.0
425,0.0
450,0.0
451,0.0
452,-19.362057227681127
453,0.0
490,0.0
515,0.0
516,0.0
542,0.0
592,0.0
632,33000000.0
686,1.0
687,1.0
688,2.0
2,1, 1,21, 0, 7,40.00,50.00,WinterDesignDay
250,-17.08068069270755
251,33258891.428603336
336,0.0
385,21.643476158029593
386,26.457746146233237
387,-18.499245618124252
388,0.0
425,0.0
450,0.0
451,0.0
452,-19.362057352015174
453,0.0
490,0.0
515,0.0
516,0.0
542,0.0
592,0.0
632,33000000.0
686,1.0
687,1.0
688,2.0
2,1, 1,21, 0, 7,50.00,60.00,WinterDesignDay
250,-17.080680692766276
251,33258891.42860291
336,0.0
385,21.643476158029593
386,26.457746146233237
387,-18.499246498432377
388,0.0
425,0.0
450,0.0
451,0.0
452,-19.36205747472793
453,0.0
490,0.0
515,0.0
516,0.0
542,0.0
592,0.0
632,33000000.0
686,1.0
687,1.0
688,2.0
2,1, 1,21, 0, 8, 0.00,10.00,WinterDesignDay
250,-17.080680692824227
251,33258891.4286025
336,0.0
385,21.643476158029593
386,26.457746146233237
387,-18.499247367263276
388,0.0
425,0.0
450,0.0
451,0.0
452,-19.362057595840536
453,0.0
490,0.0
515,0.0
516,0.0
542,0.0
592,0.0
632,33000000.0
686,1.0
687,1.0
688,2.0
2,1, 1,21, 0, 8,10.00,20.00,WinterDesignDay
250,-17.080680692881412
251,33258891.42860209
336,0.0
385,21.643476158029593
386,26.457746146233237
387,-18.49924822476635
388,0.0
425,0.0
450,0.0
451,0.0
452,-19.362057715373865
453,0.0
490,0.0
515,0.0
516,0.0
542,0.0
592,0.0
632,33000000.0
686,1.0
687,1.0
688,2.0
2,1, 1,21, 0, 8,20.00,30.00,WinterDesignDay
250,-17.080680692937836
251,33258891.42860168
336,0.0
385,21.643476158029593
386,26.457746146233237
387,-18.499249071089274
388,0.0
425,0.0
450,0.0
451,0.0
452,-19.362057833348512
453,0.0
490,0.0
515,0.0
516,0.0
542,0.0
592,0.0
632,33000000.0
686,1.0
687,1.0
688,2.0
2,1, 1,21, 0, 8,30.00,40.00,WinterDesignDay
250,-17.080680692993525
251,33258891.42860129
336,0.0
385,21.643476158029593
386,26.457746146233237
387,-18.499249906377877
388,0.0
425,0.0
450,0.0
451,0.0
452,-19.362057949784802
453,0.0
490,0.0
515,0.0
516,0.0
542,0.0
592,0.0
632,33000000.0
686,1.0
687,1.0
688,2.0
2,1, 1,21, 0, 8,40.00,50.00,WinterDesignDay
250,-17.08068069304847
251,33258891.428600892
336,0.0
385,21.643476158029593
386,26.457746146233237
387,-18.499250730776197
388,0.0
425,0.0
450,0.0
451,0.0
452,-19.362058064702797
453,0.0
490,0.0
515,0.0
516,0.0
542,0.0
592,0.0
632,33000000.0
686,1.0
687,1.0
688,2.0
2,1, 1,21, 0, 8,50.00,60.00,WinterDesignDay
250,-17.080680693102696
251,33258891.428600505
336,0.0
385,21.643476158029593
386,26.457746146233237
387,-18.49925154442616
388,0.0
425,0.0
450,0.0
451,0.0
452,-19.362058178122297
453,0.0
490,0.0
515,0.0
516,0.0
542,0.0
592,0.0
632,33000000.0
686,1.0
687,1.0
688,2.0
2,1, 1,21, 0, 9, 0.00,10.00,WinterDesignDay
250,-17.080680693156204
251,33258891.428600114
336,0.0
385,21.643476158029593
386,26.457746146233237
387,-18.499252347467674
388,0.0
425,0.0
450,0.0
451,0.0
452,-19.362058290062837
453,0.0
490,0.0
515,0.0
516,0.0
542,0.0
592,0.0
632,33000000.0
686,1.0
687,1.0
688,2.0
2,1, 1,21, 0, 9,10.00,20.00,WinterDesignDay
250,-17.08068069320901
251,33258891.428599738
336,0.0
385,21.643476158029593
386,26.457746146233237
387,-18.49925314003906
388,0.0
425,0.0
450,0.0
451,0.0
452,-19.362058400543713
453,0.0
490,0.0
515,0.0
516,0.0
542,0.0
592,0.0
632,33000000.0
686,1.0
687,1.0
688,2.0
2,1, 1,21, 0, 9,20.00,30.00,WinterDesignDay
250,-17.08068069326111
251,33258891.42859936
336,0.0
385,21.643476158029593
386,26.457746146233237
387,-18.499253922276942
388,0.0
425,0.0
450,0.0
451,0.0
452,-19.36205850958396
453,0.0
490,0.0
515,0.0
516,0.0
542,0.0
592,0.0
632,33000000.0
686,1.0
687,1.0
688,2.0
2,1, 1,21, 0, 9,30.00,40.00,WinterDesignDay
250,-17.08068069331253
251,33258891.428598996
336,0.0
385,21.643476158029593
386,26.457746146233237
387,-18.499254694316157
388,0.0
425,0.0
450,0.0
451,0.0
452,-19.36205861720236
453,0.0
490,0.0
515,0.0
516,0.0
542,0.0
592,0.0
632,33000000.0
686,1.0
687,1.0
688,2.0
2,1, 1,21, 0, 9,40.00,50.00,WinterDesignDay
250,-17.08068069336327
251,33258891.428598635
336,0.0
385,21.643476158029593
386,26.457746146233237
387,-18.499255456289674
388,0.0
425,0.0
450,0.0
451,0.0
452,-19.36205872341746
453,0.0
490,0.0
515,0.0
516,0.0
542,0.0
592,0.0
632,33000000.0
686,1.0
687,1.0
688,2.0
2,1, 1,21, 0, 9,50.00,60.00,WinterDesignDay
250,-17.08068069341334
251,33258891.428598274
336,0.0
385,21.643476158029593
386,26.457746146233237
387,-18.499256208328724
388,0.0
425,0.0
450,0.0
451,0.0
452,-19.36205882824755
453,0.0
490,0.0
515,0.0
516,0.0
542,0.0
592,0.0
632,33000000.0
686,1.0
687,1.0
688,2.0
2,1, 1,21, 0,10, 0.00,10.00,WinterDesignDay
250,-17.080680693462746
251,33258891.42859792
336,0.0
385,21.643476158029593
386,26.457746146233237
387,-18.499256950562582
388,0.0
425,0.0
450,0.0
451,0.0
452,-19.362058931710703
453,0.0
490,0.0
515,0.0
516,0.0
542,0.0
592,0.0
632,33000000.0
686,1.0
687,1.0
688,2.0
2,1, 1,21, 0,10,10.00,20.00,WinterDesignDay
250,-17.080680693511503
251,33258891.42859757
336,0.0
385,21.643476158029593
386,26.457746146233237
387,-18.499257683119122
388,0.0
425,0.0
450,0.0
451,0.0
452,-19.36205903382474
453,0.0
490,0.0
515,0.0
516,0.0
542,0.0
592,0.0
632,33000000.0
686,1.0
687,1.0
688,2.0
2,1, 1,21, 0,10,20.00,30.00,WinterDesignDay
250,-17.08068069355962
251,33258891.428597227
336,0.0
385,21.643476158029593
386,26.457746146233237
387,-18.49925840612467
388,0.0
425,0.0
450,0.0
451,0.0
452,-19.362059134607254
453,0.0
490,0.0
515,0.0
516,0.0
542,0.0
592,0.0
632,33000000.0
686,1.0
687,1.0
688,2.0
2,1, 1,21, 0,10,30.00,40.00,WinterDesignDay
250,-17.080680693607096
251,33258891.42859688
336,0.0
385,21.643476158029593
386,26.457746146233237
387,-18.499259119703755
388,0.0
425,0.0
450,0.0
451,0.0
452,-19.36205923407561
453,0.0
490,0.0
515,0.0
516,0.0
542,0.0
592,0.0
632,33000000.0
686,1.0
687,1.0
688,2.0
2,1, 1,21, 0,10,40.00,50.00,WinterDesignDay
250,-17.08068069365395
251,33258891.428596552
336,0.0
385,21.643476158029593
386,26.457746146233237
387,-18.499259823979216
388,0.0
425,0.0
450,0.0
451,0.0
452,-19.36205933224694
453,0.0
490,0.0
515,0.0
516,0.0
542,0.0
592,0.0
632,33000000.0
686,1.0
687,1.0
688,2.0
2,1, 1,21, 0,10,50.00,60.00,WinterDesignDay
250,-17.080680693700188
251,33258891.428596217
336,0.0
385,21.643476158029593
386,26.457746146233237
387,-18.49926051907242
388,0.0
425,0.0
450,0.0
451,0.0
452,-19.36205942913816
453,0.0
490,0.0
515,0.0
516,0.0
542,0.0
592,0.0
632,33000000.0
686,1.0
687,1.0
688,2.0
2,1, 1,21, 0,11, 0.00,10.00,WinterDesignDay
250,-17.080680693745812
251,33258891.428595893
336,0.0
385,21.643476158029593
386,26.457746146233237
387,-18.499261205103014
388,0.0
425,0.0
450,0.0
451,0.0
452,-19.36205952476597
453,0.0
490,0.0
515,0.0
516,0.0
542,0.0
592,0.0
632,33000000.0
686,1.0
687,1.0
688,2.0
2,1, 1,21, 0,11,10.00,20.00,WinterDesignDay
250,-17.08068069379084
251,33258891.42859557
336,0.0
385,21.643476158029593
386,26.457746146233237
387,-18.49926188218906
388,0.0
425,0.0
450,0.0
451,0.0
452,-19.362059619146848
453,0.0
490,0.0
515,0.0
516,0.0
542,0.0
592,0.0
632,33000000.0
686,1.0
687,1.0
688,2.0
2,1, 1,21, 0,11,20.00,30.00,WinterDesignDay
250,-17.08068069383527
251,33258891.42859525
336,0.0
385,21.643476158029593
386,26.457746146233237
387,-18.49926255044717
388,0.0
425,0.0
450,0.0
451,0.0
452,-19.362059712297043
453,0.0
490,0.0
515,0.0
516,0.0
542,0.0
592,0.0
632,33000000.0
686,1.0
687,1.0
688,2.0
2,1, 1,21, 0,11,30.00,40.00,WinterDesignDay
250,-17.080680693879113
251,33258891.428594932
336,0.0
385,21.643476158029593
386,26.457746146233237
387,-18.499263209992726
388,0.0
425,0.0
450,0.0
451,0.0
452,-19.362059804232608
453,0.0
490,0.0
515,0.0
516,0.0
542,0.0
592,0.0
632,33000000.0
686,1.0
687,1.0
688,2.0
2,1, 1,21, 0,11,40.00,50.00,WinterDesignDay
250,-17.080680693922382
251,33258891.428594626
336,0.0
385,21.643476158029593
386,26.457746146233237
387,-18.499263860939287
388,0.0
425,0.0
450,0.0
451,0.0
452,-19.36205989496938
453,0.0
490,0.0
515,0.0
516,0.0
542,0.0
592,0.0
632,33000000.0
686,1.0
687,1.0
688,2.0
2,1, 1,21, 0,11,50.00,60.00,WinterDesignDay
250,-17.080680693965082
251,33258891.42859432
336,0.0
385,21.643476158029593
386,26.457746146233237
387,-18.499264503398763
388,0.0
425,0.0
450,0.0
451,0.0
452,-19.362059984522997
453,0.0
490,0.0
515,0.0
516,0.0
542,0.0
592,0.0
632,33000000.0
686,1.0
687,1.0
688,2.0
2,1, 1,21, 0,12, 0.00,10.00,WinterDesignDay
250,-17.08068069400722
251,33258891.42859402
336,0.0
385,21.643476158029593
386,26.457746146233237
387,-18.49926513748177
388,0.0
425,0.0
450,0.0
451,0.0
452,-19.36206007290889
453,0.0
490,0.0
515,0.0
516,0.0
542,0.0
592,0.0
632,33000000.0
686,1.0
687,1.0
688,2.0
2,1, 1,21, 0,12,10.00,20.00,WinterDesignDay
250,-17.080680694048798
251,33258891.428593718
336,0.0
385,21.643476158029593
386,26.457746146233237
387,-18.499265763297622
388,0.0
425,0.0
450,0.0
451,0.0
452,-19.36206016014228
453,0.0
490,0.0
515,0.0
516,0.0
542,0.0
592,0.0
632,33000000.0
686,1.0
687,1.0
688,2.0
2,1, 1,21, 0,12,20.00,30.00,WinterDesignDay
250,-17.080680694089825
251,33258891.42859342
336,0.0
385,21.643476158029593
386,26.457746146233237
387,-18.499266380954037
388,0.0
425,0.0
450,0.0
451,0.0
452,-19.362060246238205
453,0.0
490,0.0
515,0.0
516,0.0
542,0.0
592,0.0
632,33000000.0
686,1.0
687,1.0
688,2.0
2,1, 1,21, 0,12,30.00,40.00,WinterDesignDay
250,-17.08068069413032
251,33258891.428593144
336,0.0
385,21.643476158029593
386,26.457746146233237
387,-18.499266990557345
388,0.0
425,0.0
450,0.0
451,0.0
452,-19.362060331211488
453,0.0
490,0.0
515,0.0
516,0.0
542,0.0
592,0.0
632,33000000.0
686,1.0
687,1.0
688,2.0
2,1, 1,21, 0,12,40.00,50.00,WinterDesignDay
250,-17.080680694170276
251,33258891.42859285
336,0.0
385,21.643476158029593
386,26.457746146233237
387,-18.499267592212593
388,0.0
425,0.0
450,0.0
451,0.0
452,-19.362060415076776
453,0.0
490,0.0
515,0.0
516,0.0
542,0.0
592,0.0
632,33000000.0
686,1.0
687,1.0
688,2.0
2,1, 1,21, 0,12,50.00,60.00,WinterDesignDay
250,-17.080680694209715
251,33258891.42859258
336,0.0
385,21.643476158029593
386,26.457746146233237
387,-18.499268186023567
388,0.0
425,0.0
450,0.0
451,0.0
452,-19.36206049784851
453,0.0
490,0.0
515,0.0
516,0.0
542,0.0
592,0.0
632,33000000.0
686,1.0
687,1.0
688,2.0
2,1, 1,21, 0,13, 0.00,10.00,WinterDesignDay
250,-17.080680694248624
251,33258891.428592287
336,0.0
385,21.643476158029593
386,26.457746146233237
387,-18.499268772092503
388,0.0
425,0.0
450,0.0
451,0.0
452,-19.36206057954095
453,0.0
490,0.0
515,0.0
516,0.0
542,0.0
592,0.0
632,33000000.0
686,1.0
687,1.0
688,2.0
2,1, 1,21, 0,13,10.00,20.00,WinterDesignDay
250,-17.080680694287025
251,33258891.428592015
336,0.0
385,21.643476158029593
386,26.457746146233237
387,-18.499269350520287
388,0.0
425,0.0
450,0.0
451,0.0
452,-19.36206066016818
453,0.0
490,0.0
515,0.0
516,0.0
542,0.0
592,0.0
632,33000000.0
686,1.0
687,1.0
688,2.0
2,1, 1,21, 0,13,20.00,30.00,WinterDesignDay
250,-17.08068069432492
251,33258891.428591747
336,0.0
385,21.643476158029593
386,26.457746146233237
387,-18.49926992140644
388,0.0
425,0.0
450,0.0
451,0.0
452,-19.36206073974408
453,0.0
490,0.0
515,0.0
516,0.0
542,0.0
592,0.0
632,33000000.0
686,1.0
687,1.0
688,2.0
2,1, 1,21, 0,13,30.00,40.00,WinterDesignDay
250,-17.080680694362314
251,33258891.428591475
336,0.0
385,21.643476158029593
386,26.457746146233237
387,-18.499270484849262
388,0.0
425,0.0
450,0.0
451,0.0
452,-19.36206081828237
453,0.0
490,0.0
515,0.0
516,0.0
542,0.0
592,0.0
632,33000000.0
686,1.0
687,1.0
688,2.0
2,1, 1,21, 0,13,40.00,50.00,WinterDesignDay
250,-17.08068069439922
251,33258891.428591214
336,0.0
385,21.643476158029593
386,26.457746146233237
387,-18.499271040946027
388,0.0
425,0.0
450,0.0
451,0.0
452,-19.36206089579657
453,0.0
490,0.0
515,0.0
516,0.0
542,0.0
592,0.0
632,33000000.0
686,1.0
687,1.0
688,2.0
2,1, 1,21, 0,13,50.00,60.00,WinterDesignDay
250,-17.080680694435635
251,33258891.428590957
336,0.0
385,21.643476158029593
386,26.457746146233237
387,-18.49927158979244
388,0.0
425,0.0
450,0.0
451,0.0
452,-19.36206097230004
453,0.0
490,0.0
515,0.0
516,0.0
542,0.0
592,0.0
632,33000000.0
686,1.0
687,1.0
688,2.0
2,1, 1,21, 0,14, 0.00,10.00,WinterDesignDay
250,-17.080680694471575
251,33258891.4285907
336,0.0
385,21.643476158029593
386,26.457746146233237
387,-18.499272131482915
388,0.0
425,0.0
450,0.0
451,0.0
452,-19.36206104780596
453,0.0
490,0.0
515,0.0
516,0.0
542,0.0
592,0.0
632,33000000.0
686,1.0
687,1.0
688,2.0
2,1, 1,21, 0,14,10.00,20.00,WinterDesignDay
250,-17.080680694507045
251,33258891.428590447
336,0.0
385,21.643476158029593
386,26.457746146233237
387,-18.499272666110794
388,0.0
425,0.0
450,0.0
451,0.0
452,-19.362061122327333
453,0.0
490,0.0
515,0.0
516,0.0
542,0.0
592,0.0
632,33000000.0
686,1.0
687,1.0
688,2.0
2,1, 1,21, 0,14,20.00,30.00,WinterDesignDay
250,-17.08068069454204
251,33258891.428590193
336,0.0
385,21.643476158029593
386,26.457746146233237
387,-18.49927319376808
388,0.0
425,0.0
450,0.0
451,0.0
452,-19.362061195877
453,0.0
490,0.0
515,0.0
516,0.0
542,0.0
592,0.0
632,33000000.0
686,1.0
687,1.0
688,2.0
2,1, 1,21, 0,14,30.00,40.00,WinterDesignDay
250,-17.080680694576575
251,33258891.428589948
336,0.0
385,21.643476158029593
386,26.457746146233237
387,-18.499273714545712
388,0.0
425,0.0
450,0.0
451,0.0
452,-19.362061268467638
453,0.0
490,0.0
515,0.0
516,0.0
542,0.0
592,0.0
632,33000000.0
686,1.0
687,1.0
688,2.0
2,1, 1,21, 0,14,40.00,50.00,WinterDesignDay
250,-17.08068069461066
251,33258891.4285897
336,0.0
385,21.643476158029593
386,26.457746146233237
387,-18.499274228533565
388,0.0
425,0.0
450,0.0
451,0.0
452,-19.36206134011175
453,0.0
490,0.0
515,0.0
516,0.0
542,0.0
592,0.0
632,33000000.0
686,1.0
687,1.0
688,2.0
2,1, 1,21, 0,14,50.00,60.00,WinterDesignDay
250,-17.080680694644297
251,33258891.428589463
336,0.0
385,21.643476158029593
386,26.457746146233237
387,-18.499274735820094
388,0.0
425,0.0
450,0.0
451,0.0
452,-19.36206141082168
453,0.0
490,0.0
515,0.0
516,0.0
542,0.0
592,0.0
632,33000000.0
686,1.0
687,1.0
688,2.0
2,1, 1,21, 0,15, 0.00,10.00,WinterDesignDay
250,-17.080680694677486
251,33258891.42858922
336,0.0
385,21.643476158029593
386,26.457746146233237
387,-18.499275236492494
388,0.0
425,0.0
450,0.0
451,0.0
452,-19.362061480609604
453,0.0
490,0.0
515,0.0
516,0.0
542,0.0
592,0.0
632,33000000.0
686,1.0
687,1.0
688,2.0
2,1, 1,21, 0,15,10.00,20.00,WinterDesignDay
250,-17.080680694710246
251,33258891.42858899
336,0.0
385,21.643476158029593
386,26.457746146233237
387,-18.499275730636935
388,0.0
425,0.0
450,0.0
451,0.0
452,-19.362061549487546
453,0.0
490,0.0
515,0.0
516,0.0
542,0.0
592,0.0
632,33000000.0
686,1.0
687,1.0
688,2.0
2,1, 1,21, 0,15,20.00,30.00,WinterDesignDay
250,-17.080680694742572
251,33258891.42858876
336,0.0
385,21.643476158029593
386,26.457746146233237
387,-18.49927621833877
388,0.0
425,0.0
450,0.0
451,0.0
452,-19.362061617467376
453,0.0
490,0.0
515,0.0
516,0.0
542,0.0
592,0.0
632,33000000.0
686,1.0
687,1.0
688,2.0
2,1, 1,21, 0,15,30.00,40.00,WinterDesignDay
250,-17.080680694774472
251,33258891.428588532
336,0.0
385,21.643476158029593
386,26.457746146233237
387,-18.499276699682007
388,0.0
425,0.0
450,0.0
451,0.0
452,-19.362061684560803
453,0.0
490,0.0
515,0.0
516,0.0
542,0.0
592,0.0
632,33000000.0
686,1.0
687,1.0
688,2.0
2,1, 1,21, 0,15,40.00,50.00,WinterDesignDay
250,-17.080680694805952
251,33258891.428588305
336,0.0
385,21.643476158029593
386,26.457746146233237
387,-18.499277174749487
388,0.0
425,0.0
450,0.0
451,0.0
452,-19.362061750779382
453,0.0