Program Version,EnergyPlus, Version 24.2.0-94a887817b, YMD=2025.01.22 00:06
1,5,Environment Title[],Latitude[deg],Longitude[deg],Time Zone[],Elevation[m]
2,8,Day of Simulation[],Month[],Day of Month[],DST Indicator[1=yes 0=no],Hour[],StartMinute[],EndMinute[],DayType
3,5,Cumulative Day of Simulation[],Month[],Day of Month[],DST Indicator[1=yes 0=no],DayType  ! When Daily Report Variables Requested
4,2,Cumulative Days of Simulation[],Month[]  ! When Monthly Report Variables Requested
5,1,Cumulative Days of Simulation[] ! When Run Period Report Variables Requested
6,1,Calendar Year of Simulation[] ! When Annual Report Variables Requested
250,1,LIVING ZONE,Zone Air Temperature [C] !TimeStep,REPORTSCH
251,1,LIVING ZONE,Zone Air System Sensible Heating Energy [J] !TimeStep,REPORTSCH
336,1,LIVING ZONE,Zone Air System Sensible Cooling Energy [J] !TimeStep,REPORTSCH
385,1,LIVING ZONE,Zone Thermostat Heating Setpoint Temperature [C] !TimeStep,REPORTSCH
386,1,LIVING ZONE,Zone Thermostat Cooling Setpoint Temperature [C] !TimeStep,REPORTSCH
387,1,GARAGE ZONE,Zone Air Temperature [C] !TimeStep,REPORTSCH
388,1,GARAGE ZONE,Zone Air System Sensible Heating Energy [J] !TimeStep,REPORTSCH
425,1,GARAGE ZONE,Zone Air System Sensible Cooling Energy [J] !TimeStep,REPORTSCH
450,1,GARAGE ZONE,Zone Thermostat Heating Setpoint Temperature [C] !TimeStep,REPORTSCH
451,1,GARAGE ZONE,Zone Thermostat Cooling Setpoint Temperature [C] !TimeStep,REPORTSCH
452,1,ATTIC ZONE,Zone Air Temperature [C] !TimeStep,REPORTSCH
453,1,ATTIC ZONE,Zone Air System Sensible Heating Energy [J] !TimeStep,REPORTSCH
490,1,ATTIC ZONE,Zone Air System Sensible Cooling Energy [J] !TimeStep,REPORTSCH
515,1,ATTIC ZONE,Zone Thermostat Heating Setpoint Temperature [C] !TimeStep,REPORTSCH
516,1,ATTIC ZONE,Zone Thermostat Cooling Setpoint Temperature [C] !TimeStep,REPORTSCH
542,1,ACDXCOIL 1,Cooling Coil Total Cooling Energy [J] !TimeStep,REPORTSCH
592,1,HEAT PUMP DX HEATING COIL 1,Heating Coil Heating Energy [J] !TimeStep,REPORTSCH
632,1,SUPP HEATING COIL 1,Heating Coil Heating Energy [J] !TimeStep,REPORTSCH
686,1,TWOSPEED HEAT PUMP 1,Unitary System DX Coil Cycling Ratio [] !TimeStep,REPORTSCH
687,1,TWOSPEED HEAT PUMP 1,Unitary System DX Coil Speed Ratio [] !TimeStep,REPORTSCH
688,1,TWOSPEED HEAT PUMP 1,Unitary System DX Coil Speed Level [] !TimeStep,REPORTSCH
End of Data Dictionary
1,RUN PERIOD 1,  41.98, -87.92,  -6.00, 201.00
2,21, 1,21, 0, 1, 0.00,10.00,Monday
250,-0.7368862705259813
251,38076973.68464756
336,0.0
385,17.038006528299277
386,27.0484114802571
387,-0.9455694802898242
388,0.0
425,0.0
450,0.0
451,0.0
452,-1.9727752798290443
453,0.0
490,0.0
515,0.0
516,0.0
542,0.0
592,4839743.9850796405
632,32979127.543310866
686,1.0
687,1.0
688,2.0
2,21, 1,21, 0, 1,10.00,20.00,Monday
250,-0.7369298918132743
251,38078626.12511996
336,0.0
385,17.038006528299277
386,27.0484114802571
387,-0.9539352115994463
388,0.0
425,0.0
450,0.0
451,0.0
452,-1.9546391453570444
453,0.0
490,0.0
515,0.0
516,0.0
542,0.0
592,4823801.676011795
632,32995909.53862011
686,1.0
687,1.0
688,2.0
2,21, 1,21, 0, 1,20.00,30.00,Monday
250,-0.737155889507384
251,38066871.25434151
336,0.0
385,17.038006528299277
386,27.0484114802571
387,-0.9635347067155234
388,0.0
425,0.0
450,0.0
451,0.0
452,-1.9515584212283856
453,0.0
490,0.0
515,0.0
516,0.0
542,0.0
592,4807858.16290522
632,33000000.0
686,1.0
687,1.0
688,2.0
2,21, 1,21, 0, 1,30.00,40.00,Monday
250,-0.7374120394606772
251,38050942.77510733
336,0.0
385,17.038006528299277
386,27.0484114802571
387,-0.9745726910858618
388,0.0
425,0.0
450,0.0
451,0.0
452,-1.9644272030278298
453,0.0
490,0.0
515,0.0
516,0.0
542,0.0
592,4791913.4456235105
632,33000000.0
686,1.0
687,1.0
688,2.0
2,21, 1,21, 0, 1,40.00,50.00,Monday
250,-0.7376703348521955
251,38034998.01456973
336,0.0
385,17.038006528299277
386,27.0484114802571
387,-0.9872065122226933
388,0.0
425,0.0
450,0.0
451,0.0
452,-1.9916255101195388
453,0.0
490,0.0
515,0.0
516,0.0
542,0.0
592,4775967.524030239
632,33000000.0
686,1.0
687,1.0
688,2.0
2,21, 1,21, 0, 1,50.00,60.00,Monday
250,-0.7379293722012803
251,38019051.294042036
336,0.0
385,17.038006528299277
386,27.0484114802571
387,-1.0016250082986167
388,0.0
425,0.0
450,0.0
451,0.0
452,-2.031623355757474
453,0.0
490,0.0
515,0.0
516,0.0
542,0.0
592,4760020.397988958
632,33000000.0
686,1.0
687,1.0
688,2.0
2,21, 1,21, 0, 2, 0.00,10.00,Monday
250,-0.7380366492519979
251,38018969.587766826
336,0.0
385,17.038006528299277
386,27.0484114802571
387,-1.0171466185246782
388,0.0
425,0.0
450,0.0
451,0.0
452,-2.0783769792386817
453,0.0
490,0.0
515,0.0
516,0.0
542,0.0
592,4760020.397988958
632,33000000.0
686,1.0
687,1.0
688,2.0
2,21, 1,21, 0, 2,10.00,20.00,Monday
250,-0.7381395524917063
251,38018967.232810095
336,0.0
385,17.038006528299277
386,27.0484114802571
387,-1.0328294223974523
388,0.0
425,0.0
450,0.0
451,0.0
452,-2.1210998769866247
453,0.0
490,0.0
515,0.0
516,0.0
542,0.0
592,4760020.397988959
632,33000000.0
686,1.0
687,1.0
688,2.0
2,21, 1,21, 0, 2,20.00,30.00,Monday
250,-0.7382424638142259
251,38018967.23714797
336,0.0
385,17.038006528299277
386,27.0484114802571
387,-1.0481202441578403
388,0.0
425,0.0
450,0.0
451,0.0
452,-2.152563057298282
453,0.0
490,0.0
515,0.0
516,0.0
542,0.0
592,4760020.397988959
632,33000000.0
686,1.0
687,1.0
688,2.0
2,21, 1,21, 0, 2,30.00,40.00,Monday
250,-0.7383433383370085
251,38018966.140476614
336,0.0
385,17.038006528299277
386,27.0484114802571
387,-1.0626978090534749
388,0.0
425,0.0
450,0.0
451,0.0
452,-2.171944402016741
453,0.0
490,0.0
515,0.0
516,0.0
542,0.0
592,4760020.397988956
632,33000000.0
686,1.0
687,1.0
688,2.0
2,21, 1,21, 0, 2,40.00,50.00,Monday
250,-0.7384426887617369
251,38018965.31985603
336,0.0
385,17.038006528299277
386,27.0484114802571
387,-1.0764215858641302
388,0.0
425,0.0
450,0.0
451,0.0
452,-2.182085357564884
453,0.0
490,0.0
515,0.0
516,0.0
542,0.0
592,4760020.397988958
632,33000000.0
686,1.0
687,1.0
688,2.0
2,21, 1,21, 0, 2,50.00,60.00,Monday
250,-0.7385402742179116
251,38018964.36954315
336,0.0
385,17.038006528299277
386,27.0484114802571
387,-1.089254065570385
388,0.0
425,0.0
450,0.0
451,0.0
452,-2.186134269893186
453,0.0
490,0.0
515,0.0
516,0.0
542,0.0
592,4760020.397988958
632,33000000.0
686,1.0
687,1.0
688,2.0
2,21, 1,21, 0, 3, 0.00,10.00,Monday
250,-0.6565876583551217
251,37977324.53743352
336,0.0
385,17.038006528299277
386,27.0484114802571
387,-1.0908079538195525
388,0.0
425,0.0
450,0.0
451,0.0
452,-2.178661216510596
453,0.0
490,0.0
515,0.0
516,0.0
542,0.0
592,4762558.894114006
632,33000000.0
686,1.0
687,1.0
688,2.0
2,21, 1,21, 0, 3,10.00,20.00,Monday
250,-0.5729507976755344
251,37978845.401452765
336,0.0
385,17.038006528299277
386,27.0484114802571
387,-1.0797742003559785
388,0.0
425,0.0
450,0.0
451,0.0
452,-2.1536898563575377
453,0.0
490,0.0
515,0.0
516,0.0
542,0.0
592,4764988.4357309695
632,33000000.0
686,1.0
687,1.0
688,2.0
2,21, 1,21, 0, 3,20.00,30.00,Monday
250,-0.49011949114637454
251,37957153.06613441
336,0.0
385,17.038006528299277
386,27.0484114802571
387,-1.0605637965418213
388,0.0
425,0.0
450,0.0
451,0.0
452,-2.1097703243003476
453,0.0
490,0.0
515,0.0
516,0.0
542,0.0
592,4767308.250738335
632,32975555.958125293
686,1.0
687,1.0
688,2.0
2,21, 1,21, 0, 3,30.00,40.00,Monday
250,-0.40734138503031847
251,37914159.79301503
336,0.0
385,17.038006528299277
386,27.0484114802571
387,-1.0369737631804234
388,0.0
425,0.0
450,0.0
451,0.0
452,-2.050033537223711
453,0.0
490,0.0
515,0.0
516,0.0
542,0.0
592,4769517.689516205
632,32930326.45752206
686,1.0
687,1.0
688,2.0
2,21, 1,21, 0, 3,40.00,50.00,Monday
250,-0.32453321872186425
251,37871159.21030869
336,0.0
385,17.038006528299277
386,27.0484114802571
387,-1.0103137203599364
388,0.0
425,0.0
450,0.0
451,0.0
452,-1.9789634717249331
453,0.0
490,0.0
515,0.0
516,0.0
542,0.0
592,4771616.115684973
632,32885245.50985965
686,1.0
687,1.0
688,2.0
2,21, 1,21, 0, 3,50.00,60.00,Monday
250,-0.24170456304237492
251,37828154.47710564
336,0.0
385,17.038006528299277
386,27.0484114802571
387,-0.980366349287267
388,0.0
425,0.0
450,0.0
451,0.0
452,-1.9001789307706898
453,0.0
490,0.0
515,0.0
516,0.0
542,0.0
592,4773602.736238396
632,32840267.076918993
686,1.0
687,1.0
688,2.0
2,21, 1,21, 0, 4, 0.00,10.00,Monday
250,-0.24087930168345106
251,37829320.63041546
336,0.0
385,17.038006528299277
386,27.0484114802571
387,-0.9576452587817924
388,0.0
425,0.0
450,0.0
451,0.0
452,-1.8239678191159439
453,0.0
490,0.0
515,0.0
516,0.0
542,0.0
592,4773428.98237163
632,32797444.676843394
686,1.0
687,1.0
688,2.0
2,21, 1,21, 0, 4,10.00,20.00,Monday
250,-0.241331531636995
251,37829625.9026917
336,0.0
385,17.038006528299277
386,27.0484114802571
387,-0.9450116498475488
388,0.0
425,0.0
450,0.0
451,0.0
452,-1.7593688748422776
453,0.0
490,0.0
515,0.0
516,0.0
542,0.0
592,4773255.169447956
632,32797235.74878305
686,1.0
687,1.0
688,2.0
2,21, 1,21, 0, 4,20.00,30.00,Monday
250,-0.2411634664256658
251,37829564.70895227
336,0.0
385,17.038006528299277
386,27.0484114802571
387,-0.939002915525155
388,0.0
425,0.0
450,0.0
451,0.0
452,-1.709987395326725
453,0.0
490,0.0
515,0.0
516,0.0
542,0.0
592,4773081.297437258
632,32797682.497301176
686,1.0
687,1.0
688,2.0
2,21, 1,21, 0, 4,30.00,40.00,Monday
250,-0.24112261364513882
251,37829583.70787691
336,0.0
385,17.038006528299277
386,27.0484114802571
387,-0.93575952615271
388,0.0
425,0.0
450,0.0
451,0.0
452,-1.6741659411014562
453,0.0
490,0.0
515,0.0
516,0.0
542,0.0
592,4772907.3663094025
632,32797806.91497474
686,1.0
687,1.0
688,2.0
2,21, 1,21, 0, 4,40.00,50.00,Monday
250,-0.241092107280053
251,37829606.054634795
336,0.0
385,17.038006528299277
386,27.0484114802571
387,-0.9334850738820782
388,0.0
425,0.0
450,0.0
451,0.0
452,-1.6482347782425564
453,0.0
490,0.0
515,0.0
516,0.0
542,0.0
592,4772733.376034233
632,32797997.67978185
686,1.0
687,1.0
688,2.0
2,21, 1,21, 0, 4,50.00,60.00,Monday
250,-0.24106041075337345
251,37829627.576583974
336,0.0
385,17.038006528299277
386,27.0484114802571
387,-0.931989695066796
388,0.0
425,0.0
450,0.0
451,0.0
452,-1.6291350584348328
453,0.0
490,0.0
515,0.0
516,0.0
542,0.0
592,4772559.326581575
632,32798193.89218407
686,1.0
687,1.0
688,2.0
2,21, 1,21, 0, 5, 0.00,10.00,Monday
250,-0.24103057634105488
251,37829650.14880022
336,0.0
385,17.038006528299277
386,27.0484114802571
387,-0.9313246392370836
388,0.0
425,0.0
450,0.0
451,0.0
452,-1.6142509375629588
453,0.0
490,0.0
515,0.0
516,0.0
542,0.0
592,4759720.85868958
632,32811053.929432448
686,1.0
687,1.0
688,2.0
2,21, 1,21, 0, 5,10.00,20.00,Monday
250,-0.24098935023625753
251,37830934.92763558
336,0.0
385,17.038006528299277
386,27.0484114802571
387,-0.9313543659737716
388,0.0
425,0.0
450,0.0
451,0.0
452,-1.6012716982067623
453,0.0
490,0.0
515,0.0
516,0.0
542,0.0
592,4746877.262331866
632,32825188.440606445
686,1.0
687,1.0
688,2.0
2,21, 1,21, 0, 5,20.00,30.00,Monday
250,-0.24094781817696193
251,37832246.55098728
336,0.0
385,17.038006528299277
386,27.0484114802571
387,-0.9318504480870422
388,0.0
425,0.0
450,0.0
451,0.0
452,-1.5887956898233395
453,0.0
490,0.0
515,0.0
516,0.0
542,0.0
592,4734028.534436013
632,32839348.957426094
686,1.0
687,1.0
688,2.0
2,21, 1,21, 0, 5,30.00,40.00,Monday
250,-0.2409063525360974
251,37833549.20044929
336,0.0
385,17.038006528299277
386,27.0484114802571
387,-0.9326095605933603
388,0.0
425,0.0
450,0.0
451,0.0
452,-1.5763894356073422
453,0.0
490,0.0
515,0.0
516,0.0
542,0.0
592,4721174.671927155
632,32853505.434405725
686,1.0
687,1.0
688,2.0
2,21, 1,21, 0, 5,40.00,50.00,Monday
250,-0.24086484274050213
251,37834854.1856177
336,0.0
385,17.038006528299277
386,27.0484114802571
387,-0.9334955097905813
388,0.0
425,0.0
450,0.0
451,0.0
452,-1.564121676243979
453,0.0
490,0.0
515,0.0
516,0.0
542,0.0
592,4708315.671727969
632,32867669.444340613
686,1.0
687,1.0
688,2.0
2,21, 1,21, 0, 5,50.00,60.00,Monday
250,-0.24082341050202954
251,37836159.90129854
336,0.0
385,17.038006528299277
386,27.0484114802571
387,-0.93442892741474
388,0.0
425,0.0
450,0.0
451,0.0
452,-1.5521434042660687
453,0.0
490,0.0
515,0.0
516,0.0
542,0.0
592,4695451.530758676
632,32881839.259998374
686,1.0
687,1.0
688,2.0
2,21, 1,21, 0, 6, 0.00,10.00,Monday
250,-0.24078031009261197
251,37837465.21834383
336,0.0
385,17.038006528299277
386,27.0484114802571
387,-0.935496400265242
388,0.0
425,0.0
450,0.0
451,0.0
452,-1.5411508421402922
453,0.0
490,0.0
515,0.0
516,0.0
542,0.0
592,4695264.08225586
632,32883332.924944296
686,1.0
687,1.0
688,2.0
2,21, 1,21, 0, 6,10.00,20.00,Monday
250,-0.24074897348045787
251,37837507.33321957
336,0.0
385,17.038006528299277
386,27.0484114802571
387,-0.9367814214417579
388,0.0
425,0.0
450,0.0
451,0.0
452,-1.5319574132774685
453,0.0
490,0.0
515,0.0
516,0.0
542,0.0
592,4695076.569900009
632,32883556.215252817
686,1.0
687,1.0
688,2.0
2,21, 1,21, 0, 6,20.00,30.00,Monday
250,-0.24071796216610195
251,37837523.11098457
336,0.0
385,17.038006528299277
386,27.0484114802571
387,-0.9382783896142317
388,0.0
425,0.0
450,0.0
451,0.0
452,-1.5248891853094788
453,0.0
490,0.0
515,0.0
516,0.0
542,0.0
592,4694888.993658494
632,32883759.39404124
686,1.0
687,1.0
688,2.0
2,21, 1,21, 0, 6,30.00,40.00,Monday
250,-0.24068649047920126
251,37837548.20354211
336,0.0
385,17.038006528299277
386,27.0484114802571
387,-0.9399452933309872
388,0.0
425,0.0
450,0.0
451,0.0
452,-1.5197395634042659
453,0.0
490,0.0
515,0.0
516,0.0
542,0.0
592,4694701.353498662
632,32883972.37477259
686,1.0
687,1.0
688,2.0
2,21, 1,21, 0, 6,40.00,50.00,Monday
250,-0.24065471187151616
251,37837571.30993762
336,0.0
385,17.038006528299277
386,27.0484114802571
387,-0.9417501881805194
388,0.0
425,0.0
450,0.0
451,0.0
452,-1.5160589395600053
453,0.0
490,0.0
515,0.0
516,0.0
542,0.0
592,4694513.649387832
632,32884183.350630503
686,1.0
687,1.0
688,2.0
2,21, 1,21, 0, 6,50.00,60.00,Monday
250,-0.24062256539271815
251,37837594.070531175
336,0.0
385,17.038006528299277
386,27.0484114802571
387,-0.9436759104101916
388,0.0
425,0.0
450,0.0
451,0.0
452,-1.5134270947202635
453,0.0
490,0.0
515,0.0
516,0.0
542,0.0
592,4694325.88129331
632,32884394.077503487
686,1.0
687,1.0
688,2.0
2,21, 1,21, 0, 7, 0.00,10.00,Monday
250,-0.24144525029837438
251,37838077.358462915
336,0.0
385,17.038006528299277
386,27.0484114802571
387,-0.9481452143802118
388,0.0
425,0.0
450,0.0
451,0.0
452,-1.5167113280437798
453,0.0
490,0.0
515,0.0
516,0.0
542,0.0
592,4723573.583255435
632,32855169.1778631
686,1.0
687,1.0
688,2.0
2,21, 1,21, 0, 7,10.00,20.00,Monday
250,-0.24141937867719582
251,37835176.31593531
336,0.0
385,17.038006528299277
386,27.0484114802571
387,-0.9573318701012226
388,0.0
425,0.0
450,0.0
451,0.0
452,-1.5353844097330147
453,0.0
490,0.0
515,0.0
516,0.0
542,0.0
592,4752837.186047653
632,32823461.63693082
686,1.0
687,1.0
688,2.0
2,21, 1,21, 0, 7,20.00,30.00,Monday
250,-0.24136775483895792
251,37832198.70516006
336,0.0
385,17.038006528299277
386,27.0484114802571
387,-0.9714763882696058
388,0.0
425,0.0
450,0.0
451,0.0
452,-1.574817160820423
453,0.0
490,0.0
515,0.0
516,0.0
542,0.0
592,4782116.702651945
632,32791218.378681492
686,1.0
687,1.0
688,2.0
2,21, 1,21, 0, 7,30.00,40.00,Monday
250,-0.2413223116556976
251,37829244.84354388
336,0.0
385,17.038006528299277
386,27.0484114802571
387,-0.9896234019356017
388,0.0
425,0.0
450,0.0
451,0.0
452,-1.6326281078128104
453,0.0
490,0.0
515,0.0
516,0.0
542,0.0
592,4811412.146064445
632,32758965.742839433
686,1.0
687,1.0
688,2.0
2,21, 1,21, 0, 7,40.00,50.00,Monday
250,-0.24127480781235755
251,37826284.05875744
336,0.0
385,17.038006528299277
386,27.0484114802571
387,-1.0106938856308283
388,0.0
425,0.0
450,0.0
451,0.0
452,-1.7025625084296145
453,0.0
490,0.0
515,0.0
516,0.0
542,0.0
592,4840723.52929546
632,32726694.682628315
686,1.0
687,1.0
688,2.0
2,21, 1,21, 0, 7,50.00,60.00,Monday
250,-0.24122652071616948
251,37823320.89316146
336,0.0
385,17.038006528299277
386,27.0484114802571
387,-1.0339406837376868
388,0.0
425,0.0
450,0.0
451,0.0
452,-1.778926438018115
453,0.0
490,0.0
515,0.0
516,0.0
542,0.0
592,4870050.865369484
632,32694404.60073596
686,1.0
687,1.0
688,2.0
2,21, 1,21, 0, 8, 0.00,10.00,Monday
250,-0.04087409015678971
251,37712505.30691048
336,0.0
385,17.038006528299277
386,27.0484114802571
387,-1.0300496038117033
388,0.0
425,0.0
450,0.0
451,0.0
452,-1.8378802264758691
453,0.0
490,0.0
515,0.0
516,0.0
542,0.0
592,4889730.300311493
632,32671760.47418104
686,1.0
687,1.0
688,2.0
2,21, 1,21, 0, 8,10.00,20.00,Monday
250,0.15960876580439462
251,37606851.19123198
336,0.0
385,17.038006528299277
386,27.0484114802571
387,-0.9884958992495982
388,0.0
425,0.0
450,0.0
451,0.0
452,-1.8290516319552852
453,0.0
490,0.0
515,0.0
516,0.0
542,0.0
592,4909380.719869504
632,32546532.746905375
686,1.0
687,1.0
688,2.0
2,21, 1,21, 0, 8,20.00,30.00,Monday
250,0.35831664477845065
251,37502260.96548449
336,0.0
385,17.038006528299277
386,27.0484114802571
387,-0.9174811791950395
388,0.0
425,0.0
450,0.0
451,0.0
452,-1.721660627198702
453,0.0
490,0.0
515,0.0
516,0.0
542,0.0
592,4929009.6156952735
632,32421364.726015124
686,1.0
687,1.0
688,2.0
2,21, 1,21, 0, 8,30.00,40.00,Monday
250,0.5575336477942406
251,37397356.34263193
336,0.0
385,17.038006528299277
386,27.0484114802571
387,-0.827171332943847
388,0.0
425,0.0
450,0.0
451,0.0
452,-1.5261076574768024
453,0.0
490,0.0
515,0.0
516,0.0
542,0.0
592,4952863.6467726575
632,32292887.048491325
686,1.0
687,1.0
688,2.0
2,21, 1,21, 0, 8,40.00,50.00,Monday
250,0.75683137043585
251,37292004.17583446
336,0.0
385,17.038006528299277
386,27.0484114802571
387,-0.7255419481565039
388,0.0
425,0.0
450,0.0
451,0.0
452,-1.2505217193713658
453,0.0
490,0.0
515,0.0
516,0.0
542,0.0
592,4977062.298687916
632,32163385.390809577
686,1.0
687,1.0
688,2.0
2,21, 1,21, 0, 8,50.00,60.00,Monday
250,0.9567662831654391
251,37187238.160921335
336,0.0
385,17.038006528299277
386,27.0484114802571
387,-0.6296461953109938
388,0.0
425,0.0
450,0.0
451,0.0
452,-0.9375159082369693
453,0.0
490,0.0
515,0.0
516,0.0
542,0.0
592,5001395.306277512
632,31981468.253256373
686,1.0
687,1.0
688,2.0
2,21, 1,21, 0, 9, 0.00,10.00,Monday
250,1.222323384483219
251,37048167.693816856
336,0.0
385,17.038006528299277
386,27.0484114802571
387,-0.49124635862114185
388,0.0
425,0.0
450,0.0
451,0.0
452,-0.45807098501009536
453,0.0
490,0.0
515,0.0
516,0.0
542,0.0
592,5029363.153609448
632,31831113.7858947
686,1.0
687,1.0
688,2.0
2,21, 1,21, 0, 9,10.00,20.00,Monday
250,1.4878264844921079
251,36908177.919313364
336,0.0
385,17.038006528299277
386,27.0484114802571
387,-0.34044846648035565
388,0.0
425,0.0
450,0.0
451,0.0
452,0.0661552898432336
453,0.0
490,0.0
515,0.0
516,0.0
542,0.0
592,5057356.862312016
632,31663119.71718266
686,1.0
687,1.0
688,2.0
2,21, 1,21, 0, 9,20.00,30.00,Monday
250,1.7534532929477988
251,36768116.54944499
336,0.0
385,17.038006528299277
386,27.0484114802571
387,-0.18054589181804098
388,0.0
425,0.0
450,0.0
451,0.0
452,0.6308467505793636
453,0.0
490,0.0
515,0.0
516,0.0
542,0.0
592,5085392.284952975
632,31495056.75451891
686,1.0
687,1.0
688,2.0
2,21, 1,21, 0, 9,30.00,40.00,Monday
250,2.0190330672880252
251,36628078.59882952
336,0.0
385,17.038006528299277
386,27.0484114802571
387,-0.010804642771454194
388,0.0
425,0.0
450,0.0
451,0.0
452,1.2254729135445959
453,0.0
490,0.0
515,0.0
516,0.0
542,0.0
592,5113485.892141593
632,31326914.0455394
686,1.0
687,1.0
688,2.0
2,21, 1,21, 0, 9,40.00,50.00,Monday
250,2.2848501304221314
251,36486925.9430968
336,0.0
385,17.03800652829929
386,27.048411480257123
387,0.13435861798332288
388,0.0
425,0.0
450,0.0
451,0.0
452,1.7272038318875431
453,0.0
490,0.0
515,0.0
516,0.0
542,0.0
592,5141654.529350725
632,31134140.92640061
686,1.0000000000000009
687,1.0000000000000009
688,2.0000000000000018
2,21, 1,21, 0, 9,50.00,60.00,Monday
250,2.550801509388836
251,36346150.64331282
336,0.0
385,17.038006528299277
386,27.0484114802571
387,0.28650893675529404
388,0.0
425,0.0
450,0.0
451,0.0
452,2.2677285005886443
453,0.0
490,0.0
515,0.0
516,0.0
542,0.0
592,5169915.672059795
632,30989894.949988075
686,1.0
687,1.0
688,2.0
2,21, 1,21, 0,10, 0.00,10.00,Monday
250,3.0135926224218568
251,36100601.24893293
336,0.0
385,17.038006528299277
386,27.0484114802571
387,0.4769792374483587
388,0.0
425,0.0
450,0.0
451,0.0
452,2.827059204885533
453,0.0
490,0.0
515,0.0
516,0.0
542,0.0
592,5241404.10703412
632,30683508.55349184
686,1.0
687,1.0
688,2.0
2,21, 1,21, 0,10,10.00,20.00,Monday
250,3.4773780318446246
251,35855133.518246144
336,0.0
385,17.038006528299277
386,27.0484114802571
387,0.7680205316008963
388,0.0
425,0.0
450,0.0
451,0.0
452,3.581945780144931
453,0.0
490,0.0
515,0.0
516,0.0
542,0.0
592,5315291.857316207
632,30363290.03756327
686,1.0
687,1.0
688,2.0
2,21, 1,21, 0,10,20.00,30.00,Monday
250,3.9414578802269227
251,35608241.30665246
336,0.0
385,17.03800652829927
386,27.048411480257087
387,1.0484002384871403
388,0.0
425,0.0
450,0.0
451,0.0
452,4.270905086515043
453,0.0
490,0.0
515,0.0
516,0.0
542,0.0
592,5391793.298050374
632,30039991.724619836
686,0.9999999999999996
687,0.9999999999999996
688,1.9999999999999991
2,21, 1,21, 0,10,30.00,40.00,Monday
250,4.405711354543216
251,35361121.955288
336,0.0
385,17.038006528299285
386,27.04841148025711
387,1.3301585899443957
388,0.0
425,0.0
450,0.0
451,0.0
452,4.972730785152464
453,0.0
490,0.0
515,0.0
516,0.0
542,0.0
592,5471132.199313744
632,29713609.151526157
686,1.0000000000000004
687,1.0000000000000004
688,2.000000000000001
2,21, 1,21, 0,10,40.00,50.00,Monday
250,4.87020475443858
251,35113732.7020528
336,0.0
385,17.03800652829929
386,27.048411480257123
387,1.6202890753434493
388,0.0
425,0.0
450,0.0
451,0.0
452,5.736800105399766
453,0.0
490,0.0
515,0.0
516,0.0
542,0.0
592,5553542.375759333
632,29383899.594663285
686,1.0000000000000009
687,1.0000000000000009
688,2.0000000000000018
2,21, 1,21, 0,10,50.00,60.00,Monday
250,5.334711889971173
251,34866188.70558855
336,0.0
385,17.03800652829929
386,27.048411480257123
387,1.9205058943082407
388,0.0
425,0.0
450,0.0
451,0.0
452,6.565855864104107
453,0.0
490,0.0
515,0.0
516,0.0
542,0.0
592,5639267.778995938
632,29050681.63536206
686,1.0000000000000009
687,1.0000000000000009
688,2.0000000000000018
2,21, 1,21, 0,11, 0.00,10.00,Monday
250,5.6182182534386955
251,34715326.24310216
336,0.0
385,17.038006528299277
386,27.0484114802571
387,2.207008470090968
388,0.0
425,0.0
450,0.0
451,0.0
452,7.421070863116318
453,0.0
490,0.0
515,0.0
516,0.0
542,0.0
592,5689519.861596227
632,28817292.536856093
686,1.0
687,1.0
688,2.0
2,21, 1,21, 0,11,10.00,20.00,Monday
250,5.900962719850877
251,34564814.37689254
336,0.0
385,17.038006528299277
386,27.0484114802571
387,2.476773381844
388,0.0
425,0.0
450,0.0
451,0.0
452,8.27159045633228
453,0.0
490,0.0
515,0.0
516,0.0
542,0.0
592,5740969.350869596
632,28615208.139533617
686,1.0
687,1.0
688,2.0
2,21, 1,21, 0,11,20.00,30.00,Monday
250,6.183765463801956
251,34414222.073351786
336,0.0
385,17.03800652829927
386,27.048411480257087
387,2.74893003739594
388,0.0
425,0.0
450,0.0
451,0.0
452,9.118195566799137
453,0.0
490,0.0
515,0.0
516,0.0
542,0.0
592,5793671.095282218
632,28411941.064268716
686,0.9999999999999996
687,0.9999999999999996
688,1.9999999999999991
2,21, 1,21, 0,11,30.00,40.00,Monday
250,6.4662902453175874
251,34263726.72836646
336,0.0
385,17.038006528299285
386,27.04841148025711
387,3.0262617532146967
388,0.0
425,0.0
450,0.0
451,0.0
452,9.940050902849876
453,0.0
490,0.0
515,0.0
516,0.0
542,0.0
592,5847681.427966584
632,28207402.81467562
686,1.0000000000000004
687,1.0000000000000004
688,2.000000000000001
2,21, 1,21, 0,11,40.00,50.00,Monday
250,6.748694527347352
251,34113242.45218384
336,0.0
385,17.03800652829929
386,27.048411480257123
387,3.3053669399748005
388,0.0
425,0.0
450,0.0
451,0.0
452,10.685597640204971
453,0.0
490,0.0
515,0.0
516,0.0
542,0.0
592,5903058.082199926
632,28001538.120408244
686,1.0000000000000009
687,1.0000000000000009
688,2.0000000000000018
2,21, 1,21, 0,11,50.00,60.00,Monday
250,7.03093593325254
251,33962790.62597928
336,0.0
385,17.03800652829929
386,27.048411480257123
387,3.5823929953205735
388,0.0
425,0.0
450,0.0
451,0.0
452,11.321385356303951
453,0.0
490,0.0
515,0.0
516,0.0
542,0.0
592,5959860.237244541
632,27794273.23972228
686,1.0000000000000009
687,1.0000000000000009
688,2.0000000000000018
2,21, 1,21, 0,12, 0.00,10.00,Monday
250,7.297596818114406
251,33820669.7002736
336,0.0
385,17.038006528299277
386,27.0484114802571
387,3.822392865670298
388,0.0
425,0.0
450,0.0
451,0.0
452,11.820508360392552
453,0.0
490,0.0
515,0.0
516,0.0
542,0.0
592,5991096.197635708
632,27643483.157330964
686,1.0
687,1.0
688,2.0
2,21, 1,21, 0,12,10.00,20.00,Monday
250,7.562620149549847
251,33682907.490181625
336,0.0
385,17.038006528299277
386,27.0484114802571
387,4.11478215984798
388,0.0
425,0.0
450,0.0
451,0.0
452,12.384495088547311
453,0.0
490,0.0
515,0.0
516,0.0
542,0.0
592,7572016.881221027
632,25922944.147266462
686,1.0
687,1.0
688,2.0
2,21, 1,21, 0,12,20.00,30.00,Monday
250,7.828466723097258
251,33542986.854328245
336,0.0
385,17.038006528299277
386,27.0484114802571
387,4.38390127216516
388,0.0
425,0.0
450,0.0
451,0.0
452,12.899661627770918
453,0.0
490,0.0
515,0.0
516,0.0
542,0.0
592,7609409.155487608
632,25745841.684162885
686,1.0
687,1.0
688,2.0
2,21, 1,21, 0,12,30.00,40.00,Monday
250,8.094207373541126
251,33403124.84522327
336,0.0
385,17.038006528299277
386,27.0484114802571
387,4.642716316038134
388,0.0
425,0.0
450,0.0
451,0.0
452,13.391347191622216
453,0.0
490,0.0
515,0.0
516,0.0
542,0.0
592,7646583.592010484
632,25568776.57027336
686,1.0
687,1.0
688,2.0
2,21, 1,21, 0,12,40.00,50.00,Monday
250,8.35991158026495
251,33263282.16773045
336,0.0
385,17.038006528299277
386,27.0484114802571
387,4.8971439327158635
388,0.0
425,0.0
450,0.0
451,0.0
452,13.833303457790635
453,0.0
490,0.0
515,0.0
516,0.0
542,0.0
592,7683540.190789655
632,25391967.621011913
686,1.0
687,1.0
688,2.0
2,21, 1,21, 0,12,50.00,60.00,Monday
250,8.625604396115985
251,33123444.846640207
336,0.0
385,17.038006528299277
386,27.0484114802571
387,5.146091749649908
388,0.0
425,0.0
450,0.0
451,0.0
452,14.201091320337518
453,0.0
490,0.0
515,0.0
516,0.0
542,0.0
592,7720278.951825121
632,25215388.962691195
686,1.0
687,1.0
688,2.0
2,21, 1,21, 0,13, 0.00,10.00,Monday
250,8.808489314788808
251,33024848.08334373
336,0.0
385,17.038006528299277
386,27.0484114802571
387,5.37848048747897
388,0.0
425,0.0
450,0.0
451,0.0
452,14.492338204538546
453,0.0
490,0.0
515,0.0
516,0.0
542,0.0
592,7745410.487127082
632,25116865.46274941
686,1.0
687,1.0
688,2.0
2,21, 1,21, 0,13,10.00,20.00,Monday
250,8.990901979271513
251,32930442.857581314
336,0.0
385,17.038006528299277
386,27.0484114802571
387,5.597269870271476
388,0.0
425,0.0
450,0.0
451,0.0
452,14.721589557101746
453,0.0
490,0.0
515,0.0
516,0.0
542,0.0
592,7770439.060057999
632,24999571.943328902
686,1.0
687,1.0
688,2.0
2,21, 1,21, 0,13,20.00,30.00,Monday
250,9.173943150537633
251,32835819.671410955
336,0.0
385,17.038006528299277
386,27.0484114802571
387,5.802173871537705
388,0.0
425,0.0
450,0.0
451,0.0
452,14.904762238545398
453,0.0
490,0.0
515,0.0
516,0.0
542,0.0
592,7795364.67061786
632,24880374.956740852
686,1.0
687,1.0
688,2.0
2,21, 1,21, 0,13,30.00,40.00,Monday
250,9.35678745686477
251,32741331.945174113
336,0.0
385,17.038006528299277
386,27.0484114802571
387,5.99721217348736
388,0.0
425,0.0
450,0.0
451,0.0
452,15.05362805237893
453,0.0
490,0.0
515,0.0
516,0.0
542,0.0
592,7820187.318806681
632,24760971.02418892
686,1.0
687,1.0
688,2.0
2,21, 1,21, 0,13,40.00,50.00,Monday
250,9.539641214392862
251,32646872.68505753
336,0.0
385,17.038006528299277
386,27.0484114802571
387,6.186134950016679
388,0.0
425,0.0
450,0.0
451,0.0
452,15.172946444527415
453,0.0
490,0.0
515,0.0
516,0.0
542,0.0
592,7844907.00462445
632,24641810.075828098
686,1.0
687,1.0
688,2.0
2,21, 1,21, 0,13,50.00,60.00,Monday
250,9.722483673921587
251,32552452.660180926
336,0.0
385,17.038006528299277
386,27.0484114802571
387,6.370242456263966
388,0.0
425,0.0
450,0.0
451,0.0
452,15.266354272014837
453,0.0
490,0.0
515,0.0
516,0.0
542,0.0
592,7869523.72807117
632,24522780.29970601
686,1.0
687,1.0
688,2.0
2,21, 1,21, 0,14, 0.00,10.00,Monday
250,9.922381533421646
251,32448854.00364839
336,0.0
385,17.038006528299277
386,27.0484114802571
387,6.55237338701059
388,0.0
425,0.0
450,0.0
451,0.0
452,15.322452954612547
453,0.0
490,0.0
515,0.0
516,0.0
542,0.0
592,7896260.907308879
632,24401669.603650358
686,1.0
687,1.0
688,2.0
2,21, 1,21, 0,14,10.00,20.00,Monday
250,10.121819975590743
251,32345108.825249303
336,0.0
385,17.038006528299277
386,27.0484114802571
387,6.732659379008938
388,0.0
425,0.0
450,0.0
451,0.0
452,15.322923093568903
453,0.0
490,0.0
515,0.0
516,0.0
542,0.0
592,7922875.552815756
632,24271074.87972373
686,1.0
687,1.0
688,2.0
2,21, 1,21, 0,14,20.00,30.00,Monday
250,10.321112284530292
251,32241453.937193725
336,0.0
385,17.038006528299277
386,27.0484114802571
387,6.9089429562445686
388,0.0
425,0.0
450,0.0
451,0.0
452,15.26729705026597
453,0.0
490,0.0
515,0.0
516,0.0
542,0.0
592,7949367.664591796
632,24140862.296368852
686,1.0
687,1.0
688,2.0
2,21, 1,21, 0,14,30.00,40.00,Monday
250,10.520309230613877
251,32137876.043929867
336,0.0
385,17.038006528299277
386,27.0484114802571
387,7.075272383127388
388,0.0
425,0.0
450,0.0
451,0.0
452,15.14504961862754
453,0.0
490,0.0
515,0.0
516,0.0
542,0.0
592,7975737.242637003
632,24010876.828738358
686,1.0
687,1.0
688,2.0
2,21, 1,21, 0,14,40.00,50.00,Monday
250,10.719420744381761
251,32034366.1597248
336,0.0
385,17.038006528299277
386,27.0484114802571
387,7.2279540044624255
388,0.0
425,0.0
450,0.0
451,0.0
452,14.936460111303358
453,0.0
490,0.0
515,0.0
516,0.0
542,0.0
592,8001984.286951375
632,23881087.42147096
686,1.0
687,1.0
688,2.0
2,21, 1,21, 0,14,50.00,60.00,Monday
250,10.918473401607137
251,31930910.505912345
336,0.0
385,17.038006528299277
386,27.0484114802571
387,7.367277899881548
388,0.0
425,0.0
450,0.0
451,0.0
452,14.64456829041932
453,0.0
490,0.0
515,0.0
516,0.0
542,0.0
592,8028108.797534915
632,23751489.297305536
686,1.0
687,1.0
688,2.0
2,21, 1,21, 0,15, 0.00,10.00,Monday
250,11.183937940454921
251,31792313.202604856
336,0.0
385,17.038006528299277
386,27.0484114802571
387,7.48824715151766
388,0.0
425,0.0
450,0.0
451,0.0
452,14.349227625137353
453,0.0
490,0.0
515,0.0
516,0.0
542,0.0
592,8062750.870287225
632,23543367.624776788
686,1.0
687,1.0
688,2.0