Program Version,EnergyPlus, Version 24.1.0-9d7789a3ac, YMD=2024.06.19 21:17
1,5,Environment Title[],Latitude[deg],Longitude[deg],Time Zone[],Elevation[m]
2,8,Day of Simulation[],Month[],Day of Month[],DST Indicator[1=yes 0=no],Hour[],StartMinute[],EndMinute[],DayType
3,5,Cumulative Day of Simulation[],Month[],Day of Month[],DST Indicator[1=yes 0=no],DayType  ! When Daily Report Variables Requested
4,2,Cumulative Days of Simulation[],Month[]  ! When Monthly Report Variables Requested
5,1,Cumulative Days of Simulation[] ! When Run Period Report Variables Requested
6,1,Calendar Year of Simulation[] ! When Annual Report Variables Requested
250,1,LIVING ZONE,Zone Air Temperature [C] !TimeStep,REPORTSCH
251,1,LIVING ZONE,Zone Air System Sensible Heating Energy [J] !TimeStep,REPORTSCH
336,1,LIVING ZONE,Zone Air System Sensible Cooling Energy [J] !TimeStep,REPORTSCH
385,1,LIVING ZONE,Zone Thermostat Heating Setpoint Temperature [C] !TimeStep,REPORTSCH
386,1,LIVING ZONE,Zone Thermostat Cooling Setpoint Temperature [C] !TimeStep,REPORTSCH
387,1,GARAGE ZONE,Zone Air Temperature [C] !TimeStep,REPORTSCH
388,1,GARAGE ZONE,Zone Air System Sensible Heating Energy [J] !TimeStep,REPORTSCH
425,1,GARAGE ZONE,Zone Air System Sensible Cooling Energy [J] !TimeStep,REPORTSCH
450,1,GARAGE ZONE,Zone Thermostat Heating Setpoint Temperature [C] !TimeStep,REPORTSCH
451,1,GARAGE ZONE,Zone Thermostat Cooling Setpoint Temperature [C] !TimeStep,REPORTSCH
452,1,ATTIC ZONE,Zone Air Temperature [C] !TimeStep,REPORTSCH
453,1,ATTIC ZONE,Zone Air System Sensible Heating Energy [J] !TimeStep,REPORTSCH
490,1,ATTIC ZONE,Zone Air System Sensible Cooling Energy [J] !TimeStep,REPORTSCH
515,1,ATTIC ZONE,Zone Thermostat Heating Setpoint Temperature [C] !TimeStep,REPORTSCH
516,1,ATTIC ZONE,Zone Thermostat Cooling Setpoint Temperature [C] !TimeStep,REPORTSCH
542,1,ACDXCOIL 1,Cooling Coil Total Cooling Energy [J] !TimeStep,REPORTSCH
592,1,HEAT PUMP DX HEATING COIL 1,Heating Coil Heating Energy [J] !TimeStep,REPORTSCH
632,1,SUPP HEATING COIL 1,Heating Coil Heating Energy [J] !TimeStep,REPORTSCH
686,1,TWOSPEED HEAT PUMP 1,Unitary System DX Coil Cycling Ratio [] !TimeStep,REPORTSCH
687,1,TWOSPEED HEAT PUMP 1,Unitary System DX Coil Speed Ratio [] !TimeStep,REPORTSCH
688,1,TWOSPEED HEAT PUMP 1,Unitary System DX Coil Speed Level [] !TimeStep
End of Data Dictionary
1,CHICAGO_IL_USA ANNUAL HEATING 99% DESIGN CONDITIONS DB,  41.98, -87.92,  -6.00, 201.00
2,1, 1,21, 0, 1, 0.00,10.00,WinterDesignDay
250,21.323928769143706
251,15138742.932559766
336,0.0
385,21.711962617138916
386,27.652490777089525
387,-17.58117681022579
388,0.0
425,0.0
450,0.0
451,0.0
452,-18.25741369566757
453,0.0
490,0.0
515,0.0
516,0.0
542,0.0
592,0.0
632,15614484.90135761
686,1.0
687,1.0
688,2.0
2,1, 1,21, 0, 1,10.00,20.00,WinterDesignDay
250,21.677235385670468
251,16220935.842380643
336,0.0
385,21.711962617138916
386,27.652490777089525
387,-17.581175991252625
388,0.0
425,0.0
450,0.0
451,0.0
452,-18.257269618679153
453,0.0
490,0.0
515,0.0
516,0.0
542,0.0
592,0.0
632,16063568.870485276
686,1.0
687,1.0
688,2.0
2,1, 1,21, 0, 1,20.00,30.00,WinterDesignDay
250,20.727637437534675
251,15135465.294302288
336,0.0
385,21.045295950472266
386,27.652490777089547
387,-17.581282256730656
388,0.0
425,0.0
450,0.0
451,0.0
452,-18.25735257704236
453,0.0
490,0.0
515,0.0
516,0.0
542,0.0
592,0.0
632,14784688.58176946
686,1.0000000000000007
687,1.0000000000000007
688,2.0000000000000013
2,1, 1,21, 0, 1,30.00,40.00,WinterDesignDay
250,21.081124664345094
251,14133671.154214585
336,0.0
385,21.045295950472266
386,27.652490777089547
387,-17.58128544988471
388,0.0
425,0.0
450,0.0
451,0.0
452,-18.257472246025955
453,0.0
490,0.0
515,0.0
516,0.0
542,0.0
592,0.0
632,13736470.245556837
686,1.0000000000000009
687,1.0000000000000009
688,2.0000000000000018
2,1, 1,21, 0, 1,40.00,50.00,WinterDesignDay
250,21.323928769399267
251,15138742.97345417
336,0.0
385,21.711962617138916
386,27.652490777089525
387,-17.581181658318485
388,0.0
425,0.0
450,0.0
451,0.0
452,-18.257414170670078
453,0.0
490,0.0
515,0.0
516,0.0
542,0.0
592,0.0
632,15614484.942431284
686,1.0
687,1.0
688,2.0
2,1, 1,21, 0, 1,50.00,60.00,WinterDesignDay
250,21.677235385709526
251,16220935.883742029
336,0.0
385,21.711962617138916
386,27.652490777089525
387,-17.581180774125713
388,0.0
425,0.0
450,0.0
451,0.0
452,-18.25727008744767
453,0.0
490,0.0
515,0.0
516,0.0
542,0.0
592,0.0
632,16063568.911781855
686,1.0
687,1.0
688,2.0
2,1, 1,21, 0, 2, 0.00,10.00,WinterDesignDay
250,20.727637435689292
251,15135465.326124068
336,0.0
385,21.045295950472248
386,27.652490777089525
387,-17.58128698421683
388,0.0
425,0.0
450,0.0
451,0.0
452,-18.257353040403054
453,0.0
490,0.0
515,0.0
516,0.0
542,0.0
592,0.0
632,14784688.613111863
686,1.0
687,1.0
688,2.0
2,1, 1,21, 0, 2,10.00,20.00,WinterDesignDay
250,21.081124664251078
251,14133671.193209436
336,0.0
385,21.045295950472248
386,27.652490777089525
387,-17.581290118365835
388,0.0
425,0.0
450,0.0
451,0.0
452,-18.257472703439234
453,0.0
490,0.0
515,0.0
516,0.0
542,0.0
592,0.0
632,13736470.284868138
686,1.0
687,1.0
688,2.0
2,1, 1,21, 0, 2,20.00,30.00,WinterDesignDay
250,21.323928769641626
251,15138743.012235528
336,0.0
385,21.711962617138916
386,27.652490777089525
387,-17.581186255919512
388,0.0
425,0.0
450,0.0
451,0.0
452,-18.25741462113578
453,0.0
490,0.0
515,0.0
516,0.0
542,0.0
592,0.0
632,15614484.981382653
686,1.0
687,1.0
688,2.0
2,1, 1,21, 0, 2,30.00,40.00,WinterDesignDay
250,21.677235385746563
251,16220935.922966225
336,0.0
385,21.711962617138916
386,27.652490777089525
387,-17.581185309876837
388,0.0
425,0.0
450,0.0
451,0.0
452,-18.257270532001282
453,0.0
490,0.0
515,0.0
516,0.0
542,0.0
592,0.0
632,16063568.950944588
686,1.0
687,1.0
688,2.0
2,1, 1,21, 0, 2,40.00,50.00,WinterDesignDay
250,20.72763743393925
251,15135465.35630149
336,0.0
385,21.04529595047222
386,27.652490777089486
387,-17.58129146744304
388,0.0
425,0.0
450,0.0
451,0.0
452,-18.25735347982809
453,0.0
490,0.0
515,0.0
516,0.0
542,0.0
592,0.0
632,14784688.64283468
686,0.9999999999999986
687,0.9999999999999986
688,1.9999999999999971
2,1, 1,21, 0, 2,50.00,60.00,WinterDesignDay
250,21.08112466416195
251,14133671.230189346
336,0.0
385,21.045295950472266
386,27.652490777089547
387,-17.58129454563577
388,0.0
425,0.0
450,0.0
451,0.0
452,-18.257473137224043
453,0.0
490,0.0
515,0.0
516,0.0
542,0.0
592,0.0
632,13736470.322148142
686,1.0000000000000009
687,1.0000000000000009
688,2.0000000000000018
2,1, 1,21, 0, 3, 0.00,10.00,WinterDesignDay
250,21.323928769871465
251,15138743.04901302
336,0.0
385,21.711962617138916
386,27.652490777089525
387,-17.581190615971693
388,0.0
425,0.0
450,0.0
451,0.0
452,-18.257415048331787
453,0.0
490,0.0
515,0.0
516,0.0
542,0.0
592,0.0
632,15614485.018321369
686,1.0
687,1.0
688,2.0
2,1, 1,21, 0, 3,10.00,20.00,WinterDesignDay
250,21.677235385781696
251,16220935.960163593
336,0.0
385,21.711962617138916
386,27.652490777089525
387,-17.581189611274485
388,0.0
425,0.0
450,0.0
451,0.0
452,-18.25727095359051
453,0.0
490,0.0
515,0.0
516,0.0
542,0.0
592,0.0
632,16063568.988083668
686,1.0
687,1.0
688,2.0
2,1, 1,21, 0, 3,20.00,30.00,WinterDesignDay
250,20.727637432279703
251,15135465.384919701
336,0.0
385,21.045295950472266
386,27.652490777089547
387,-17.581295719028947
388,0.0
425,0.0
450,0.0
451,0.0
452,-18.257353896553635
453,0.0
490,0.0
515,0.0
516,0.0
542,0.0
592,0.0
632,14784688.671021774
686,1.0000000000000007
687,1.0000000000000007
688,2.0000000000000013
2,1, 1,21, 0, 3,30.00,40.00,WinterDesignDay
250,21.081124664077414
251,14133671.265258487
336,0.0
385,21.045295950472266
386,27.652490777089547
387,-17.581298744156204
388,0.0
425,0.0
450,0.0
451,0.0
452,-18.257473548600583
453,0.0
490,0.0
515,0.0
516,0.0
542,0.0
592,0.0
632,13736470.35750187
686,1.0000000000000009
687,1.0000000000000009
688,2.0000000000000018
2,1, 1,21, 0, 3,40.00,50.00,WinterDesignDay
250,21.323928770089424
251,15138743.083890118
336,0.0
385,21.711962617138916
386,27.652490777089525
387,-17.581194750747017
388,0.0
425,0.0
450,0.0
451,0.0
452,-18.257415453459824
453,0.0
490,0.0
515,0.0
516,0.0
542,0.0
592,0.0
632,15614485.053351358
686,1.0
687,1.0
688,2.0
2,1, 1,21, 0, 3,50.00,60.00,WinterDesignDay
250,21.67723538581501
251,16220935.995439041
336,0.0
385,21.711962617138916
386,27.652490777089525
387,-17.581193690425444
388,0.0
425,0.0
450,0.0
451,0.0
452,-18.257271353401315
453,0.0
490,0.0
515,0.0
516,0.0
542,0.0
592,0.0
632,16063569.023303842
686,1.0
687,1.0
688,2.0
2,1, 1,21, 0, 4, 0.00,10.00,WinterDesignDay
250,20.72763743070585
251,15135465.412059128
336,0.0
385,21.045295950472248
386,27.652490777089525
387,-17.581299750941504
388,0.0
425,0.0
450,0.0
451,0.0
452,-18.25735429175188
453,0.0
490,0.0
515,0.0
516,0.0
542,0.0
592,0.0
632,14784688.697752364
686,1.0
687,1.0
688,2.0
2,1, 1,21, 0, 4,10.00,20.00,WinterDesignDay
250,21.08112466399723
251,14133671.298515534
336,0.0
385,21.045295950472248
386,27.652490777089525
387,-17.581302725744955
388,0.0
425,0.0
450,0.0
451,0.0
452,-18.2574739387261
453,0.0
490,0.0
515,0.0
516,0.0
542,0.0
592,0.0
632,13736470.391028803
686,1.0
687,1.0
688,2.0
2,1, 1,21, 0, 4,20.00,30.00,WinterDesignDay
250,21.32392877029612
251,15138743.116965188
336,0.0
385,21.711962617138916
386,27.652490777089525
387,-17.58119867188445
388,0.0
425,0.0
450,0.0
451,0.0
452,-18.257415837659558
453,0.0
490,0.0
515,0.0
516,0.0
542,0.0
592,0.0
632,15614485.08657142
686,1.0
687,1.0
688,2.0
2,1, 1,21, 0, 4,30.00,40.00,WinterDesignDay
250,21.677235385846604
251,16220936.028891683
336,0.0
385,21.711962617138916
386,27.652490777089525
387,-17.581197558812775
388,0.0
425,0.0
450,0.0
451,0.0
452,-18.257271732558415
453,0.0
490,0.0
515,0.0
516,0.0
542,0.0
592,0.0
632,16063569.056704065
686,1.0
687,1.0
688,2.0
2,1, 1,21, 0, 4,40.00,50.00,WinterDesignDay
250,20.72763742921331
251,15135465.437796228
336,0.0
385,21.04529595047222
386,27.652490777089486
387,-17.581303574531642
388,0.0
425,0.0
450,0.0
451,0.0
452,-18.257354666534617
453,0.0
490,0.0
515,0.0
516,0.0
542,0.0
592,0.0
632,14784688.723101746
686,0.9999999999999986
687,0.9999999999999986
688,1.9999999999999971
2,1, 1,21, 0, 4,50.00,60.00,WinterDesignDay
250,21.08112466392122
251,14133671.330054183
336,0.0
385,21.045295950472266
386,27.652490777089547
387,-17.581306501611486
388,0.0
425,0.0
450,0.0
451,0.0
452,-18.257474308698153
453,0.0
490,0.0
515,0.0
516,0.0
542,0.0
592,0.0
632,13736470.42282339
686,1.0000000000000009
687,1.0000000000000009
688,2.0000000000000018
2,1, 1,21, 0, 5, 0.00,10.00,WinterDesignDay
250,21.323928770492135
251,15138743.148331165
336,0.0
385,21.711962617138916
386,27.652490777089525
387,-17.58120239042236
388,0.0
425,0.0
450,0.0
451,0.0
452,-18.257416202011875
453,0.0
490,0.0
515,0.0
516,0.0
542,0.0
592,0.0
632,15614485.118074898
686,1.0
687,1.0
688,2.0
2,1, 1,21, 0, 5,10.00,20.00,WinterDesignDay
250,21.67723538587656
251,16220936.060615819
336,0.0
385,21.711962617138916
386,27.652490777089525
387,-17.581201227325735
388,0.0
425,0.0
450,0.0
451,0.0
452,-18.25727209212853
453,0.0
490,0.0
515,0.0
516,0.0
542,0.0
592,0.0
632,16063569.088378493
686,1.0
687,1.0
688,2.0
2,1, 1,21, 0, 5,20.00,30.00,WinterDesignDay
250,20.727637427797962
251,15135465.462203423
336,0.0
385,21.045295950472266
386,27.652490777089547
387,-17.581307200561692
388,0.0
425,0.0
450,0.0
451,0.0
452,-18.25735502195635
453,0.0
490,0.0
515,0.0
516,0.0
542,0.0
592,0.0
632,14784688.74714126
686,1.0000000000000007
687,1.0000000000000007
688,2.0000000000000013
2,1, 1,21, 0, 5,30.00,40.00,WinterDesignDay
250,21.08112466384912
251,14133671.359963141
336,0.0
385,21.045295950472266
386,27.652490777089547
387,-17.58131008238307
388,0.0
425,0.0
450,0.0
451,0.0
452,-18.2574746595576
453,0.0
490,0.0
515,0.0
516,0.0
542,0.0
592,0.0
632,13736470.45297506
686,1.0000000000000009
687,1.0000000000000009
688,2.0000000000000018
2,1, 1,21, 0, 5,40.00,50.00,WinterDesignDay
250,21.323928770678023
251,15138743.178076461
336,0.0
385,21.711962617138916
386,27.652490777089525
387,-17.581205916827322
388,0.0
425,0.0
450,0.0
451,0.0
452,-18.25741654754184
453,0.0
490,0.0
515,0.0
516,0.0
542,0.0
592,0.0
632,15614485.147950588
686,1.0
687,1.0
688,2.0
2,1, 1,21, 0, 5,50.00,60.00,WinterDesignDay
250,21.67723538590497
251,16220936.09070069
336,0.0
385,21.711962617138916
386,27.652490777089525
387,-17.581204706290272
388,0.0
425,0.0
450,0.0
451,0.0
452,-18.257272433123276
453,0.0
490,0.0
515,0.0
516,0.0
542,0.0
592,0.0
632,16063569.118416224
686,1.0
687,1.0
688,2.0
2,1, 1,21, 0, 6, 0.00,10.00,WinterDesignDay
250,20.727637426455683
251,15135465.485349584
336,0.0
385,21.045295950472248
386,27.652490777089525
387,-17.581310639238332
388,0.0
425,0.0
450,0.0
451,0.0
452,-18.257355359016895
453,0.0
490,0.0
515,0.0
516,0.0
542,0.0
592,0.0
632,14784688.76993874
686,1.0
687,1.0
688,2.0
2,1, 1,21, 0, 6,10.00,20.00,WinterDesignDay
250,21.08112466378073
251,14133671.38832675
336,0.0
385,21.045295950472248
386,27.652490777089525
387,-17.58131347814008
388,0.0
425,0.0
450,0.0
451,0.0
452,-18.257474992291524
453,0.0
490,0.0
515,0.0
516,0.0
542,0.0
592,0.0
632,13736470.48156884
686,1.0
687,1.0
688,2.0
2,1, 1,21, 0, 6,20.00,30.00,WinterDesignDay
250,21.323928770854312
251,15138743.20628473
336,0.0
385,21.711962617138916
386,27.652490777089525
387,-17.581209261026675
388,0.0
425,0.0
450,0.0
451,0.0
452,-18.257416875221576
453,0.0
490,0.0
515,0.0
516,0.0
542,0.0
592,0.0
632,15614485.176282523
686,1.0
687,1.0
688,2.0
2,1, 1,21, 0, 6,30.00,40.00,WinterDesignDay
250,21.677235385931915
251,16220936.119231116
336,0.0
385,21.711962617138916
386,27.652490777089525
387,-17.581208005500464
388,0.0
425,0.0
450,0.0
451,0.0
452,-18.25727275650203
453,0.0
490,0.0
515,0.0
516,0.0
542,0.0
592,0.0
632,16063569.146901945
686,1.0
687,1.0
688,2.0
2,1, 1,21, 0, 6,40.00,50.00,WinterDesignDay
250,20.72763742518275
251,15135465.50729974
336,0.0
385,21.04529595047222
386,27.652490777089486
387,-17.58131390024205
388,0.0
425,0.0
450,0.0
451,0.0
452,-18.257355678664638
453,0.0
490,0.0
515,0.0
516,0.0
542,0.0
592,0.0
632,14784688.791558228
686,0.9999999999999986
687,0.9999999999999986
688,1.9999999999999971
2,1, 1,21, 0, 6,50.00,60.00,WinterDesignDay
250,21.081124663715908
251,14133671.415224703
336,0.0
385,21.045295950472266
386,27.652490777089547
387,-17.581316698441643
388,0.0
425,0.0
450,0.0
451,0.0
452,-18.257475307836167
453,0.0
490,0.0
515,0.0
516,0.0
542,0.0
592,0.0
632,13736470.508685077
686,1.0000000000000009
687,1.0000000000000009
688,2.0000000000000018
2,1, 1,21, 0, 7, 0.00,10.00,WinterDesignDay
250,21.323928771021485
251,15138743.233035509
336,0.0
385,21.711962617138916
386,27.652490777089525
387,-17.581212432434764
388,0.0
425,0.0
450,0.0
451,0.0
452,-18.257417185973058
453,0.0
490,0.0
515,0.0
516,0.0
542,0.0
592,0.0
632,15614485.203150567
686,1.0
687,1.0
688,2.0
2,1, 1,21, 0, 7,10.00,20.00,WinterDesignDay
250,21.677235385957466
251,16220936.14628731
336,0.0
385,21.711962617138916
386,27.652490777089525
387,-17.581211134243837
388,0.0
425,0.0
450,0.0
451,0.0
452,-18.257273063174665
453,0.0
490,0.0
515,0.0
516,0.0
542,0.0
592,0.0
632,16063569.17391574
686,1.0
687,1.0
688,2.0
2,1, 1,21, 0, 7,20.00,30.00,WinterDesignDay
250,20.727637423975658
251,15135465.528115649
336,0.0
385,21.045295950472266
386,27.652490777089547
387,-17.581316992752754
388,0.0
425,0.0
450,0.0
451,0.0
452,-18.257355981799034
453,0.0
490,0.0
515,0.0
516,0.0
542,0.0
592,0.0
632,14784688.812060555
686,1.0000000000000007
687,1.0000000000000007
688,2.0000000000000013
2,1, 1,21, 0, 7,30.00,40.00,WinterDesignDay
250,21.081124663654418
251,14133671.440732844
336,0.0
385,21.045295950472266
386,27.652490777089547
387,-17.581319752352805
388,0.0
425,0.0
450,0.0
451,0.0
452,-18.257475607079318
453,0.0
490,0.0
515,0.0
516,0.0
542,0.0
592,0.0
632,13736470.534400217
686,1.0000000000000009
687,1.0000000000000009
688,2.0000000000000018
2,1, 1,21, 0, 7,40.00,50.00,WinterDesignDay
250,21.323928771180025
251,15138743.258403972
336,0.0
385,21.711962617138916
386,27.652490777089525
387,-17.581215439978195
388,0.0
425,0.0
450,0.0
451,0.0
452,-18.257417480670647
453,0.0
490,0.0
515,0.0
516,0.0
542,0.0
592,0.0
632,15614485.228630241
686,1.0
687,1.0
688,2.0
2,1, 1,21, 0, 7,50.00,60.00,WinterDesignDay
250,21.677235385981696
251,16220936.17194545
336,0.0
385,21.711962617138916
386,27.652490777089525
387,-17.58121410132653
388,0.0
425,0.0
450,0.0
451,0.0
452,-18.257273354004077
453,0.0
490,0.0
515,0.0
516,0.0
542,0.0
592,0.0
632,16063569.199533677
686,1.0
687,1.0
688,2.0
2,1, 1,21, 0, 8, 0.00,10.00,WinterDesignDay
250,20.727637422830885
251,15135465.547855996
336,0.0
385,21.045295950472248
386,27.652490777089525
387,-17.581319925474816
388,0.0
425,0.0
450,0.0
451,0.0
452,-18.257356269272897
453,0.0
490,0.0
515,0.0
516,0.0
542,0.0
592,0.0
632,14784688.831503531
686,1.0
687,1.0
688,2.0
2,1, 1,21, 0, 8,10.00,20.00,WinterDesignDay
250,21.08112466359609
251,14133671.464923006
336,0.0
385,21.045295950472248
386,27.652490777089525
387,-17.581322648470074
388,0.0
425,0.0
450,0.0
451,0.0
452,-18.257475890862963
453,0.0
490,0.0
515,0.0
516,0.0
542,0.0
592,0.0
632,13736470.558786683
686,1.0
687,1.0
688,2.0
2,1, 1,21, 0, 8,20.00,30.00,WinterDesignDay
250,21.32392877133037
251,15138743.282461628
336,0.0
385,21.711962617138916
386,27.652490777089525
387,-17.58121829212385
388,0.0
425,0.0
450,0.0
451,0.0
452,-18.257417760143536
453,0.0
490,0.0
515,0.0
516,0.0
542,0.0
592,0.0
632,15614485.252793357
686,1.0
687,1.0
688,2.0
2,1, 1,21, 0, 8,30.00,40.00,WinterDesignDay
250,21.677235386004675
251,16220936.196277827
336,0.0
385,21.711962617138916
386,27.652490777089525
387,-17.581216915102253
388,0.0
425,0.0
450,0.0
451,0.0
452,-18.257273629808598
453,0.0
490,0.0
515,0.0
516,0.0
542,0.0
592,0.0
632,16063569.223827925
686,1.0
687,1.0
688,2.0
2,1, 1,21, 0, 8,40.00,50.00,WinterDesignDay
250,20.727637421745253
251,15135465.566576328
336,0.0
385,21.04529595047222
386,27.652490777089486
387,-17.581322706665294
388,0.0
425,0.0
450,0.0
451,0.0
452,-18.25735654189517
453,0.0
490,0.0
515,0.0
516,0.0
542,0.0
592,0.0
632,14784688.84994185
686,0.9999999999999986
687,0.9999999999999986
688,1.9999999999999971
2,1, 1,21, 0, 8,50.00,60.00,WinterDesignDay
250,21.081124663540812
251,14133671.487863138
336,0.0
385,21.045295950472266
386,27.652490777089547
387,-17.581325394946855
388,0.0
425,0.0
450,0.0
451,0.0
452,-18.257476159985686
453,0.0
490,0.0
515,0.0
516,0.0
542,0.0
592,0.0
632,13736470.581912978
686,1.0000000000000009
687,1.0000000000000009
688,2.0000000000000018
2,1, 1,21, 0, 9, 0.00,10.00,WinterDesignDay
250,21.32392877147295
251,15138743.305276304
336,0.0
385,21.711962617138916
386,27.652490777089525
387,-17.58122099690065
388,0.0
425,0.0
450,0.0
451,0.0
452,-18.25741802517814
453,0.0
490,0.0
515,0.0
516,0.0
542,0.0
592,0.0
632,15614485.275708051
686,1.0
687,1.0
688,2.0
2,1, 1,21, 0, 9,10.00,20.00,WinterDesignDay
250,21.677235386026467
251,16220936.219352938
336,0.0
385,21.711962617138916
386,27.652490777089525
387,-17.581219583491347
388,0.0
425,0.0
450,0.0
451,0.0
452,-18.257273891364303
453,0.0
490,0.0
515,0.0
516,0.0
542,0.0
592,0.0
632,16063569.24686688
686,1.0
687,1.0
688,2.0
2,1, 1,21, 0, 9,20.00,30.00,WinterDesignDay
250,20.727637420715787
251,15135465.584329303
336,0.0
385,21.045295950472266
386,27.652490777089547
387,-17.581325344152837
388,0.0
425,0.0
450,0.0
451,0.0
452,-18.257356800433076
453,0.0
490,0.0
515,0.0
516,0.0
542,0.0
592,0.0
632,14784688.867427384
686,1.0000000000000007
687,1.0000000000000007
688,2.0000000000000013
2,1, 1,21, 0, 9,30.00,40.00,WinterDesignDay
250,21.081124663488367
251,14133671.509617954
336,0.0
385,21.045295950472266
386,27.652490777089547
387,-17.58132799951412
388,0.0
425,0.0
450,0.0
451,0.0
452,-18.25747641520472
453,0.0
490,0.0
515,0.0
516,0.0
542,0.0
592,0.0
632,13736470.603844335
686,1.0000000000000009
687,1.0000000000000009
688,2.0000000000000018
2,1, 1,21, 0, 9,40.00,50.00,WinterDesignDay
250,21.323928771608156
251,15138743.326911962
336,0.0
385,21.711962617138916
386,27.652490777089525
387,-17.581223561922464
388,0.0
425,0.0
450,0.0
451,0.0
452,-18.25741827652024
453,0.0
490,0.0
515,0.0
516,0.0
542,0.0
592,0.0
632,15614485.297438553
686,1.0
687,1.0
688,2.0
2,1, 1,21, 0, 9,50.00,60.00,WinterDesignDay
250,21.67723538604713
251,16220936.241235739
336,0.0
385,21.711962617138916
386,27.652490777089525
387,-17.58122211400597
388,0.0
425,0.0
450,0.0
451,0.0
452,-18.257274139407208
453,0.0
490,0.0
515,0.0
516,0.0
542,0.0
592,0.0
632,16063569.26871539
686,1.0
687,1.0
688,2.0
2,1, 1,21, 0,10, 0.00,10.00,WinterDesignDay
250,20.727637419739455
251,15135465.601165015
336,0.0
385,21.045295950472248
386,27.652490777089525
387,-17.581327845362665
388,0.0
425,0.0
450,0.0
451,0.0
452,-18.257357045614008
453,0.0
490,0.0
515,0.0
516,0.0
542,0.0
592,0.0
632,14784688.88400948
686,1.0
687,1.0
688,2.0
2,1, 1,21, 0,10,10.00,20.00,WinterDesignDay
250,21.08112466343862
251,14133671.530248724
336,0.0
385,21.045295950472248
386,27.652490777089525
387,-17.581330469504792
388,0.0
425,0.0
450,0.0
451,0.0
452,-18.257476657238264
453,0.0
490,0.0
515,0.0
516,0.0
542,0.0
592,0.0
632,13736470.624642525
686,1.0
687,1.0
688,2.0
2,1, 1,21, 0,10,20.00,30.00,WinterDesignDay
250,21.323928771736384
251,15138743.34742979
336,0.0
385,21.711962617138916
386,27.652490777089525
387,-17.581225994410808
388,0.0
425,0.0
450,0.0
451,0.0
452,-18.257418514877145
453,0.0
490,0.0
515,0.0
516,0.0
542,0.0
592,0.0
632,15614485.318046328
686,1.0
687,1.0
688,2.0
2,1, 1,21, 0,10,30.00,40.00,WinterDesignDay
250,21.67723538606673
251,16220936.261987764
336,0.0
385,21.711962617138916
386,27.652490777089525
387,-17.581224513769463
388,0.0
425,0.0
450,0.0
451,0.0
452,-18.257274374635337
453,0.0
490,0.0
515,0.0
516,0.0
542,0.0
592,0.0
632,16063569.289434895
686,1.0
687,1.0
688,2.0
2,1, 1,21, 0,10,40.00,50.00,WinterDesignDay
250,20.727637418813558
251,15135465.617130868
336,0.0
385,21.04529595047222
386,27.652490777089486
387,-17.5813302173352
388,0.0
425,0.0
450,0.0
451,0.0
452,-18.25735727812797
453,0.0
490,0.0
515,0.0
516,0.0
542,0.0
592,0.0
632,14784688.899734817
686,0.9999999999999986
687,0.9999999999999986
688,1.9999999999999971
2,1, 1,21, 0,10,50.00,60.00,WinterDesignDay
250,21.08112466339147
251,14133671.549813433
336,0.0
385,21.045295950472266
386,27.652490777089547
387,-17.58133281187094
388,0.0
425,0.0
450,0.0
451,0.0
452,-18.257476886767463
453,0.0
490,0.0
515,0.0
516,0.0
542,0.0
592,0.0
632,13736470.644366
686,1.0000000000000009
687,1.0000000000000009
688,2.0000000000000018
2,1, 1,21, 0,11, 0.00,10.00,WinterDesignDay
250,21.323928771857982
251,15138743.36688739
336,0.0
385,21.711962617138916
386,27.652490777089525
387,-17.581228301212594
388,0.0
425,0.0
450,0.0
451,0.0
452,-18.257418740919597
453,0.0
490,0.0
515,0.0
516,0.0
542,0.0
592,0.0
632,15614485.337589227
686,1.0
687,1.0
688,2.0
2,1, 1,21, 0,11,10.00,20.00,WinterDesignDay
250,21.677235386085314
251,16220936.281667557
336,0.0
385,21.711962617138916
386,27.652490777089525
387,-17.58122678953762
388,0.0
425,0.0
450,0.0
451,0.0
452,-18.25727459771062
453,0.0
490,0.0
515,0.0
516,0.0
542,0.0
592,0.0
632,16063569.309083851
686,1.0
687,1.0
688,2.0
2,1, 1,21, 0,11,20.00,30.00,WinterDesignDay
250,20.72763741793558
251,15135465.63227164
336,0.0
385,21.045295950472266
386,27.652490777089547
387,-17.58133246674836
388,0.0
425,0.0
450,0.0
451,0.0
452,-18.257357498629347
453,0.0
490,0.0
515,0.0
516,0.0
542,0.0
592,0.0
632,14784688.9146475
686,1.0000000000000007
687,1.0000000000000007
688,2.0000000000000013
2,1, 1,21, 0,11,30.00,40.00,WinterDesignDay
250,21.08112466334675
251,14133671.56836721
336,0.0
385,21.045295950472266
386,27.652490777089547
387,-17.581335033207733
388,0.0
425,0.0
450,0.0
451,0.0
452,-18.2574771044382
453,0.0
490,0.0
515,0.0
516,0.0
542,0.0
592,0.0
632,13736470.663070343
686,1.0000000000000009
687,1.0000000000000009
688,2.0000000000000018
2,1, 1,21, 0,11,40.00,50.00,WinterDesignDay
250,21.323928771973293
251,15138743.38533963
336,0.0
385,21.711962617138916
386,27.652490777089525
387,-17.58123048882226
388,0.0
425,0.0
450,0.0
451,0.0
452,-18.257418955283715
453,0.0
490,0.0
515,0.0
516,0.0
542,0.0
592,0.0
632,15614485.356122356
686,1.0
687,1.0
688,2.0
2,1, 1,21, 0,11,50.00,60.00,WinterDesignDay
250,21.677235386102936
251,16220936.30033047
336,0.0
385,21.711962617138916
386,27.652490777089525
387,-17.58122894771702
388,0.0
425,0.0
450,0.0
451,0.0
452,-18.257274809260846
453,0.0
490,0.0
515,0.0
516,0.0
542,0.0
592,0.0
632,16063569.327717524
686,1.0
687,1.0
688,2.0
2,1, 1,21, 0,12, 0.00,10.00,WinterDesignDay
250,20.7276374171029
251,15135465.646630116
336,0.0
385,21.045295950472248
386,27.652490777089525
387,-17.581334599934664
388,0.0
425,0.0
450,0.0
451,0.0
452,-18.257357707738592
453,0.0
490,0.0
515,0.0
516,0.0
542,0.0
592,0.0
632,14784688.928789675
686,1.0
687,1.0
688,2.0
2,1, 1,21, 0,12,10.00,20.00,WinterDesignDay
250,21.081124663304315
251,14133671.58596228
336,0.0
385,21.045295950472248
386,27.652490777089525
387,-17.58133713976806
388,0.0
425,0.0
450,0.0
451,0.0
452,-18.257477310863038
453,0.0
490,0.0
515,0.0
516,0.0
542,0.0
592,0.0
632,13736470.680808198
686,1.0
687,1.0
688,2.0
2,1, 1,21, 0,12,20.00,30.00,WinterDesignDay
250,21.323928772082652
251,15138743.40283843
336,0.0
385,21.711962617138916
386,27.652490777089525
387,-17.581232563398174
388,0.0
425,0.0
450,0.0
451,0.0
452,-18.257419158572777
453,0.0
490,0.0
515,0.0
516,0.0
542,0.0
592,0.0
632,15614485.373697868
686,1.0
687,1.0
688,2.0
2,1, 1,21, 0,12,30.00,40.00,WinterDesignDay
250,21.677235386119655
251,16220936.318029076
336,0.0
385,21.711962617138916
386,27.652490777089525
387,-17.58123099438326
388,0.0
425,0.0
450,0.0
451,0.0
452,-18.257275009881376
453,0.0
490,0.0
515,0.0
516,0.0
542,0.0
592,0.0
632,16063569.3453884
686,1.0
687,1.0
688,2.0
2,1, 1,21, 0,12,40.00,50.00,WinterDesignDay
250,20.72763741631324
251,15135465.660246707
336,0.0
385,21.04529595047222
386,27.652490777089486
387,-17.581336622898835
388,0.0
425,0.0
450,0.0
451,0.0
452,-18.257357906044216
453,0.0
490,0.0
515,0.0
516,0.0
542,0.0
592,0.0
632,14784688.942201136
686,0.9999999999999986
687,0.9999999999999986
688,1.9999999999999971
2,1, 1,21, 0,12,50.00,60.00,WinterDesignDay
250,21.081124663264113
251,14133671.602648187
336,0.0
385,21.045295950472266
386,27.652490777089547
387,-17.581339137482146
388,0.0
425,0.0
450,0.0
451,0.0
452,-18.257477506622983
453,0.0
490,0.0
515,0.0
516,0.0
542,0.0
592,0.0
632,13736470.697629517
686,1.0000000000000009
687,1.0000000000000009
688,2.0000000000000018
2,1, 1,21, 0,13, 0.00,10.00,WinterDesignDay
250,21.32392877218636
251,15138743.419432981
336,0.0
385,21.711962617138916
386,27.652490777089525
387,-17.581234530780552
388,0.0
425,0.0
450,0.0
451,0.0
452,-18.2574193513589
453,0.0
490,0.0
515,0.0
516,0.0
542,0.0
592,0.0
632,15614485.390365161
686,1.0
687,1.0
688,2.0
2,1, 1,21, 0,13,10.00,20.00,WinterDesignDay
250,21.677235386135504
251,16220936.33481317
336,0.0
385,21.711962617138916
386,27.652490777089525
387,-17.581232935297933
388,0.0
425,0.0
450,0.0
451,0.0
452,-18.25727520013681
453,0.0
490,0.0
515,0.0
516,0.0
542,0.0
592,0.0
632,16063569.362146188
686,1.0
687,1.0
688,2.0
2,1, 1,21, 0,13,20.00,30.00,WinterDesignDay
250,20.72763741556445
251,15135465.673159674
336,0.0
385,21.045295950472266
386,27.652490777089547
387,-17.581338541336198
388,0.0
425,0.0
450,0.0
451,0.0
452,-18.257358094104383
453,0.0
490,0.0
515,0.0
516,0.0
542,0.0
592,0.0
632,14784688.95491958
686,1.0000000000000007
687,1.0000000000000007
688,2.0000000000000013
2,1, 1,21, 0,13,30.00,40.00,WinterDesignDay
250,21.081124663225964
251,14133671.618471958
336,0.0
385,21.045295950472266
386,27.652490777089547
387,-17.581341031974045
388,0.0
425,0.0
450,0.0
451,0.0
452,-18.257477692268907
453,0.0
490,0.0
515,0.0
516,0.0
542,0.0
592,0.0
632,13736470.713581696
686,1.0000000000000009
687,1.0000000000000009
688,2.0000000000000018
2,1, 1,21, 0,13,40.00,50.00,WinterDesignDay
250,21.323928772284702
251,15138743.435170166
336,0.0
385,21.711962617138916
386,27.652490777089525
387,-17.58123639650797
388,0.0
425,0.0
450,0.0
451,0.0
452,-18.257419534184642
453,0.0
490,0.0
515,0.0
516,0.0
542,0.0
592,0.0
632,15614485.406171335
686,1.0
687,1.0
688,2.0
2,1, 1,21, 0,13,50.00,60.00,WinterDesignDay
250,21.677235386150535
251,16220936.35072997
336,0.0
385,21.711962617138916
386,27.652490777089525
387,-17.58123477592536
388,0.0
425,0.0
450,0.0
451,0.0
452,-18.25727538056261
453,0.0
490,0.0
515,0.0
516,0.0
542,0.0
592,0.0
632,16063569.378038052
686,1.0
687,1.0
688,2.0
2,1, 1,21, 0,14, 0.00,10.00,WinterDesignDay
250,20.727637414854293
251,15135465.685405422
336,0.0
385,21.045295950472248
386,27.652490777089525
387,-17.5813403606478
388,0.0
425,0.0
450,0.0
451,0.0
452,-18.257358272448272
453,0.0
490,0.0
515,0.0
516,0.0
542,0.0
592,0.0
632,14784688.966980852
686,1.0
687,1.0
688,2.0
2,1, 1,21, 0,14,10.00,20.00,WinterDesignDay
250,21.081124663189776
251,14133671.633478073
336,0.0
385,21.045295950472248
386,27.652490777089525
387,-17.58134282857741
388,0.0
425,0.0
450,0.0
451,0.0
452,-18.257477868323303
453,0.0
490,0.0
515,0.0
516,0.0
542,0.0
592,0.0
632,13736470.728709586
686,1.0
687,1.0
688,2.0
2,1, 1,21, 0,14,20.00,30.00,WinterDesignDay
250,21.323928772377975
251,15138743.450094126
336,0.0
385,21.711962617138916
386,27.652490777089525
387,-17.581238165833128
388,0.0
425,0.0
450,0.0
451,0.0
452,-18.25741970756457
453,0.0
490,0.0
515,0.0
516,0.0
542,0.0
592,0.0
632,15614485.421160724
686,1.0
687,1.0
688,2.0
2,1, 1,21, 0,14,30.00,40.00,WinterDesignDay
250,21.67723538616479
251,16220936.3658243
336,0.0
385,21.711962617138916
386,27.652490777089525
387,-17.58123652144736
388,0.0
425,0.0
450,0.0
451,0.0
452,-18.25727555166656
453,0.0
490,0.0
515,0.0
516,0.0
542,0.0
592,0.0
632,16063569.393108726
686,1.0
687,1.0
688,2.0
2,1, 1,21, 0,14,40.00,50.00,WinterDesignDay
250,20.727637414180812
251,15135465.697018398
336,0.0
385,21.04529595047222
386,27.652490777089486
387,-17.581342085955455
388,0.0
425,0.0
450,0.0
451,0.0
452,-18.257358441577857
453,0.0
490,0.0
515,0.0
516,0.0
542,0.0
592,0.0
632,14784688.978418887
686,0.9999999999999986
687,0.9999999999999986
688,1.9999999999999971