Program Version,EnergyPlus, Version 24.2.0-94a887817b, YMD=2025.02.04 15:40
1,5,Environment Title[],Latitude[deg],Longitude[deg],Time Zone[],Elevation[m]
2,8,Day of Simulation[],Month[],Day of Month[],DST Indicator[1=yes 0=no],Hour[],StartMinute[],EndMinute[],DayType
3,5,Cumulative Day of Simulation[],Month[],Day of Month[],DST Indicator[1=yes 0=no],DayType  ! When Daily Meters Requested
4,2,Cumulative Days of Simulation[],Month[]  ! When Monthly Meters Requested
5,1,Cumulative Days of Simulation[] ! When Run Period Meters Requested
6,1,Calendar Year of Simulation[] ! When Annual Meters Requested
11,9,Electricity:Facility [J] !Monthly [Value,Min,Day,Hour,Minute,Max,Day,Hour,Minute]
23,9,Electricity:Building [J] !Monthly [Value,Min,Day,Hour,Minute,Max,Day,Hour,Minute]
59,9,InteriorLights:Electricity [J] !Monthly [Value,Min,Day,Hour,Minute,Max,Day,Hour,Minute]
521,9,Electricity:HVAC [J] !Monthly [Value,Min,Day,Hour,Minute,Max,Day,Hour,Minute]
637,9,NaturalGas:Facility [J] !Monthly [Value,Min,Day,Hour,Minute,Max,Day,Hour,Minute]
649,9,NaturalGas:HVAC [J] !Monthly [Value,Min,Day,Hour,Minute,Max,Day,Hour,Minute]
13,11,Electricity:Facility [J] !RunPeriod [Value,Min,Month,Day,Hour,Minute,Max,Month,Day,Hour,Minute]
25,11,Electricity:Building [J] !RunPeriod [Value,Min,Month,Day,Hour,Minute,Max,Month,Day,Hour,Minute]
61,11,InteriorLights:Electricity [J] !RunPeriod [Value,Min,Month,Day,Hour,Minute,Max,Month,Day,Hour,Minute]
523,11,Electricity:HVAC [J] !RunPeriod [Value,Min,Month,Day,Hour,Minute,Max,Month,Day,Hour,Minute]
639,11,NaturalGas:Facility [J] !RunPeriod [Value,Min,Month,Day,Hour,Minute,Max,Month,Day,Hour,Minute]
651,11,NaturalGas:HVAC [J] !RunPeriod [Value,Min,Month,Day,Hour,Minute,Max,Month,Day,Hour,Minute]
End of Data Dictionary
1,RUN PERIOD 1,  41.98, -87.92,  -6.00, 201.00
4,31, 1
11,9839681644.75784,408891.4285714286, 5, 6,50,2991525.0829168228,16,13,60
23,1000631543.5268282,30000.0, 1, 1,10,622051.8431353983, 1, 9,10
59,970200000.0,30000.0, 1, 1,10,600000.0, 1, 8,10
521,8839050101.230986,378891.4285714286, 5, 6,50,2369473.239781425,16,13,60
637,177983327790.10648,27764288.84212862,21,16,10,41250000.0, 1, 1,20
649,177983327790.10648,27764288.84212862,21,16,10,41250000.0, 1, 1,20
4,59, 2
11,9370998332.826332,99999999999999.0, 5, 6,50,3032986.523179945,22,15,30
23,874622211.7624631,99999999999999.0, 1, 1,10,-99999999999999.0, 1, 9,10
59,848160000.0,99999999999999.0, 1, 1,10,-99999999999999.0, 1, 8,10
521,8496376121.063895,99999999999999.0, 5, 6,50,2410934.680044547,22,15,30
637,157109918083.63803,26092749.858501222,23,12,10,-99999999999999.0, 1, 1,20
649,157109918083.63803,26092749.858501222,23,12,10,-99999999999999.0, 1, 1,20
4,90, 3
11,10964126643.939291,99999999999999.0, 5, 6,50,3207463.8152653347,27,13,50
23,926864252.2126137,99999999999999.0, 1, 1,10,703297.7313715442,26,16,10
59,897480000.0,99999999999999.0, 1, 1,10,-99999999999999.0, 1, 8,10
521,10037262391.726616,0.0,27,13,60,2585411.9721299363,27,13,50
637,160049758674.12335,0.0,27,13,60,-99999999999999.0, 1, 1,20
649,160049758674.12335,0.0,27,13,60,-99999999999999.0, 1, 1,20
4,120, 4
11,9412894057.35576,30000.0,11,19,10,3211346.523251163,24,10,50
23,961945960.5814546,99999999999999.0, 1, 1,10,-99999999999999.0,26,16,10
59,929520000.0,99999999999999.0, 1, 1,10,-99999999999999.0, 1, 8,10
521,8450948096.7742605,99999999999999.0,27,13,60,2589294.6801157645,24,10,50
637,117273200654.10724,99999999999999.0,27,13,60,-99999999999999.0, 1, 1,20
649,117273200654.10724,99999999999999.0,27,13,60,-99999999999999.0, 1, 1,20
4,151, 5
11,8628028003.572214,99999999999999.0,11,19,10,3222188.622378843,31, 8,10
23,1009667471.677764,99999999999999.0, 1, 1,10,-99999999999999.0,26,16,10
59,970200000.0,99999999999999.0, 1, 1,10,-99999999999999.0, 1, 8,10
521,7618360531.894231,99999999999999.0,27,13,60,2589549.830773691,31, 8,10
637,87620002358.17732,99999999999999.0,27,13,60,-99999999999999.0, 1, 1,20
649,87620002358.17732,99999999999999.0,27,13,60,-99999999999999.0, 1, 1,20
4,181, 6
11,6282100817.39272,99999999999999.0,11,19,10,3257480.9957736833,18,17,10
23,896468182.2173051,99999999999999.0, 1, 1,10,-99999999999999.0,26,16,10
59,856800000.0,99999999999999.0, 1, 1,10,-99999999999999.0, 1, 8,10
521,5385632635.175371,99999999999999.0,27,13,60,2594869.7876971224, 4, 3,50
637,38006702987.48442,99999999999999.0,27,13,60,-99999999999999.0, 1, 1,20
649,38006702987.48442,99999999999999.0,27,13,60,-99999999999999.0, 1, 1,20
4,212, 7
11,5793406238.466234,99999999999999.0,11,19,10,-99999999999999.0,18,17,10
23,1008089430.1888257,99999999999999.0, 1, 1,10,-99999999999999.0,26,16,10
59,970200000.0,99999999999999.0, 1, 1,10,-99999999999999.0, 1, 8,10
521,4785316808.27735,99999999999999.0,27,13,60,-99999999999999.0, 4, 3,50
637,11807962739.657038,99999999999999.0,27,13,60,-99999999999999.0, 1, 1,20
649,11807962739.657038,99999999999999.0,27,13,60,-99999999999999.0, 1, 1,20
4,243, 8
11,4954601345.624583,99999999999999.0,11,19,10,-99999999999999.0,18,17,10
23,977349418.7660811,99999999999999.0, 1, 1,10,704724.7789035378, 6,11,60
59,933840000.0,99999999999999.0, 1, 1,10,-99999999999999.0, 1, 8,10
521,3977251926.858478,99999999999999.0,27,13,60,-99999999999999.0, 4, 3,50
637,24073760627.605663,99999999999999.0,27,13,60,-99999999999999.0, 1, 1,20
649,24073760627.605663,99999999999999.0,27,13,60,-99999999999999.0, 1, 1,20
4,273, 9
11,6465770724.18704,99999999999999.0,11,19,10,3262323.1985479444,30,14,10
23,936924473.2010636,99999999999999.0, 1, 1,10,-99999999999999.0, 6,11,60
59,893160000.0,99999999999999.0, 1, 1,10,-99999999999999.0, 1, 8,10
521,5528846250.985937,99999999999999.0,27,13,60,2600237.677115444,22,11,60
637,56871684718.88143,99999999999999.0,27,13,60,-99999999999999.0, 1, 1,20
649,56871684718.88143,99999999999999.0,27,13,60,-99999999999999.0, 1, 1,20
4,304,10
11,10378967160.600805,99999999999999.0,11,19,10,-99999999999999.0,30,14,10
23,1004371112.8532425,99999999999999.0, 1, 1,10,-99999999999999.0, 6,11,60
59,970200000.0,99999999999999.0, 1, 1,10,-99999999999999.0, 1, 8,10
521,9374596047.747484,99999999999999.0,27,13,60,2607592.865880696,30,13,60
637,124576637050.44254,99999999999999.0,27,13,60,-99999999999999.0, 1, 1,20
649,124576637050.44254,99999999999999.0,27,13,60,-99999999999999.0, 1, 1,20
4,334,11
11,10405705868.80482,99999999999999.0,11,19,10,-99999999999999.0,30,14,10
23,923791635.205694,99999999999999.0, 1, 1,10,-99999999999999.0, 6,11,60
59,893160000.0,99999999999999.0, 1, 1,10,-99999999999999.0, 1, 8,10
521,9481914233.599104,99999999999999.0,27,13,60,-99999999999999.0,30,13,60
637,145290010287.22394,99999999999999.0,27,13,60,-99999999999999.0, 1, 1,20
649,145290010287.22394,99999999999999.0,27,13,60,-99999999999999.0, 1, 1,20
4,365,12
11,10451899053.322544,99999999999999.0,11,19,10,-99999999999999.0,30,14,10
23,962948432.9387064,99999999999999.0, 1, 1,10,-99999999999999.0, 6,11,60
59,933840000.0,99999999999999.0, 1, 1,10,-99999999999999.0, 1, 8,10
521,9488950620.383821,99999999999999.0,27,13,60,-99999999999999.0,30,13,60
637,178731191113.9206,99999999999999.0,27,13,60,-99999999999999.0, 1, 1,20
649,178731191113.9206,99999999999999.0,27,13,60,-99999999999999.0, 1, 1,20
5,365
13,102948179890.84634,30000.0, 4,11,19,10,3262323.1985479444, 9,30,14,10
25,11483674125.136206,30000.0, 1, 1, 1,10,704724.7789035378, 8, 6,11,60
61,11066760000.0,30000.0, 1, 1, 1,10,600000.0, 1, 1, 8,10
523,91464505765.72145,0.0, 3,27,13,60,2607592.865880696,10,30,13,60
639,1279394157085.368,0.0, 3,27,13,60,41250000.0, 1, 1, 1,20
651,1279394157085.368,0.0, 3,27,13,60,41250000.0, 1, 1, 1,20
1,RUN PERIOD 2,  41.98, -87.92,  -6.00, 201.00
4,1, 7
11,112063492.22028005,99999999999999.0,11,19,10,-99999999999999.0,30,14,10
23,42003110.588123925,99999999999999.0, 1, 1,10,-99999999999999.0, 6,11,60
59,40680000.0,99999999999999.0, 1, 1,10,-99999999999999.0, 1, 8,10
521,70060381.63215615,99999999999999.0,27,13,60,-99999999999999.0,30,13,60
637,0.0,99999999999999.0,27,13,60,-99999999999999.0, 1, 1,20
649,0.0,99999999999999.0,27,13,60,-99999999999999.0, 1, 1,20
5,1
13,112063492.22028005,99999999999999.0, 4,11,19,10,-99999999999999.0, 9,30,14,10
25,42003110.588123925,99999999999999.0, 1, 1, 1,10,-99999999999999.0, 8, 6,11,60
61,40680000.0,99999999999999.0, 1, 1, 1,10,-99999999999999.0, 1, 1, 8,10
523,70060381.63215615,99999999999999.0, 3,27,13,60,-99999999999999.0,10,30,13,60
639,0.0,99999999999999.0, 3,27,13,60,-99999999999999.0, 1, 1, 1,20
651,0.0,99999999999999.0, 3,27,13,60,-99999999999999.0, 1, 1, 1,20
End of Data
 Number of Records Written=          90
