Program Version,EnergyPlus, Version 24.2.0-94a887817b, YMD=2025.02.04 15:40
1,5,Environment Title[],Latitude[deg],Longitude[deg],Time Zone[],Elevation[m]
2,8,Day of Simulation[],Month[],Day of Month[],DST Indicator[1=yes 0=no],Hour[],StartMinute[],EndMinute[],DayType
3,5,Cumulative Day of Simulation[],Month[],Day of Month[],DST Indicator[1=yes 0=no],DayType  ! When Daily Report Variables Requested
4,2,Cumulative Days of Simulation[],Month[]  ! When Monthly Report Variables Requested
5,1,Cumulative Days of Simulation[] ! When Run Period Report Variables Requested
6,1,Calendar Year of Simulation[] ! When Annual Report Variables Requested
250,1,LIVING ZONE,Zone Air Temperature [C] !TimeStep,REPORTSCH
251,1,LIVING ZONE,Zone Air System Sensible Heating Energy [J] !TimeStep,REPORTSCH
336,1,LIVING ZONE,Zone Air System Sensible Cooling Energy [J] !TimeStep,REPORTSCH
385,1,LIVING ZONE,Zone Thermostat Heating Setpoint Temperature [C] !TimeStep,REPORTSCH
386,1,LIVING ZONE,Zone Thermostat Cooling Setpoint Temperature [C] !TimeStep,REPORTSCH
387,1,GARAGE ZONE,Zone Air Temperature [C] !TimeStep,REPORTSCH
388,1,GARAGE ZONE,Zone Air System Sensible Heating Energy [J] !TimeStep,REPORTSCH
425,1,GARAGE ZONE,Zone Air System Sensible Cooling Energy [J] !TimeStep,REPORTSCH
450,1,GARAGE ZONE,Zone Thermostat Heating Setpoint Temperature [C] !TimeStep,REPORTSCH
451,1,GARAGE ZONE,Zone Thermostat Cooling Setpoint Temperature [C] !TimeStep,REPORTSCH
452,1,ATTIC ZONE,Zone Air Temperature [C] !TimeStep,REPORTSCH
453,1,ATTIC ZONE,Zone Air System Sensible Heating Energy [J] !TimeStep,REPORTSCH
490,1,ATTIC ZONE,Zone Air System Sensible Cooling Energy [J] !TimeStep,REPORTSCH
515,1,ATTIC ZONE,Zone Thermostat Heating Setpoint Temperature [C] !TimeStep,REPORTSCH
516,1,ATTIC ZONE,Zone Thermostat Cooling Setpoint Temperature [C] !TimeStep,REPORTSCH
542,1,ACDXCOIL 1,Cooling Coil Total Cooling Energy [J] !TimeStep,REPORTSCH
592,1,HEAT PUMP DX HEATING COIL 1,Heating Coil Heating Energy [J] !TimeStep,REPORTSCH
632,1,SUPP HEATING COIL 1,Heating Coil Heating Energy [J] !TimeStep,REPORTSCH
686,1,TWOSPEED HEAT PUMP 1,Unitary System DX Coil Cycling Ratio [] !TimeStep,REPORTSCH
687,1,TWOSPEED HEAT PUMP 1,Unitary System DX Coil Speed Ratio [] !TimeStep,REPORTSCH
688,1,TWOSPEED HEAT PUMP 1,Unitary System DX Coil Speed Level [] !TimeStep,REPORTSCH
End of Data Dictionary
1,RUN PERIOD 1,  41.98, -87.92,  -6.00, 201.00
2,21, 1,21, 0, 1, 0.00,10.00,Monday
250,0.14523976771656025
251,37602133.87001918
336,0.0
385,20.12767296621422
386,26.893695256823154
387,-0.9264601494815442
388,0.0
425,0.0
450,0.0
451,0.0
452,-1.9523890530584378
453,0.0
490,0.0
515,0.0
516,0.0
542,0.0
592,4839743.985079641
632,32506130.71683437
686,1.0
687,1.0
688,2.0
2,21, 1,21, 0, 1,10.00,20.00,Monday
250,0.14527415730416704
251,37603667.50801654
336,0.0
385,20.12767296621422
386,26.893695256823154
387,-0.9348755214928537
388,0.0
425,0.0
450,0.0
451,0.0
452,-1.9343325022388742
453,0.0
490,0.0
515,0.0
516,0.0
542,0.0
592,4823801.676011793
632,32520992.915775932
686,1.0
687,1.0
688,2.0
2,21, 1,21, 0, 1,20.00,30.00,Monday
250,0.14485279915196325
251,37605555.342361815
336,0.0
385,20.12767296621422
386,26.893695256823154
387,-0.9445082889929882
388,0.0
425,0.0
450,0.0
451,0.0
452,-1.9312141241475604
453,0.0
490,0.0
515,0.0
516,0.0
542,0.0
592,4807858.162905219
632,32538578.918533556
686,1.0
687,1.0
688,2.0
2,21, 1,21, 0, 1,30.00,40.00,Monday
250,0.1445555547265587
251,37607342.626680486
336,0.0
385,20.12767296621422
386,26.893695256823154
387,-0.9555636418097397
388,0.0
425,0.0
450,0.0
451,0.0
452,-1.9440203732090746
453,0.0
490,0.0
515,0.0
516,0.0
542,0.0
592,4791913.445623511
632,32556377.728123255
686,1.0
687,1.0
688,2.0
2,21, 1,21, 0, 1,40.00,50.00,Monday
250,0.1442465549125536
251,37609140.31535678
336,0.0
385,20.12767296621422
386,26.893695256823154
387,-0.9681995470234525
388,0.0
425,0.0
450,0.0
451,0.0
452,-1.9711446644018713
453,0.0
490,0.0
515,0.0
516,0.0
542,0.0
592,4775967.524030239
632,32574115.002551567
686,1.0
687,1.0
688,2.0
2,21, 1,21, 0, 1,50.00,60.00,Monday
250,0.14393025212162835
251,37610943.90214593
336,0.0
385,20.12767296621422
386,26.893695256823154
387,-0.9826051753952645
388,0.0
425,0.0
450,0.0
451,0.0
452,-2.0110391170567596
453,0.0
490,0.0
515,0.0
516,0.0
542,0.0
592,4760020.397988956
632,32591861.776188962
686,1.0
687,1.0
688,2.0
2,21, 1,21, 0, 2, 0.00,10.00,Monday
250,0.14362993542874564
251,37612738.841364175
336,0.0
385,20.12767296621422
386,26.893695256823154
387,-0.9981084436579598
388,0.0
425,0.0
450,0.0
451,0.0
452,-2.0576754161249853
453,0.0
490,0.0
515,0.0
516,0.0
542,0.0
592,4760020.397988958
632,32593665.31540073
686,1.0
687,1.0
688,2.0
2,21, 1,21, 0, 2,10.00,20.00,Monday
250,0.14328873247581275
251,37613003.17873064
336,0.0
385,20.12767296621422
386,26.893695256823154
387,-1.0137780014594837
388,0.0
425,0.0
450,0.0
451,0.0
452,-2.100308800003921
453,0.0
490,0.0
515,0.0
516,0.0
542,0.0
592,4760020.397988958
632,32593907.63799991
686,1.0
687,1.0
688,2.0
2,21, 1,21, 0, 2,20.00,30.00,Monday
250,0.1429454174250372
251,37613159.71934034
336,0.0
385,20.12767296621422
386,26.893695256823154
387,-1.0290657076281644
388,0.0
425,0.0
450,0.0
451,0.0
452,-2.131721797811793
453,0.0
490,0.0
515,0.0
516,0.0
542,0.0
592,4760020.397988958
632,32594063.04153027
686,1.0
687,1.0
688,2.0
2,21, 1,21, 0, 2,30.00,40.00,Monday
250,0.1426103742094547
251,37613345.67954122
336,0.0
385,20.12767296621422
386,26.893695256823154
387,-1.0436509490176515
388,0.0
425,0.0
450,0.0
451,0.0
452,-2.1510984420094186
453,0.0
490,0.0
515,0.0
516,0.0
542,0.0
592,4760020.397988958
632,32594253.45551175
686,1.0
687,1.0
688,2.0
2,21, 1,21, 0, 2,40.00,50.00,Monday
250,0.1422805758844923
251,37613524.879392676
336,0.0
385,20.12767296621422
386,26.893695256823154
387,-1.0573922797909434
388,0.0
425,0.0
450,0.0
451,0.0
452,-2.1612535371570547
453,0.0
490,0.0
515,0.0
516,0.0
542,0.0
592,4760020.397988958
632,32594435.479364343
686,1.0
687,1.0
688,2.0
2,21, 1,21, 0, 2,50.00,60.00,Monday
250,0.1419568110670654
251,37613699.001302496
336,0.0
385,20.12767296621422
386,26.893695256823154
387,-1.0702510924097024
388,0.0
425,0.0
450,0.0
451,0.0
452,-2.1653215699109962
453,0.0
490,0.0
515,0.0
516,0.0
542,0.0
592,4760020.397988958
632,32594612.849899415
686,1.0
687,1.0
688,2.0
2,21, 1,21, 0, 3, 0.00,10.00,Monday
250,0.22065683274866252
251,37571324.48694991
336,0.0
385,20.12767296621422
386,26.893695256823154
387,-1.0718553242282116
388,0.0
425,0.0
450,0.0
451,0.0
452,-2.1579034788073415
453,0.0
490,0.0
515,0.0
516,0.0
542,0.0
592,4762558.894114006
632,32592248.653870117
686,1.0
687,1.0
688,2.0
2,21, 1,21, 0, 3,10.00,20.00,Monday
250,0.3035388541347516
251,37528168.66112008
336,0.0
385,20.12767296621422
386,26.893695256823154
387,-1.0609272328918211
388,0.0
425,0.0
450,0.0
451,0.0
452,-2.133033282955463
453,0.0
490,0.0
515,0.0
516,0.0
542,0.0
592,4764988.43573097
632,32548916.751041096
686,1.0
687,1.0
688,2.0
2,21, 1,21, 0, 3,20.00,30.00,Monday
250,0.3846735092152874
251,37486062.96771992
336,0.0
385,20.12767296621422
386,26.893695256823154
387,-1.0418996548608233
388,0.0
425,0.0
450,0.0
451,0.0
452,-2.089239178435565
453,0.0
490,0.0
515,0.0
516,0.0
542,0.0
592,4767308.250738335
632,32503552.213572577
686,1.0
687,1.0
688,2.0
2,21, 1,21, 0, 3,30.00,40.00,Monday
250,0.46616950171561683
251,37443737.390647925
336,0.0
385,20.12767296621422
386,26.893695256823154
387,-1.0185735793302824
388,0.0
425,0.0
450,0.0
451,0.0
452,-2.0296267083631956
453,0.0
490,0.0
515,0.0
516,0.0
542,0.0
592,4769517.689516207
632,32459213.59456406
686,1.0
687,1.0
688,2.0
2,21, 1,21, 0, 3,40.00,50.00,Monday
250,0.5477871233876214
251,37401356.600534886
336,0.0
385,20.12767296621422
386,26.893695256823154
387,-0.9922635586765964
388,0.0
425,0.0
450,0.0
451,0.0
452,-1.958670023008854
453,0.0
490,0.0
515,0.0
516,0.0
542,0.0
592,4771616.115684973
632,32414801.72022694
686,1.0
687,1.0
688,2.0
2,21, 1,21, 0, 3,50.00,60.00,Monday
250,0.6294608084174401
251,37358953.95052549
336,0.0
385,20.12767296621422
386,26.893695256823154
387,-0.9628012042674478
388,0.0
425,0.0
450,0.0
451,0.0
452,-1.879993943801476
453,0.0
490,0.0
515,0.0
516,0.0
542,0.0
592,4773602.736238396
632,32370444.50132487
686,1.0
687,1.0
688,2.0
2,21, 1,21, 0, 4, 0.00,10.00,Monday
250,0.632169847904529
251,37359085.36482617
336,0.0
385,20.12767296621422
386,26.893695256823154
387,-0.9406657159906029
388,0.0
425,0.0
450,0.0
451,0.0
452,-1.803876047069319
453,0.0
490,0.0
515,0.0
516,0.0
542,0.0
592,4773428.982371633
632,32328223.947731305
686,1.0
687,1.0
688,2.0
2,21, 1,21, 0, 4,10.00,20.00,Monday
250,0.630749646545165
251,37359965.21635625
336,0.0
385,20.12767296621422
386,26.893695256823154
387,-0.9284231921312209
388,0.0
425,0.0
450,0.0
451,0.0
452,-1.7393389822362177
453,0.0
490,0.0
515,0.0
516,0.0
542,0.0
592,4773255.169447958
632,32327053.745239407
686,1.0
687,1.0
688,2.0
2,21, 1,21, 0, 4,20.00,30.00,Monday
250,0.6311844166902709
251,37359742.22517685
336,0.0
385,20.12767296621422
386,26.893695256823154
387,-0.9225892682117567
388,0.0
425,0.0
450,0.0
451,0.0
452,-1.6900036266905487
453,0.0
490,0.0
515,0.0
516,0.0
542,0.0
592,4773081.297437258
632,32328003.65194145
686,1.0
687,1.0
688,2.0
2,21, 1,21, 0, 4,30.00,40.00,Monday
250,0.6313542956127023
251,37359694.128175996
336,0.0
385,20.12767296621422
386,26.893695256823154
387,-0.9194238942081341
388,0.0
425,0.0
450,0.0
451,0.0
452,-1.6542434873755503
453,0.0
490,0.0
515,0.0
516,0.0
542,0.0
592,4772907.3663094025
632,32327986.82455201
686,1.0
687,1.0
688,2.0
2,21, 1,21, 0, 4,40.00,50.00,Monday
250,0.6314362302176572
251,37359689.680529356
336,0.0
385,20.12767296621422
386,26.893695256823154
387,-0.9172881142056681
388,0.0
425,0.0
450,0.0
451,0.0
452,-1.628536260257011
453,0.0
490,0.0
515,0.0
516,0.0
542,0.0
592,4772733.376034233
632,32328109.003281225
686,1.0
687,1.0
688,2.0
2,21, 1,21, 0, 4,50.00,60.00,Monday
250,0.6315308894046682
251,37359676.65227705
336,0.0
385,20.12767296621422
386,26.893695256823154
387,-0.9159495219959506
388,0.0
425,0.0
450,0.0
451,0.0
452,-1.6096641347136564
453,0.0
490,0.0
515,0.0
516,0.0
542,0.0
592,4772559.326581575
632,32328276.877586275
686,1.0
687,1.0
688,2.0
2,21, 1,21, 0, 5, 0.00,10.00,Monday
250,0.6316228667209542
251,37359665.25009359
336,0.0
385,20.12767296621422
386,26.893695256823154
387,-0.9153950940619825
388,0.0
425,0.0
450,0.0
451,0.0
452,-1.5949047219537091
453,0.0
490,0.0
515,0.0
516,0.0
542,0.0
592,4759720.858689582
632,32341102.4989741
686,1.0
687,1.0
688,2.0
2,21, 1,21, 0, 5,10.00,20.00,Monday
250,0.6317520941764487
251,37360842.23853825
336,0.0
385,20.12767296621422
386,26.893695256823154
387,-0.9154919484451011
388,0.0
425,0.0
450,0.0
451,0.0
452,-1.58198684734492
453,0.0
490,0.0
515,0.0
516,0.0
542,0.0
592,4746877.262331866
632,32355143.147873152
686,1.0
687,1.0
688,2.0
2,21, 1,21, 0, 5,20.00,30.00,Monday
250,0.6318870073311611
251,37362101.51751011
336,0.0
385,20.12767296621422
386,26.893695256823154
387,-0.916040773018401
388,0.0
425,0.0
450,0.0
451,0.0
452,-1.569568693817777
453,0.0
490,0.0
515,0.0
516,0.0
542,0.0
592,4734028.534436013
632,32369254.21957549
686,1.0
687,1.0
688,2.0
2,21, 1,21, 0, 5,30.00,40.00,Monday
250,0.6320217406864435
251,37363335.0669923
336,0.0
385,20.12767296621422
386,26.893695256823154
387,-0.9168579678668458
388,0.0
425,0.0
450,0.0
451,0.0
452,-1.5572397275552383
453,0.0
490,0.0
515,0.0
516,0.0
542,0.0
592,4721174.671927155
632,32383341.537262317
686,1.0
687,1.0
688,2.0
2,21, 1,21, 0, 5,40.00,50.00,Monday
250,0.6321582953939061
251,37364571.21159078
336,0.0
385,20.12767296621422
386,26.893695256823154
387,-0.9178118228214125
388,0.0
425,0.0
450,0.0
451,0.0
452,-1.5450636113459038
453,0.0
490,0.0
515,0.0
516,0.0
542,0.0
592,4708315.671727969
632,32397437.66566421
686,1.0
687,1.0
688,2.0
2,21, 1,21, 0, 5,50.00,60.00,Monday
250,0.6322969852690044
251,37365808.14700724
336,0.0
385,20.12767296621422
386,26.893695256823154
387,-0.9188201519094789
388,0.0
425,0.0
450,0.0
451,0.0
452,-1.5331805305794282
453,0.0
490,0.0
515,0.0
516,0.0
542,0.0
592,4695451.530758674
632,32411539.89476761
686,1.0
687,1.0
688,2.0
2,21, 1,21, 0, 6, 0.00,10.00,Monday
250,0.6324435462306436
251,37367041.22186206
336,0.0
385,20.12767296621422
386,26.893695256823154
387,-0.9199648231106613
388,0.0
425,0.0
450,0.0
451,0.0
452,-1.5222713333660138
453,0.0
490,0.0
515,0.0
516,0.0
542,0.0
592,4695264.08225586
632,32412964.660759617
686,1.0
687,1.0
688,2.0
2,21, 1,21, 0, 6,10.00,20.00,Monday
250,0.6325545531687621
251,37367083.90466702
336,0.0
385,20.12767296621422
386,26.893695256823154
387,-0.9213264940013531
388,0.0
425,0.0
450,0.0
451,0.0
452,-1.5131503638236177
453,0.0
490,0.0
515,0.0
516,0.0
542,0.0
592,4695076.569900009
632,32413175.703778498
686,1.0
687,1.0
688,2.0
2,21, 1,21, 0, 6,20.00,30.00,Monday
250,0.6326630449646914
251,37367042.9816723
336,0.0
385,20.12767296621422
386,26.893695256823154
387,-0.9228989167897568
388,0.0
425,0.0
450,0.0
451,0.0
452,-1.506158340068117
453,0.0
490,0.0
515,0.0
516,0.0
542,0.0
592,4694888.993658494
632,32413321.00218762
686,1.0
687,1.0
688,2.0
2,21, 1,21, 0, 6,30.00,40.00,Monday
250,0.6327758862178805
251,37367026.10322966
336,0.0
385,20.12767296621422
386,26.893695256823154
387,-0.9246402549812952
388,0.0
425,0.0
450,0.0
451,0.0
452,-1.5010862844228816
453,0.0
490,0.0
515,0.0
516,0.0
542,0.0
592,4694701.353498662
632,32413494.10695729
686,1.0
687,1.0
688,2.0
2,21, 1,21, 0, 6,40.00,50.00,Monday
250,0.6328907612295537
251,37367005.080577925
336,0.0
385,20.12767296621422
386,26.893695256823154
387,-0.9265187031921028
388,0.0
425,0.0
450,0.0
451,0.0
452,-1.497479964027745
453,0.0
490,0.0
515,0.0
516,0.0
542,0.0
592,4694513.649387832
632,32413661.88403757
686,1.0
687,1.0
688,2.0
2,21, 1,21, 0, 6,50.00,60.00,Monday
250,0.6330083065880853
251,37366981.2075268
336,0.0
385,20.12767296621422
386,26.893695256823154
387,-0.9285170428429472
388,0.0
425,0.0
450,0.0
451,0.0
452,-1.4949174984241798
453,0.0
490,0.0
515,0.0
516,0.0
542,0.0
592,4694325.88129331
632,32413827.217622988
686,1.0
687,1.0
688,2.0
2,21, 1,21, 0, 7, 0.00,10.00,Monday
250,0.6302723921500272
251,37368494.60482285
336,0.0
385,20.12767296621422
386,26.893695256823154
387,-0.9330677171446893
388,0.0
425,0.0
450,0.0
451,0.0
452,-1.498256733030246
453,0.0
490,0.0
515,0.0
516,0.0
542,0.0
592,4723573.583255435
632,32384555.79444663
686,1.0
687,1.0
688,2.0
2,21, 1,21, 0, 7,10.00,20.00,Monday
250,0.6302874183218977
251,37365736.99249917
336,0.0
385,20.12767296621422
386,26.893695256823154
387,-0.9423410342100824
388,0.0
425,0.0
450,0.0
451,0.0
452,-1.5169525033085869
453,0.0
490,0.0
515,0.0
516,0.0
542,0.0
592,4752837.186047653
632,32354016.471671533
686,1.0
687,1.0
688,2.0
2,21, 1,21, 0, 7,20.00,30.00,Monday
250,0.6305128896899738
251,37362668.8416111
336,0.0
385,20.12767296621422
386,26.893695256823154
387,-0.9565601567159532
388,0.0
425,0.0
450,0.0
451,0.0
452,-1.556396051369685
453,0.0
490,0.0
515,0.0
516,0.0
542,0.0
592,4782116.702651945
632,32321782.15012167
686,1.0
687,1.0
688,2.0
2,21, 1,21, 0, 7,30.00,40.00,Monday
250,0.6306604580674444
251,37359701.889418006
336,0.0
385,20.12767296621422
386,26.893695256823154
387,-0.9747520606667693
388,0.0
425,0.0
450,0.0
451,0.0
452,-1.6142612215088872
453,0.0
490,0.0
515,0.0
516,0.0
542,0.0
592,4811412.146064443
632,32289477.789527424
686,1.0
687,1.0
688,2.0
2,21, 1,21, 0, 7,40.00,50.00,Monday
250,0.6308167389611747
251,37356721.6277071
336,0.0
385,20.12767296621422
386,26.893695256823154
387,-0.9958300691949576
388,0.0
425,0.0
450,0.0
451,0.0
452,-1.6842914302521335
453,0.0
490,0.0
515,0.0
516,0.0
542,0.0
592,4840723.52929546
632,32257190.83029257
686,1.0
687,1.0
688,2.0
2,21, 1,21, 0, 7,50.00,60.00,Monday
250,0.6309796552828189
251,37353732.95052764
336,0.0
385,20.12767296621422
386,26.893695256823154
387,-1.019051652210432
388,0.0
425,0.0
450,0.0
451,0.0
452,-1.7607675936025047
453,0.0
490,0.0
515,0.0
516,0.0
542,0.0
592,4870050.865369484
632,32224878.383539505
686,1.0
687,1.0
688,2.0
2,21, 1,21, 0, 8, 0.00,10.00,Monday
250,0.8322903540279752
251,37242437.67232386
336,0.0
385,20.12767296621422
386,26.893695256823154
387,-1.0151850306716685
388,0.0
425,0.0
450,0.0
451,0.0
452,-1.819802765266237
453,0.0
490,0.0
515,0.0
516,0.0
542,0.0
592,4889730.300311493
632,32202209.024391033
686,1.0
687,1.0
688,2.0
2,21, 1,21, 0, 8,10.00,20.00,Monday
250,1.0336971397565693
251,37136075.46392043
336,0.0
385,20.12767296621422
386,26.893695256823154
387,-0.9735246969669444
388,0.0
425,0.0
450,0.0
451,0.0
452,-1.811248347339327
453,0.0
490,0.0
515,0.0
516,0.0
542,0.0
592,4909380.719869504
632,32076254.215173498
686,1.0
687,1.0
688,2.0
2,21, 1,21, 0, 8,20.00,30.00,Monday
250,1.2292994507456692
251,37033186.85726171
336,0.0
385,20.12767296621422
386,26.893695256823154
387,-0.9021148073782412
388,0.0
425,0.0
450,0.0
451,0.0
452,-1.7042666635823969
453,0.0
490,0.0
515,0.0
516,0.0
542,0.0
592,4929009.6156952735
632,31950618.125661846
686,1.0
687,1.0
688,2.0
2,21, 1,21, 0, 8,30.00,40.00,Monday
250,1.426174759633463
251,36929503.677182235
336,0.0
385,20.12767296621422
386,26.893695256823154
387,-0.8109976776976896
388,0.0
425,0.0
450,0.0
451,0.0
452,-1.5097341442413736
453,0.0
490,0.0
515,0.0
516,0.0
542,0.0
592,4952863.646772657
632,31823773.12968144
686,1.0
687,1.0
688,2.0
2,21, 1,21, 0, 8,40.00,50.00,Monday
250,1.6236101814453814
251,36825139.254620165
336,0.0
385,20.12767296621422
386,26.893695256823154
387,-0.7085737169428054
388,0.0
425,0.0
450,0.0
451,0.0
452,-1.2330250815601307
453,0.0
490,0.0
515,0.0
516,0.0
542,0.0
592,4977062.298687914
632,31695517.360926647
686,1.0
687,1.0
688,2.0
2,21, 1,21, 0, 8,50.00,60.00,Monday
250,1.823027265843232
251,36720591.395012274
336,0.0
385,20.12767296621422
386,26.893695256823154
387,-0.6122820735274135
388,0.0
425,0.0
450,0.0
451,0.0
452,-0.9188980306298506
453,0.0
490,0.0
515,0.0
516,0.0
542,0.0
592,5001395.306277513
632,31516132.828156024
686,1.0
687,1.0
688,2.0
2,21, 1,21, 0, 9, 0.00,10.00,Monday
250,2.0863477002805304
251,36582621.279053316
336,0.0
385,20.12767296621422
386,26.893695256823154
387,-0.4734881654513683
388,0.0
425,0.0
450,0.0
451,0.0
452,-0.4386051046412076
453,0.0
490,0.0
515,0.0
516,0.0
542,0.0
592,5029363.153609448
632,31367367.30258516
686,1.0
687,1.0
688,2.0
2,21, 1,21, 0, 9,10.00,20.00,Monday
250,2.3491579297193024
251,36444050.47182579
336,0.0
385,20.12767296621422
386,26.893695256823154
387,-0.32228170949877866
388,0.0
425,0.0
450,0.0
451,0.0
452,0.08575479250032499
453,0.0
490,0.0
515,0.0
516,0.0
542,0.0
592,5057356.862312016
632,31200565.127122633
686,1.0
687,1.0
688,2.0
2,21, 1,21, 0, 9,20.00,30.00,Monday
250,2.612234921264738
251,36305322.66336815
336,0.0
385,20.12767296621422
386,26.893695256823154
387,-0.1623448537231132
388,0.0
425,0.0
450,0.0
451,0.0
452,0.6504550336225453
453,0.0
490,0.0
515,0.0
516,0.0
542,0.0
592,5085392.284952975
632,31033878.49308657
686,1.0
687,1.0
688,2.0
2,21, 1,21, 0, 9,30.00,40.00,Monday
250,2.8750821469441847
251,36166718.26040155
336,0.0
385,20.12767296621422
386,26.893695256823154
387,0.0072817762030510415
388,0.0
425,0.0
450,0.0
451,0.0
452,1.2451319453942988
453,0.0
490,0.0
515,0.0
516,0.0
542,0.0
592,5113485.892141593
632,30867117.988524433
686,1.0
687,1.0
688,2.0
2,21, 1,21, 0, 9,40.00,50.00,Monday
250,3.138931048119807
251,36026658.67301628
336,0.0
385,20.127672966214234
386,26.89369525682318
387,0.1522588488370151
388,0.0
425,0.0
450,0.0
451,0.0
452,1.7473974015615845
453,0.0
490,0.0
515,0.0
516,0.0
542,0.0
592,5141654.529350725
632,30673945.938639827
686,1.0000000000000009
687,1.0000000000000009
688,2.0000000000000018
2,21, 1,21, 0, 9,50.00,60.00,Monday
250,3.402443326601628
251,35887137.56179155
336,0.0
385,20.12767296621422
386,26.893695256823154
387,0.3043447954769426
388,0.0
425,0.0
450,0.0
451,0.0
452,2.288401693180236
453,0.0
490,0.0
515,0.0
516,0.0
542,0.0
592,5169915.672059795
632,30532129.90994189
686,1.0
687,1.0
688,2.0
2,21, 1,21, 0,10, 0.00,10.00,Monday
250,3.856294633341051
251,35646385.136411674
336,0.0
385,20.12767296621422
386,26.89369525682315
387,0.4947146501175099
388,0.0
425,0.0
450,0.0
451,0.0
452,2.848304956409672
453,0.0
490,0.0
515,0.0
516,0.0
542,0.0
592,5241404.10703412
632,30228532.32395911
686,1.0
687,1.0
688,2.0
2,21, 1,21, 0,10,10.00,20.00,Monday
250,4.3125091365507355
251,35404919.56576778
336,0.0
385,20.12767296621422
386,26.89369525682315
387,0.7858057217052388
388,0.0
425,0.0
450,0.0
451,0.0
452,3.6033228033737634
453,0.0
490,0.0
515,0.0
516,0.0
542,0.0
592,5315291.857316207
632,29912869.46089089
686,1.0
687,1.0
688,2.0
2,21, 1,21, 0,10,20.00,30.00,Monday
250,4.770129305497152
251,35161470.51670869
336,0.0
385,20.127672966214213
386,26.893695256823143
387,1.0663278400603533
388,0.0
425,0.0
450,0.0
451,0.0
452,4.292961742202577
453,0.0
490,0.0
515,0.0
516,0.0
542,0.0
592,5391793.298050372
632,29593215.851104084
686,0.9999999999999996
687,0.9999999999999996
688,1.9999999999999991
2,21, 1,21, 0,10,30.00,40.00,Monday
250,5.228418392007969
251,34917530.45810284
336,0.0
385,20.127672966214227
386,26.893695256823165
387,1.348202852170248
388,0.0
425,0.0
450,0.0
451,0.0
452,4.993966024557075
453,0.0
490,0.0
515,0.0
516,0.0
542,0.0
592,5471132.199313744
632,29270100.561568245
686,1.0000000000000004
687,1.0000000000000004
688,2.000000000000001
2,21, 1,21, 0,10,40.00,50.00,Monday
250,5.687590932462953
251,34672975.45508715
336,0.0
385,20.127672966214234
386,26.89369525682318
387,1.6384288041059198
388,0.0
425,0.0
450,0.0
451,0.0
452,5.757931484204017
453,0.0
490,0.0
515,0.0
516,0.0
542,0.0
592,5553542.3757593315
632,28943341.459980514
686,1.0000000000000009
687,1.0000000000000009
688,2.0000000000000018
2,21, 1,21, 0,10,50.00,60.00,Monday
250,6.146826977935512
251,34428240.94095602
336,0.0
385,20.127672966214234
386,26.89369525682318
387,1.9387287778298812
388,0.0
425,0.0
450,0.0
451,0.0
452,6.5872528501236705
453,0.0
490,0.0
515,0.0
516,0.0
542,0.0
592,5639267.778995938
632,28612940.96534364
686,1.0000000000000009
687,1.0000000000000009
688,2.0000000000000018
2,21, 1,21, 0,11, 0.00,10.00,Monday
250,6.430570518499286
251,34277251.12870163
336,0.0
385,20.12767296621422
386,26.89369525682315
387,2.225302911950939
388,0.0
425,0.0
450,0.0
451,0.0
452,7.442565430672757
453,0.0
490,0.0
515,0.0
516,0.0
542,0.0
592,5689519.861596227
632,28380016.85623514
686,1.0
687,1.0
688,2.0
2,21, 1,21, 0,11,10.00,20.00,Monday
250,6.712140460824122
251,34127347.15849566
336,0.0
385,20.12767296621422
386,26.89369525682315
387,2.4951083123068516
388,0.0
425,0.0
450,0.0
451,0.0
452,8.293207664460601
453,0.0
490,0.0
515,0.0
516,0.0
542,0.0
592,5740969.350869595
632,28178240.565730095
686,1.0
687,1.0
688,2.0
2,21, 1,21, 0,11,20.00,30.00,Monday
250,6.993749581824654
251,33977376.9187313
336,0.0
385,20.127672966214213
386,26.893695256823143
387,2.767281663845887
388,0.0
425,0.0
450,0.0
451,0.0
452,9.13994067222695
453,0.0
490,0.0
515,0.0
516,0.0
542,0.0
592,5793671.095282218
632,27975591.748557545
686,0.9999999999999996
687,0.9999999999999996
688,1.9999999999999991
2,21, 1,21, 0,11,30.00,40.00,Monday
250,7.274380100985007
251,33827881.04293787
336,0.0
385,20.127672966214227
386,26.893695256823165
387,3.044619249827376
388,0.0
425,0.0
450,0.0
451,0.0
452,9.962345464822134
453,0.0
490,0.0
515,0.0
516,0.0
542,0.0
592,5847681.427966584
632,27771925.1818078
686,1.0000000000000004
687,1.0000000000000004
688,2.000000000000001
2,21, 1,21, 0,11,40.00,50.00,Monday
250,7.554562584220952
251,33678573.508145615
336,0.0
385,20.127672966214234
386,26.89369525682318
387,3.3237203955032246
388,0.0
425,0.0
450,0.0
451,0.0
452,10.70772499022715
453,0.0
490,0.0
515,0.0
516,0.0
542,0.0
592,5903058.082199926
632,27567177.023396436
686,1.0000000000000009
687,1.0000000000000009
688,2.0000000000000018
2,21, 1,21, 0,11,50.00,60.00,Monday
250,7.834153122758579
251,33529530.526646007
336,0.0
385,20.127672966214234
386,26.89369525682318
387,3.6007329758105455
388,0.0
425,0.0
450,0.0
451,0.0
452,11.343104954373096
453,0.0
490,0.0
515,0.0
516,0.0
542,0.0
592,5959860.237244541
632,27361242.25888226
686,1.0000000000000009
687,1.0000000000000009
688,2.0000000000000018
2,21, 1,21, 0,12, 0.00,10.00,Monday
250,8.10034420599984
251,33387584.646062177
336,0.0
385,20.12767296621422
386,26.893695256823154
387,3.8406814860168565
388,0.0
425,0.0
450,0.0
451,0.0
452,11.842380557283331
453,0.0
490,0.0
515,0.0
516,0.0
542,0.0
592,5991096.197635709
632,27212180.711652547
686,1.0
687,1.0
688,2.0
2,21, 1,21, 0,12,10.00,20.00,Monday
250,8.361701157778427
251,33251698.681463897
336,0.0
385,20.12767296621422
386,26.893695256823154
387,4.133047171971123
388,0.0
425,0.0
450,0.0
451,0.0
452,12.406366024914494
453,0.0
490,0.0
515,0.0
516,0.0
542,0.0
592,7572016.881221028
632,25493114.684980202
686,1.0
687,1.0
688,2.0
2,21, 1,21, 0,12,20.00,30.00,Monday
250,8.625694176036713
251,33112730.573788986
336,0.0
385,20.12767296621422
386,26.893695256823154
387,4.402156508695473
388,0.0
425,0.0
450,0.0
451,0.0
452,12.922135083221235
453,0.0
490,0.0
515,0.0
516,0.0
542,0.0
592,7609409.155487607
632,25317396.762438126
686,1.0
687,1.0
688,2.0
2,21, 1,21, 0,12,30.00,40.00,Monday
250,8.88917771861933
251,32974041.1977845
336,0.0
385,20.12767296621422
386,26.893695256823154
387,4.660953169609531
388,0.0
425,0.0
450,0.0
451,0.0
452,13.413344923559112
453,0.0
490,0.0
515,0.0
516,0.0
542,0.0
592,7646583.592010483
632,25141396.59806204
686,1.0
687,1.0
688,2.0
2,21, 1,21, 0,12,40.00,50.00,Monday
250,9.1525355954653
251,32835418.99412953
336,0.0
385,20.12767296621422
386,26.893695256823154
387,4.915363364321653
388,0.0
425,0.0
450,0.0
451,0.0
452,13.854989241082965
453,0.0
490,0.0
515,0.0
516,0.0
542,0.0
592,7683540.190789655
632,24965782.723766692
686,1.0
687,1.0
688,2.0
2,21, 1,21, 0,12,50.00,60.00,Monday
250,9.415841182731183
251,32696824.210742116
336,0.0
385,20.12767296621422
386,26.893695256823154
387,5.164295759431722
388,0.0
425,0.0
450,0.0
451,0.0
452,14.222893761872283
453,0.0
490,0.0
515,0.0
516,0.0
542,0.0
592,7720278.951825123
632,24790435.299181163
686,1.0
687,1.0
688,2.0
2,21, 1,21, 0,13, 0.00,10.00,Monday
250,9.597650384942613
251,32599009.4843407
336,0.0
385,20.12767296621422
386,26.893695256823154
387,5.396661975741519
388,0.0
425,0.0
450,0.0
451,0.0
452,14.514187872975226
453,0.0
490,0.0
515,0.0
516,0.0
542,0.0
592,7745410.487127085
632,24685886.591941576
686,1.0
687,1.0
688,2.0
2,21, 1,21, 0,13,10.00,20.00,Monday
250,9.777978765524008
251,32505505.235260516
336,0.0
385,20.12767296621422
386,26.893695256823154
387,5.615412980904619
388,0.0
425,0.0
450,0.0
451,0.0
452,14.74338872252221
453,0.0
490,0.0
515,0.0
516,0.0
542,0.0
592,7770439.060057996
632,24573508.99411894
686,1.0
687,1.0
688,2.0
2,21, 1,21, 0,13,20.00,30.00,Monday
250,9.960316592068699
251,32411207.75863937
336,0.0
385,20.12767296621422
386,26.893695256823154
387,5.820274171540228
388,0.0
425,0.0
450,0.0
451,0.0
452,14.926519188151111
453,0.0
490,0.0
515,0.0
516,0.0
542,0.0
592,7795364.67061786
632,24455383.044210147
686,1.0
687,1.0
688,2.0
2,21, 1,21, 0,13,30.00,40.00,Monday
250,10.14221679737748
251,32317173.414569587
336,0.0
385,20.12767296621422
386,26.893695256823154
387,6.015265503041014
388,0.0
425,0.0
450,0.0
451,0.0
452,15.075434621737122
453,0.0
490,0.0
515,0.0
516,0.0
542,0.0
592,7820187.318806681
632,24336302.45512794
686,1.0
687,1.0
688,2.0
2,21, 1,21, 0,13,40.00,50.00,Monday
250,10.323964452056192
251,32223254.494024314
336,0.0
385,20.12767296621422
386,26.893695256823154
387,6.204135612549979
388,0.0
425,0.0
450,0.0
451,0.0
452,15.194696733312547
453,0.0
490,0.0
515,0.0
516,0.0
542,0.0
592,7844907.00462445
632,24217594.298005715
686,1.0
687,1.0
688,2.0
2,21, 1,21, 0,13,50.00,60.00,Monday
250,10.505664966505602
251,32129394.037103232
336,0.0
385,20.12767296621422
386,26.893695256823154
387,6.388185758819754
388,0.0
425,0.0
450,0.0
451,0.0
452,15.287979760462962
453,0.0
490,0.0
515,0.0
516,0.0
542,0.0
592,7869523.728071173
632,24099104.650287334
686,1.0
687,1.0
688,2.0
2,21, 1,21, 0,14, 0.00,10.00,Monday
250,10.705205679238647
251,32025930.47846143
336,0.0
385,20.12767296621422
386,26.893695256823154
387,6.570248820370277
388,0.0
425,0.0
450,0.0
451,0.0
452,15.343906610105705
453,0.0
490,0.0
515,0.0
516,0.0
542,0.0
592,7896260.907308879
632,23978552.814317755
686,1.0
687,1.0
688,2.0
2,21, 1,21, 0,14,10.00,20.00,Monday
250,10.903303508941217
251,31922877.95183409
336,0.0
385,20.12767296621422
386,26.893695256823154
387,6.75045407131758
388,0.0
425,0.0
450,0.0
451,0.0
452,15.3441723862699
453,0.0
490,0.0
515,0.0
516,0.0
542,0.0
592,7922875.552815756
632,23848119.53802521
686,1.0
687,1.0
688,2.0
2,21, 1,21, 0,14,20.00,30.00,Monday
250,11.100823258624661
251,31820123.557292517
336,0.0
385,20.12767296621422
386,26.893695256823154
387,6.92664778036327
388,0.0
425,0.0
450,0.0
451,0.0
452,15.288333562223851
453,0.0
490,0.0
515,0.0
516,0.0
542,0.0
592,7949367.664591796
632,23718573.983475048
686,1.0
687,1.0
688,2.0
2,21, 1,21, 0,14,30.00,40.00,Monday
250,11.298106943274984
251,31717526.546446435
336,0.0
385,20.12767296621422
386,26.893695256823154
387,7.092885605521577
388,0.0
425,0.0
450,0.0
451,0.0
452,15.16589013676755
453,0.0
490,0.0
515,0.0
516,0.0
542,0.0
592,7975737.242637001
632,23589493.253670365
686,1.0
687,1.0
688,2.0
2,21, 1,21, 0,14,40.00,50.00,Monday
250,11.495108593973722
251,31615103.19298482
336,0.0
385,20.12767296621422
386,26.893695256823154
387,7.245475713393217
388,0.0
425,0.0
450,0.0
451,0.0
452,14.957142333743962
453,0.0
490,0.0
515,0.0
516,0.0
542,0.0
592,8001984.286951372
632,23460684.003854055
686,1.0
687,1.0
688,2.0
2,21, 1,21, 0,14,50.00,60.00,Monday
250,11.691751678306177
251,31512895.264160644
336,0.0
385,20.12767296621422
386,26.893695256823154
387,7.384707188230495
388,0.0
425,0.0
450,0.0
451,0.0
452,14.665155659995525
453,0.0
490,0.0
515,0.0
516,0.0
542,0.0
592,8028108.797534915
632,23332171.475768596
686,1.0
687,1.0
688,2.0
2,21, 1,21, 0,15, 0.00,10.00,Monday
250,11.953379157534592
251,31376337.340581223
336,0.0
385,20.12767296621422
386,26.893695256823154
387,7.505588451113012
388,0.0
425,0.0
450,0.0
451,0.0
452,14.369565110553246
453,0.0