Program Version,EnergyPlus, Version 24.2.0-94a887817b, YMD=2025.01.22 00:03
1,5,Environment Title[],Latitude[deg],Longitude[deg],Time Zone[],Elevation[m]
2,8,Day of Simulation[],Month[],Day of Month[],DST Indicator[1=yes 0=no],Hour[],StartMinute[],EndMinute[],DayType
3,5,Cumulative Day of Simulation[],Month[],Day of Month[],DST Indicator[1=yes 0=no],DayType  ! When Daily Report Variables Requested
4,2,Cumulative Days of Simulation[],Month[]  ! When Monthly Report Variables Requested
5,1,Cumulative Days of Simulation[] ! When Run Period Report Variables Requested
6,1,Calendar Year of Simulation[] ! When Annual Report Variables Requested
250,1,LIVING ZONE,Zone Air Temperature [C] !TimeStep,REPORTSCH
251,1,LIVING ZONE,Zone Air System Sensible Heating Energy [J] !TimeStep,REPORTSCH
336,1,LIVING ZONE,Zone Air System Sensible Cooling Energy [J] !TimeStep,REPORTSCH
385,1,LIVING ZONE,Zone Thermostat Heating Setpoint Temperature [C] !TimeStep,REPORTSCH
386,1,LIVING ZONE,Zone Thermostat Cooling Setpoint Temperature [C] !TimeStep,REPORTSCH
387,1,GARAGE ZONE,Zone Air Temperature [C] !TimeStep,REPORTSCH
388,1,GARAGE ZONE,Zone Air System Sensible Heating Energy [J] !TimeStep,REPORTSCH
425,1,GARAGE ZONE,Zone Air System Sensible Cooling Energy [J] !TimeStep,REPORTSCH
450,1,GARAGE ZONE,Zone Thermostat Heating Setpoint Temperature [C] !TimeStep,REPORTSCH
451,1,GARAGE ZONE,Zone Thermostat Cooling Setpoint Temperature [C] !TimeStep,REPORTSCH
452,1,ATTIC ZONE,Zone Air Temperature [C] !TimeStep,REPORTSCH
453,1,ATTIC ZONE,Zone Air System Sensible Heating Energy [J] !TimeStep,REPORTSCH
490,1,ATTIC ZONE,Zone Air System Sensible Cooling Energy [J] !TimeStep,REPORTSCH
515,1,ATTIC ZONE,Zone Thermostat Heating Setpoint Temperature [C] !TimeStep,REPORTSCH
516,1,ATTIC ZONE,Zone Thermostat Cooling Setpoint Temperature [C] !TimeStep,REPORTSCH
542,1,ACDXCOIL 1,Cooling Coil Total Cooling Energy [J] !TimeStep,REPORTSCH
592,1,HEAT PUMP DX HEATING COIL 1,Heating Coil Heating Energy [J] !TimeStep,REPORTSCH
632,1,SUPP HEATING COIL 1,Heating Coil Heating Energy [J] !TimeStep,REPORTSCH
686,1,TWOSPEED HEAT PUMP 1,Unitary System DX Coil Cycling Ratio [] !TimeStep,REPORTSCH
687,1,TWOSPEED HEAT PUMP 1,Unitary System DX Coil Speed Ratio [] !TimeStep,REPORTSCH
688,1,TWOSPEED HEAT PUMP 1,Unitary System DX Coil Speed Level [] !TimeStep,REPORTSCH
End of Data Dictionary
1,RUN PERIOD 1,  41.98, -87.92,  -6.00, 201.00
2,21, 1,21, 0, 1, 0.00,10.00,Monday
250,-0.8630455624587393
251,38098170.43071204
336,0.0
385,18.72057660918839
386,27.056696883139495
387,-0.9482748070448116
388,0.0
425,0.0
450,0.0
451,0.0
452,-1.9757108837498019
453,0.0
490,0.0
515,0.0
516,0.0
542,0.0
592,4839743.9850796405
632,33000000.0
686,1.0
687,1.0
688,2.0
2,21, 1,21, 0, 1,10.00,20.00,Monday
250,-0.8631827659398975
251,38082766.96305039
336,0.0
385,18.72057660918839
386,27.056696883139495
387,-0.9566336053424602
388,0.0
425,0.0
450,0.0
451,0.0
452,-1.9575621666471088
453,0.0
490,0.0
515,0.0
516,0.0
542,0.0
592,4823801.676011795
632,33000000.0
686,1.0
687,1.0
688,2.0
2,21, 1,21, 0, 1,20.00,30.00,Monday
250,-0.8633531570316625
251,38066841.31927613
336,0.0
385,18.72057660918839
386,27.056696883139495
387,-0.9662285648728864
388,0.0
425,0.0
450,0.0
451,0.0
452,-1.9544843327457337
453,0.0
490,0.0
515,0.0
516,0.0
542,0.0
592,4807858.162905221
632,33000000.0
686,1.0
687,1.0
688,2.0
2,21, 1,21, 0, 1,30.00,40.00,Monday
250,-0.8635201810315979
251,38050894.79326489
336,0.0
385,18.72057660918839
386,27.056696883139495
387,-0.9772643983746462
388,0.0
425,0.0
450,0.0
451,0.0
452,-1.967360691186904
453,0.0
490,0.0
515,0.0
516,0.0
542,0.0
592,4791913.445623511
632,33000000.0
686,1.0
687,1.0
688,2.0
2,21, 1,21, 0, 1,40.00,50.00,Monday
250,-0.8636884134235728
251,38034949.526154235
336,0.0
385,18.72057660918839
386,27.056696883139495
387,-0.9898983598935447
388,0.0
425,0.0
450,0.0
451,0.0
452,-1.9945696835073397
453,0.0
490,0.0
515,0.0
516,0.0
542,0.0
592,4775967.524030239
632,33000000.0
686,1.0
687,1.0
688,2.0
2,21, 1,21, 0, 1,50.00,60.00,Monday
250,-0.8638571673664286
251,38019002.68485253
336,0.0
385,18.72057660918839
386,27.056696883139495
387,-1.0043192088481359
388,0.0
425,0.0
450,0.0
451,0.0
452,-2.034582735228401
453,0.0
490,0.0
515,0.0
516,0.0
542,0.0
592,4760020.397988958
632,33000000.0
686,1.0
687,1.0
688,2.0
2,21, 1,21, 0, 2, 0.00,10.00,Monday
250,-0.8639266767261058
251,38018949.25250639
336,0.0
385,18.72057660918839
386,27.056696883139495
387,-1.019843990698356
388,0.0
425,0.0
450,0.0
451,0.0
452,-2.081353620669952
453,0.0
490,0.0
515,0.0
516,0.0
542,0.0
592,4760020.397988958
632,33000000.0
686,1.0
687,1.0
688,2.0
2,21, 1,21, 0, 2,10.00,20.00,Monday
250,-0.863993997157584
251,38018948.0739362
336,0.0
385,18.72057660918839
386,27.056696883139495
387,-1.035529199571728
388,0.0
425,0.0
450,0.0
451,0.0
452,-2.1240902310942467
453,0.0
490,0.0
515,0.0
516,0.0
542,0.0
592,4760020.397988958
632,33000000.0
686,1.0
687,1.0
688,2.0
2,21, 1,21, 0, 2,20.00,30.00,Monday
250,-0.8640610856211713
251,38018947.94903146
336,0.0
385,18.72057660918839
386,27.056696883139495
387,-1.0508208514731792
388,0.0
425,0.0
450,0.0
451,0.0
452,-2.155562280308552
453,0.0
490,0.0
515,0.0
516,0.0
542,0.0
592,4760020.397988958
632,33000000.0
686,1.0
687,1.0
688,2.0
2,21, 1,21, 0, 2,30.00,40.00,Monday
250,-0.8641268896201396
251,38018947.25743823
336,0.0
385,18.72057660918839
386,27.056696883139495
387,-1.0653975299903669
388,0.0
425,0.0
450,0.0
451,0.0
452,-2.174945823442561
453,0.0
490,0.0
515,0.0
516,0.0
542,0.0
592,4760020.397988958
632,33000000.0
686,1.0
687,1.0
688,2.0
2,21, 1,21, 0, 2,40.00,50.00,Monday
250,-0.8641917130553088
251,38018946.729472876
336,0.0
385,18.72057660918839
386,27.056696883139495
387,-1.0791188330183388
388,0.0
425,0.0
450,0.0
451,0.0
452,-2.1850862857211903
453,0.0
490,0.0
515,0.0
516,0.0
542,0.0
592,4760020.397988958
632,33000000.0
686,1.0
687,1.0
688,2.0
2,21, 1,21, 0, 2,50.00,60.00,Monday
250,-0.8642553873319895
251,38018946.11073093
336,0.0
385,18.72057660918839
386,27.056696883139495
387,-1.0919474307057637
388,0.0
425,0.0
450,0.0
451,0.0
452,-2.1891324886557633
453,0.0
490,0.0
515,0.0
516,0.0
542,0.0
592,4760020.397988958
632,33000000.0
686,1.0
687,1.0
688,2.0
2,21, 1,21, 0, 3, 0.00,10.00,Monday
250,-0.78182666563318
251,37977068.18755588
336,0.0
385,18.72057660918839
386,27.056696883139495
387,-1.093493312836151
388,0.0
425,0.0
450,0.0
451,0.0
452,-2.181651188584638
453,0.0
490,0.0
515,0.0
516,0.0
542,0.0
592,4762558.894114006
632,33000000.0
686,1.0
687,1.0
688,2.0
2,21, 1,21, 0, 3,10.00,20.00,Monday
250,-0.6982903390864383
251,37978899.52487903
336,0.0
385,18.72057660918839
386,27.056696883139495
387,-1.0824418980611472
388,0.0
425,0.0
450,0.0
451,0.0
452,-2.1566665490615833
453,0.0
490,0.0
515,0.0
516,0.0
542,0.0
592,4764988.4357309695
632,33000000.0
686,1.0
687,1.0
688,2.0
2,21, 1,21, 0, 3,20.00,30.00,Monday
250,-0.6151443561524507
251,37981427.65689316
336,0.0
385,18.72057660918839
386,27.056696883139495
387,-1.0631997947476288
388,0.0
425,0.0
450,0.0
451,0.0
452,-2.112731187304488
453,0.0
490,0.0
515,0.0
516,0.0
542,0.0
592,4767308.250738335
632,33000000.0
686,1.0
687,1.0
688,2.0
2,21, 1,21, 0, 3,30.00,40.00,Monday
250,-0.5319133183698836
251,37981247.13631674
336,0.0
385,18.72057660918839
386,27.056696883139495
387,-1.039561579050291
388,0.0
425,0.0
450,0.0
451,0.0
452,-2.0529787459638182
453,0.0
490,0.0
515,0.0
516,0.0
542,0.0
592,4769517.689516207
632,32997657.710006956
686,1.0
687,1.0
688,2.0
2,21, 1,21, 0, 3,40.00,50.00,Monday
250,-0.4489227855965651
251,37938151.28808586
336,0.0
385,18.72057660918839
386,27.056696883139495
387,-1.0128308327938798
388,0.0
425,0.0
450,0.0
451,0.0
452,-1.9818942159284216
453,0.0
490,0.0
515,0.0
516,0.0
542,0.0
592,4771616.115684973
632,32952335.802463423
686,1.0
687,1.0
688,2.0
2,21, 1,21, 0, 3,50.00,60.00,Monday
250,-0.36592220783950546
251,37895056.815880544
336,0.0
385,18.72057660918839
386,27.056696883139495
387,-0.9827447009410328
388,0.0
425,0.0
450,0.0
451,0.0
452,-1.9030956378221895
453,0.0
490,0.0
515,0.0
516,0.0
542,0.0
592,4773602.736238394
632,32907262.009953063
686,1.0
687,1.0
688,2.0
2,21, 1,21, 0, 4, 0.00,10.00,Monday
250,-0.3653809386384647
251,37896378.8053927
336,0.0
385,18.72057660918839
386,27.056696883139495
387,-0.9600128289761767
388,0.0
425,0.0
450,0.0
451,0.0
452,-1.8268720497163025
453,0.0
490,0.0
515,0.0
516,0.0
542,0.0
592,4773428.98237163
632,32864349.90346167
686,1.0
687,1.0
688,2.0
2,21, 1,21, 0, 4,10.00,20.00,Monday
250,-0.3656797712165715
251,37896593.544428855
336,0.0
385,18.72057660918839
386,27.056696883139495
387,-0.9474356733357577
388,0.0
425,0.0
450,0.0
451,0.0
452,-1.7622641478969767
453,0.0
490,0.0
515,0.0
516,0.0
542,0.0
592,4773255.169447958
632,32864286.00521218
686,1.0
687,1.0
688,2.0
2,21, 1,21, 0, 4,20.00,30.00,Monday
250,-0.3655661933120823
251,37896564.85068068
336,0.0
385,18.72057660918839
386,27.056696883139495
387,-0.9414701627432348
388,0.0
425,0.0
450,0.0
451,0.0
452,-1.7128757241019261
453,0.0
490,0.0
515,0.0
516,0.0
542,0.0
592,4773081.297437258
632,32864653.29397192
686,1.0
687,1.0
688,2.0
2,21, 1,21, 0, 4,30.00,40.00,Monday
250,-0.36554085696179567
251,37896591.53008934
336,0.0
385,18.72057660918839
386,27.056696883139495
387,-0.9382328883967335
388,0.0
425,0.0
450,0.0
451,0.0
452,-1.677045906937752
453,0.0
490,0.0
515,0.0
516,0.0
542,0.0
592,4772907.366309401
632,32864806.380542655
686,1.0
687,1.0
688,2.0
2,21, 1,21, 0, 4,40.00,50.00,Monday
250,-0.36552041130266766
251,37896619.27115012
336,0.0
385,18.72057660918839
386,27.056696883139495
387,-0.9359413054907857
388,0.0
425,0.0
450,0.0
451,0.0
452,-1.6511035922692086
453,0.0
490,0.0
515,0.0
516,0.0
542,0.0
592,4772733.376034233
632,32865005.477922685
686,1.0
687,1.0
688,2.0
2,21, 1,21, 0, 4,50.00,60.00,Monday
250,-0.36549965102775894
251,37896646.768774904
336,0.0
385,18.72057660918839
386,27.056696883139495
387,-0.9344238217759703
388,0.0
425,0.0
450,0.0
451,0.0
452,-1.6319911970886938
453,0.0
490,0.0
515,0.0
516,0.0
542,0.0
592,4772559.326581574
632,32865207.19445354
686,1.0
687,1.0
688,2.0
2,21, 1,21, 0, 5, 0.00,10.00,Monday
250,-0.3654801684131152
251,37896674.983728655
336,0.0
385,18.72057660918839
386,27.056696883139495
387,-0.9337398858091082
388,0.0
425,0.0
450,0.0
451,0.0
452,-1.6170935411681342
453,0.0
490,0.0
515,0.0
516,0.0
542,0.0
592,4759720.858689582
632,32878073.189202342
686,1.0
687,1.0
688,2.0
2,21, 1,21, 0, 5,10.00,20.00,Monday
250,-0.3654532349198311
251,37897976.33833146
336,0.0
385,18.72057660918839
386,27.056696883139495
387,-0.933754188839599
388,0.0
425,0.0
450,0.0
451,0.0
452,-1.6040996761132609
453,0.0
490,0.0
515,0.0
516,0.0
542,0.0
592,4746877.262331866
632,32892222.153479703
686,1.0
687,1.0
688,2.0
2,21, 1,21, 0, 5,20.00,30.00,Monday
250,-0.3654262824937103
251,37899295.64518744
336,0.0
385,18.72057660918839
386,27.056696883139495
387,-0.9342364529956354
388,0.0
425,0.0
450,0.0
451,0.0
452,-1.591608123102071
453,0.0
490,0.0
515,0.0
516,0.0
542,0.0
592,4734028.534436013
632,32906390.19893943
686,1.0
687,1.0
688,2.0
2,21, 1,21, 0, 5,30.00,40.00,Monday
250,-0.36539947495316605
251,37900609.153618045
336,0.0
385,18.72057660918839
386,27.056696883139495
387,-0.9349823944938522
388,0.0
425,0.0
450,0.0
451,0.0
452,-1.5791861136052705
453,0.0
490,0.0
515,0.0
516,0.0
542,0.0
592,4721174.671927155
632,32920557.49234846
686,1.0
687,1.0
688,2.0
2,21, 1,21, 0, 5,40.00,50.00,Monday
250,-0.36537262727128134
251,37901924.46728716
336,0.0
385,18.72057660918839
386,27.056696883139495
387,-0.9358558693035317
388,0.0
425,0.0
450,0.0
451,0.0
452,-1.5669030253003737
453,0.0
490,0.0
515,0.0
516,0.0
542,0.0
592,4708315.671727969
632,32934731.82834528
686,1.0
687,1.0
688,2.0
2,21, 1,21, 0, 5,50.00,60.00,Monday
250,-0.3653456746765394
251,37903240.32489014
336,0.0
385,18.72057660918839
386,27.056696883139495
387,-0.9367778036594754
388,0.0
425,0.0
450,0.0
451,0.0
452,-1.5549101021607714
453,0.0
490,0.0
515,0.0
516,0.0
542,0.0
592,4695451.530758675
632,32948911.883937877
686,1.0
687,1.0
688,2.0
2,21, 1,21, 0, 6, 0.00,10.00,Monday
250,-0.36531750852577194
251,37904556.04513277
336,0.0
385,18.72057660918839
386,27.056696883139495
387,-0.9378350985588464
388,0.0
425,0.0
450,0.0
451,0.0
452,-1.5439047535094241
453,0.0
490,0.0
515,0.0
516,0.0
542,0.0
592,4695264.082255858
632,32950415.70691435
686,1.0
687,1.0
688,2.0
2,21, 1,21, 0, 6,10.00,20.00,Monday
250,-0.36529703230005633
251,37904597.543419875
336,0.0
385,18.72057660918839
386,27.056696883139495
387,-0.9391111237592155
388,0.0
425,0.0
450,0.0
451,0.0
452,-1.5347013139352712
453,0.0
490,0.0
515,0.0
516,0.0
542,0.0
592,4695076.569900009
632,32950640.57514553
686,1.0
687,1.0
688,2.0
2,21, 1,21, 0, 6,20.00,30.00,Monday
250,-0.36527660740899287
251,37904621.62017199
336,0.0
385,18.72057660918839
386,27.056696883139495
387,-0.9405998802363223
388,0.0
425,0.0
450,0.0
451,0.0
452,-1.527624020332151
453,0.0
490,0.0
515,0.0
516,0.0
542,0.0
592,4694888.993658494
632,32950852.200496234
686,1.0
687,1.0
688,2.0
2,21, 1,21, 0, 6,30.00,40.00,Monday
250,-0.36525585443768255
251,37904651.947324246
336,0.0
385,18.72057660918839
386,27.056696883139495
387,-0.9422590508253904
388,0.0
425,0.0
450,0.0
451,0.0
452,-1.5224640208526226
453,0.0
490,0.0
515,0.0
516,0.0
542,0.0
592,4694701.35349866
632,32951070.344552025
686,1.0
687,1.0
688,2.0
2,21, 1,21, 0, 6,40.00,50.00,Monday
250,-0.3652348157546761
251,37904680.83455048
336,0.0
385,18.72057660918839
386,27.056696883139495
387,-0.9440565703922438
388,0.0
425,0.0
450,0.0
451,0.0
452,-1.5187727172162486
453,0.0
490,0.0
515,0.0
516,0.0
542,0.0
592,4694513.649387831
632,32951287.08980948
686,1.0
687,1.0
688,2.0
2,21, 1,21, 0, 6,50.00,60.00,Monday
250,-0.36521345015418066
251,37904709.48798186
336,0.0
385,18.72057660918839
386,27.056696883139495
387,-0.9459752391262076
388,0.0
425,0.0
450,0.0
451,0.0
452,-1.5161309789804167
453,0.0
490,0.0
515,0.0
516,0.0
542,0.0
592,4694325.881293308
632,32951503.687453065
686,1.0
687,1.0
688,2.0
2,21, 1,21, 0, 7, 0.00,10.00,Monday
250,-0.3657510451358614
251,37905039.272443
336,0.0
385,18.72057660918839
386,27.056696883139495
387,-0.950435912087985
388,0.0
425,0.0
450,0.0
451,0.0
452,-1.519406977068302
453,0.0
490,0.0
515,0.0
516,0.0
542,0.0
592,4723573.583255435
632,32922284.665769346
686,1.0
687,1.0
688,2.0
2,21, 1,21, 0, 7,10.00,20.00,Monday
250,-0.36573088794448266
251,37902121.05412004
336,0.0
385,18.72057660918839
386,27.056696883139495
387,-0.959611291697461
388,0.0
425,0.0
450,0.0
451,0.0
452,-1.5380760667295303
453,0.0
490,0.0
515,0.0
516,0.0
542,0.0
592,4752837.186047653
632,32890403.297063276
686,1.0
687,1.0
688,2.0
2,21, 1,21, 0, 7,20.00,30.00,Monday
250,-0.3656983185451554
251,37899154.3284766
336,0.0
385,18.72057660918839
386,27.056696883139495
387,-0.9737426246747569
388,0.0
425,0.0
450,0.0
451,0.0
452,-1.5775064591692278
453,0.0
490,0.0
515,0.0
516,0.0
542,0.0
592,4782116.702651945
632,32858163.73921929
686,1.0
687,1.0
688,2.0
2,21, 1,21, 0, 7,30.00,40.00,Monday
250,-0.36566821802581495
251,37896202.12254761
336,0.0
385,18.72057660918839
386,27.056696883139495
387,-0.9918757290189273
388,0.0
425,0.0
450,0.0
451,0.0
452,-1.6353102237184545
453,0.0
490,0.0
515,0.0
516,0.0
542,0.0
592,4811412.146064445
632,32825914.75887646
686,1.0
687,1.0
688,2.0
2,21, 1,21, 0, 7,40.00,50.00,Monday
250,-0.36563706478693103
251,37893244.76444147
336,0.0
385,18.72057660918839
386,27.056696883139495
387,-1.0129323786991777
388,0.0
425,0.0
450,0.0
451,0.0
452,-1.7052324925983582
453,0.0
490,0.0
515,0.0
516,0.0
542,0.0
592,4840723.5292954575
632,32793646.58319106
686,1.0
687,1.0
688,2.0
2,21, 1,21, 0, 7,50.00,60.00,Monday
250,-0.3656055108803863
251,37890285.43451795
336,0.0
385,18.72057660918839
386,27.056696883139495
387,-1.0361658743105284
388,0.0
425,0.0
450,0.0
451,0.0
452,-1.7815822947078594
453,0.0
490,0.0
515,0.0
516,0.0
542,0.0
592,4870050.865369484
632,32761360.131641306
686,1.0
687,1.0
688,2.0
2,21, 1,21, 0, 8, 0.00,10.00,Monday
250,-0.1653791764469547
251,37779532.560864955
336,0.0
385,18.72057660918839
386,27.056696883139495
387,-1.0322885196008806
388,0.0
425,0.0
450,0.0
451,0.0
452,-1.840528770282204
453,0.0
490,0.0
515,0.0
516,0.0
542,0.0
592,4889730.300311495
632,32738719.802874185
686,1.0
687,1.0
688,2.0
2,21, 1,21, 0, 8,10.00,20.00,Monday
250,0.0349226578345494
251,37674007.05427968
336,0.0
385,18.72057660918839
386,27.056696883139495
387,-0.9907865851408034
388,0.0
425,0.0
450,0.0
451,0.0
452,-1.8316639388844291
453,0.0
490,0.0
515,0.0
516,0.0
542,0.0
592,4909380.719869504
632,32613591.18220362
686,1.0
687,1.0
688,2.0
2,21, 1,21, 0, 8,20.00,30.00,Monday
250,0.23410244667957186
251,37569156.63782024
336,0.0
385,18.72057660918839
386,27.056696883139495
387,-0.9197983651230148
388,0.0
425,0.0
450,0.0
451,0.0
452,-1.7242191303573666
453,0.0
490,0.0
515,0.0
516,0.0
542,0.0
592,4929009.6156952735
632,32488514.540240023
686,1.0
687,1.0
688,2.0
2,21, 1,21, 0, 8,30.00,40.00,Monday
250,0.4335793581257635
251,37464118.82190507
336,0.0
385,18.72057660918839
386,27.056696883139495
387,-0.829560263609245
388,0.0
425,0.0
450,0.0
451,0.0
452,-1.5285582390269556
453,0.0
490,0.0
515,0.0
516,0.0
542,0.0
592,4952863.646772657
632,32359789.52244097
686,1.0
687,1.0
688,2.0
2,21, 1,21, 0, 8,40.00,50.00,Monday
250,0.6331185087821368
251,37358638.371934846
336,0.0
385,18.72057660918839
386,27.056696883139495
387,-0.7280184873371858
388,0.0
425,0.0
450,0.0
451,0.0
452,-1.2531202854395225
453,0.0
490,0.0
515,0.0
516,0.0
542,0.0
592,4977062.298687916
632,32230149.63099405
686,1.0
687,1.0
688,2.0
2,21, 1,21, 0, 8,50.00,60.00,Monday
250,0.8330965242021159
251,37253858.162187785
336,0.0
385,18.72057660918839
386,27.056696883139495
387,-0.6321721160913241
388,0.0
425,0.0
450,0.0
451,0.0
452,-0.9402353771500687
453,0.0
490,0.0
515,0.0
516,0.0
542,0.0
592,5001395.306277512
632,32047870.433620762
686,1.0
687,1.0
688,2.0
2,21, 1,21, 0, 9, 0.00,10.00,Monday
250,1.099062199969355
251,37114583.857898496
336,0.0
385,18.72057660918839
386,27.056696883139495
387,-0.49382503281851164
388,0.0
425,0.0
450,0.0
451,0.0
452,-0.46087795363153017
453,0.0
490,0.0
515,0.0
516,0.0
542,0.0
592,5029363.153609448
632,31897238.298917923
686,1.0
687,1.0
688,2.0
2,21, 1,21, 0, 9,10.00,20.00,Monday
250,1.3649680899770995
251,36974381.84182011
336,0.0
385,18.72057660918839
386,27.056696883139495
387,-0.343081110634884
388,0.0
425,0.0
450,0.0
451,0.0
452,0.06334571150201701
453,0.0
490,0.0
515,0.0
516,0.0
542,0.0
592,5057356.862312016
632,31729033.4774429
686,1.0
687,1.0
688,2.0
2,21, 1,21, 0, 9,20.00,30.00,Monday
250,1.6309615165397617
251,36834128.74241226
336,0.0
385,18.72057660918839
386,27.056696883139495
387,-0.18317656881566732
388,0.0
425,0.0
450,0.0
451,0.0
452,0.6280501834635986
453,0.0
490,0.0
515,0.0
516,0.0
542,0.0
592,5085392.284952975
632,31560769.27045618
686,1.0
687,1.0
688,2.0
2,21, 1,21, 0, 9,30.00,40.00,Monday
250,1.896909744824094
251,36693897.8005835
336,0.0
385,18.72057660918839
386,27.056696883139495
387,-0.013408929086158154
388,0.0
425,0.0
450,0.0
451,0.0
452,1.2226824958895943
453,0.0
490,0.0
515,0.0
516,0.0
542,0.0
592,5113485.892141593
632,31392433.81376244
686,1.0
687,1.0
688,2.0
2,21, 1,21, 0, 9,40.00,50.00,Monday
250,2.163026469363821
251,36552576.27868559
336,0.0
385,18.720576609188406
386,27.056696883139516
387,0.13178700230126372
388,0.0
425,0.0
450,0.0
451,0.0
452,1.7243467025647665
453,0.0
490,0.0
515,0.0
516,0.0
542,0.0
592,5141654.529350725
632,31199825.03357312
686,1.0000000000000009
687,1.0000000000000009
688,2.0000000000000018
2,21, 1,21, 0, 9,50.00,60.00,Monday
250,2.429253452356131
251,36411662.57954493
336,0.0
385,18.72057660918839
386,27.056696883139495
387,0.2839521849669898
388,0.0
425,0.0
450,0.0
451,0.0
452,2.264812225175973
453,0.0
490,0.0
515,0.0
516,0.0
542,0.0
592,5169915.672059795
632,31055176.486916717
686,1.0
687,1.0
688,2.0
2,21, 1,21, 0,10, 0.00,10.00,Monday
250,2.8933805631913616
251,36165394.39338706
336,0.0
385,18.72057660918839
386,27.056696883139495
387,0.4744427017741867
388,0.0
425,0.0
450,0.0
451,0.0
452,2.8240696306025592
453,0.0
490,0.0
515,0.0
516,0.0
542,0.0
592,5241404.10703412
632,30748493.09461613
686,1.0
687,1.0
688,2.0
2,21, 1,21, 0,10,10.00,20.00,Monday
250,3.358190542716273
251,35919385.63764425
336,0.0
385,18.72057660918839
386,27.056696883139495
387,0.7654859150341649
388,0.0
425,0.0
450,0.0
451,0.0
452,3.5789475611409056
453,0.0
490,0.0
515,0.0
516,0.0
542,0.0
592,5315291.857316207
632,30427647.805741303
686,1.0
687,1.0
688,2.0
2,21, 1,21, 0,10,20.00,30.00,Monday
250,3.823177138980552
251,35672010.22354213
336,0.0
385,18.720576609188385
386,27.05669688313948
387,1.0458532583299351
388,0.0
425,0.0
450,0.0
451,0.0
452,4.267809249043009
453,0.0
490,0.0
515,0.0
516,0.0
542,0.0
592,5391793.298050374
632,30103845.04814869
686,0.9999999999999996
687,0.9999999999999996
688,1.9999999999999991
2,21, 1,21, 0,10,30.00,40.00,Monday
250,4.288273206762174
251,35424441.84609199
336,0.0
385,18.7205766091884
386,27.0566968831395
387,1.3276015545888278
388,0.0
425,0.0
450,0.0
451,0.0
452,4.969764379526547
453,0.0
490,0.0
515,0.0
516,0.0
542,0.0
592,5471132.199313744
632,29777002.06975603
686,1.0000000000000004
687,1.0000000000000004
688,2.000000000000001
2,21, 1,21, 0,10,40.00,50.00,Monday
250,4.753525485081102
251,35176648.41982055
336,0.0
385,18.720576609188406
386,27.056696883139516
387,1.6177236270773427
388,0.0
425,0.0
450,0.0
451,0.0
452,5.733871476410215
453,0.0
490,0.0
515,0.0
516,0.0
542,0.0
592,5553542.3757593315
632,29446873.40906582
686,1.0000000000000009
687,1.0000000000000009
688,2.0000000000000018
2,21, 1,21, 0,10,50.00,60.00,Monday
250,5.218786078648375
251,34928702.882380724
336,0.0
385,18.720576609188406
386,27.056696883139516
387,1.9179325942491001
388,0.0
425,0.0
450,0.0
451,0.0
452,6.5629013442389255
453,0.0
490,0.0
515,0.0
516,0.0
542,0.0
592,5639267.778995938
632,29113253.081481256
686,1.0000000000000009
687,1.0000000000000009
688,2.0000000000000018
2,21, 1,21, 0,11, 0.00,10.00,Monday
250,5.5022389656633734
251,34777869.40146006
336,0.0
385,18.72057660918839
386,27.056696883139495
387,2.2044280133984335
388,0.0
425,0.0
450,0.0
451,0.0
452,7.418108548081811
453,0.0
490,0.0
515,0.0
516,0.0
542,0.0
592,5689519.861596228
632,28879775.70727826
686,1.0
687,1.0
688,2.0
2,21, 1,21, 0,11,10.00,20.00,Monday
250,5.785180587639633
251,34627255.026714295
336,0.0
385,18.72057660918839
386,27.056696883139495
387,2.4741893270688617
388,0.0
425,0.0
450,0.0
451,0.0
452,8.268614718396082
453,0.0
490,0.0
515,0.0
516,0.0
542,0.0
592,5740969.350869596
632,28677636.205439765
686,1.0
687,1.0
688,2.0
2,21, 1,21, 0,11,20.00,30.00,Monday
250,6.068166096525903
251,34476567.25666516
336,0.0
385,18.720576609188385
386,27.05669688313948
387,2.746345168805528
388,0.0
425,0.0
450,0.0
451,0.0
452,9.11520374378736
453,0.0
490,0.0
515,0.0
516,0.0
542,0.0
592,5793671.0952822175
632,28474271.27117136
686,0.9999999999999996
687,0.9999999999999996
688,1.9999999999999991
2,21, 1,21, 0,11,30.00,40.00,Monday
250,6.350970679438682
251,34325924.19484796
336,0.0
385,18.7205766091884
386,27.0566968831395
387,3.0236770815721012
388,0.0
425,0.0
450,0.0
451,0.0
452,9.937002269935903
453,0.0
490,0.0
515,0.0
516,0.0
542,0.0
592,5847681.427966583
632,28269602.823540628
686,1.0000000000000004
687,1.0000000000000004
688,2.000000000000001
2,21, 1,21, 0,11,40.00,50.00,Monday
250,6.6336975208718485
251,34175269.05079335
336,0.0
385,18.720576609188406
386,27.056696883139516
387,3.3027835848931284
388,0.0
425,0.0
450,0.0
451,0.0
452,10.682553027842387
453,0.0
490,0.0
515,0.0
516,0.0
542,0.0
592,5903058.082199926
632,28063575.013602965
686,1.0000000000000009
687,1.0000000000000009
688,2.0000000000000018
2,21, 1,21, 0,11,50.00,60.00,Monday
250,6.916319130326089
251,34024615.1683469
336,0.0
385,18.720576609188406
386,27.056696883139516
387,3.5798123710805028
388,0.0
425,0.0
450,0.0
451,0.0
452,11.318390413967705
453,0.0
490,0.0
515,0.0
516,0.0
542,0.0
592,5959860.237244541
632,27856118.513467766
686,1.0000000000000009
687,1.0000000000000009
688,2.0000000000000018
2,21, 1,21, 0,12, 0.00,10.00,Monday
250,7.182995778288404
251,33882498.29465112
336,0.0
385,18.72057660918839
386,27.056696883139495
387,3.819820192277575
388,0.0
425,0.0
450,0.0
451,0.0
452,11.817492260599884
453,0.0
490,0.0
515,0.0
516,0.0
542,0.0
592,5991096.197635708
632,27705014.061996836
686,1.0
687,1.0
688,2.0
2,21, 1,21, 0,12,10.00,20.00,Monday
250,7.4485828279571065
251,33744447.77363047
336,0.0
385,18.72057660918839
386,27.056696883139495
387,4.112214102506235
388,0.0
425,0.0
450,0.0
451,0.0
452,12.38147969613141
453,0.0
490,0.0
515,0.0
516,0.0
542,0.0
592,7572016.881221027
632,25984231.395795435
686,1.0
687,1.0
688,2.0
2,21, 1,21, 0,12,20.00,30.00,Monday
250,7.714709607529274
251,33604382.820872426
336,0.0
385,18.72057660918839
386,27.056696883139495
387,4.381338039532886
388,0.0
425,0.0
450,0.0
451,0.0
452,12.896390422774063
453,0.0
490,0.0
515,0.0
516,0.0
542,0.0
592,7609409.155487606
632,25806913.737866245
686,1.0
687,1.0
688,2.0
2,21, 1,21, 0,12,30.00,40.00,Monday
250,7.980772887587358
251,33464353.20679339
336,0.0
385,18.72057660918839
386,27.056696883139495
387,4.640159729971826
388,0.0
425,0.0
450,0.0
451,0.0
452,13.38826115964687
453,0.0
490,0.0
515,0.0
516,0.0
542,0.0
592,7646583.592010483
632,25629692.46617421
686,1.0
687,1.0
688,2.0
2,21, 1,21, 0,12,40.00,50.00,Monday
250,8.246812738506447
251,33324335.932776775
336,0.0
385,18.72057660918839
386,27.056696883139495
387,4.894591946241352
388,0.0
425,0.0
450,0.0
451,0.0
452,13.830367707972663
453,0.0
490,0.0
515,0.0
516,0.0
542,0.0
592,7683540.190789655
632,25452712.458706997
686,1.0
687,1.0
688,2.0
2,21, 1,21, 0,12,50.00,60.00,Monday
250,8.512845732242365
251,33184321.575823255
336,0.0
385,18.72057660918839
386,27.056696883139495
387,5.143543321953532
388,0.0
425,0.0
450,0.0
451,0.0
452,14.198134541227148
453,0.0
490,0.0
515,0.0
516,0.0
542,0.0
592,7720278.951825122
632,25275957.96411336
686,1.0
687,1.0
688,2.0
2,21, 1,21, 0,13, 0.00,10.00,Monday
250,8.695884795237872
251,33085606.685726278
336,0.0
385,18.72057660918839
386,27.056696883139495
387,5.375936820763561
388,0.0
425,0.0
450,0.0
451,0.0
452,14.489361324668444
453,0.0
490,0.0
515,0.0
516,0.0
542,0.0
592,7745410.487127085
632,25178496.853046812
686,1.0
687,1.0
688,2.0
2,21, 1,21, 0,13,10.00,20.00,Monday
250,8.87861162625263
251,32991068.32981538
336,0.0
385,18.72057660918839
386,27.056696883139495
387,5.5947333549359675
388,0.0
425,0.0
450,0.0
451,0.0
452,14.718621587441431
453,0.0
490,0.0
515,0.0
516,0.0
542,0.0
592,7770439.060057994
632,25060367.036760446
686,1.0
687,1.0
688,2.0
2,21, 1,21, 0,13,20.00,30.00,Monday
250,9.061749565725226
251,32896399.9888
336,0.0
385,18.72057660918839
386,27.056696883139495
387,5.799645167075572
388,0.0
425,0.0
450,0.0
451,0.0
452,14.901809294936125
453,0.0
490,0.0
515,0.0
516,0.0
542,0.0
592,7795364.6706178645
632,24941007.556799725
686,1.0
687,1.0
688,2.0
2,21, 1,21, 0,13,30.00,40.00,Monday
250,9.244764592688394
251,32801828.26652458
336,0.0
385,18.72057660918839
386,27.056696883139495
387,5.994692051528128
388,0.0
425,0.0
450,0.0
451,0.0
452,15.050677333919362
453,0.0
490,0.0
515,0.0
516,0.0
542,0.0
592,7820187.318806683
632,24821559.56315984
686,1.0
687,1.0
688,2.0
2,21, 1,21, 0,13,40.00,50.00,Monday
250,9.427784427804447
251,32707287.420958288
336,0.0
385,18.72057660918839
386,27.056696883139495
387,6.1836244551266475
388,0.0
425,0.0
450,0.0
451,0.0
452,15.170011267546943
453,0.0
490,0.0
515,0.0
516,0.0
542,0.0
592,7844907.00462445
632,24702314.534992762
686,1.0
687,1.0
688,2.0
2,21, 1,21, 0,13,50.00,60.00,Monday
250,9.610798837568904
251,32612782.682441127
336,0.0
385,18.72057660918839
386,27.056696883139495
387,6.367742231687997
388,0.0
425,0.0
450,0.0
451,0.0
452,15.263440437735978
453,0.0
490,0.0
515,0.0
516,0.0
542,0.0
592,7869523.72807117
632,24583203.229177836
686,1.0
687,1.0
688,2.0
2,21, 1,21, 0,14, 0.00,10.00,Monday
250,9.810734880794406
251,32509171.64913481
336,0.0
385,18.72057660918839
386,27.056696883139495
387,6.549884561724895
388,0.0
425,0.0
450,0.0
451,0.0
452,15.319560598379706
453,0.0
490,0.0
515,0.0
516,0.0
542,0.0
592,7896260.907308882
632,24462007.92443282
686,1.0
687,1.0
688,2.0
2,21, 1,21, 0,14,10.00,20.00,Monday
250,10.01036795943449
251,32405325.84032997
336,0.0
385,18.72057660918839
386,27.056696883139495
387,6.730183272469322
388,0.0
425,0.0
450,0.0
451,0.0
452,15.320051148012887
453,0.0
490,0.0
515,0.0
516,0.0
542,0.0
592,7922875.552815753
632,24331397.07601113
686,1.0
687,1.0
688,2.0
2,21, 1,21, 0,14,20.00,30.00,Monday
250,10.209907605267112
251,32301545.689046953
336,0.0
385,18.72057660918839
386,27.056696883139495
387,6.90648042383736
388,0.0
425,0.0
450,0.0
451,0.0
452,15.26444406188162
453,0.0
490,0.0
515,0.0
516,0.0
542,0.0
592,7949367.664591796
632,24201087.716913715
686,1.0
687,1.0
688,2.0
2,21, 1,21, 0,14,30.00,40.00,Monday
250,10.40938379631023
251,32197824.35680546
336,0.0
385,18.72057660918839
386,27.056696883139495
387,7.072823416158835
388,0.0
425,0.0
450,0.0
451,0.0
452,15.142213724610214
453,0.0
490,0.0
515,0.0
516,0.0
542,0.0
592,7975737.242637003
632,24070976.067337282
686,1.0
687,1.0
688,2.0
2,21, 1,21, 0,14,40.00,50.00,Monday
250,10.60880363015005
251,32094155.538873266
336,0.0
385,18.72057660918839
386,27.056696883139495
387,7.225518522509815
388,0.0
425,0.0
450,0.0
451,0.0
452,14.933638655773645
453,0.0
490,0.0
515,0.0
516,0.0
542,0.0
592,8001984.286951372
632,23941043.457626075
686,1.0
687,1.0
688,2.0
2,21, 1,21, 0,14,50.00,60.00,Monday
250,10.808183245120269
251,31990530.960415542
336,0.0
385,18.72057660918839
386,27.056696883139495
387,7.364856085717501
388,0.0
425,0.0
450,0.0
451,0.0
452,14.641755879973816
453,0.0
490,0.0
515,0.0
516,0.0
542,0.0
592,8028108.797534915
632,23811286.503522933
686,1.0
687,1.0
688,2.0
2,21, 1,21, 0,15, 0.00,10.00,Monday
250,11.07407438084904
251,31851707.7191341
336,0.0
385,18.72057660918839
386,27.056696883139495
387,7.485838203051341
388,0.0
425,0.0
450,0.0
451,0.0
452,14.346453225379012
453,0.0
490,0.0
515,0.0
516,0.0
542,0.0
592,8062750.870287225