Program Version,EnergyPlus, Version 24.2.0-94a887817b, YMD=2025.02.04 15:38
1,5,Environment Title[],Latitude[deg],Longitude[deg],Time Zone[],Elevation[m]
2,8,Day of Simulation[],Month[],Day of Month[],DST Indicator[1=yes 0=no],Hour[],StartMinute[],EndMinute[],DayType
3,5,Cumulative Day of Simulation[],Month[],Day of Month[],DST Indicator[1=yes 0=no],DayType  ! When Daily Meters Requested
4,2,Cumulative Days of Simulation[],Month[]  ! When Monthly Meters Requested
5,1,Cumulative Days of Simulation[] ! When Run Period Meters Requested
6,1,Calendar Year of Simulation[] ! When Annual Meters Requested
11,9,Electricity:Facility [J] !Monthly [Value,Min,Day,Hour,Minute,Max,Day,Hour,Minute]
23,9,Electricity:Building [J] !Monthly [Value,Min,Day,Hour,Minute,Max,Day,Hour,Minute]
59,9,InteriorLights:Electricity [J] !Monthly [Value,Min,Day,Hour,Minute,Max,Day,Hour,Minute]
521,9,Electricity:HVAC [J] !Monthly [Value,Min,Day,Hour,Minute,Max,Day,Hour,Minute]
637,9,NaturalGas:Facility [J] !Monthly [Value,Min,Day,Hour,Minute,Max,Day,Hour,Minute]
649,9,NaturalGas:HVAC [J] !Monthly [Value,Min,Day,Hour,Minute,Max,Day,Hour,Minute]
13,11,Electricity:Facility [J] !RunPeriod [Value,Min,Month,Day,Hour,Minute,Max,Month,Day,Hour,Minute]
25,11,Electricity:Building [J] !RunPeriod [Value,Min,Month,Day,Hour,Minute,Max,Month,Day,Hour,Minute]
61,11,InteriorLights:Electricity [J] !RunPeriod [Value,Min,Month,Day,Hour,Minute,Max,Month,Day,Hour,Minute]
523,11,Electricity:HVAC [J] !RunPeriod [Value,Min,Month,Day,Hour,Minute,Max,Month,Day,Hour,Minute]
639,11,NaturalGas:Facility [J] !RunPeriod [Value,Min,Month,Day,Hour,Minute,Max,Month,Day,Hour,Minute]
651,11,NaturalGas:HVAC [J] !RunPeriod [Value,Min,Month,Day,Hour,Minute,Max,Month,Day,Hour,Minute]
End of Data Dictionary
1,RUN PERIOD 1,  41.98, -87.92,  -6.00, 201.00
4,31, 1
11,9825003029.792295,408891.4285714286, 5, 6,50,2980888.4054055493,16,13,60
23,985952928.5613071,30000.0, 1, 1,10,611415.1656241245, 1, 9,10
59,970200000.0,30000.0, 1, 1,10,600000.0, 1, 8,10
521,8839050101.230986,378891.4285714286, 5, 6,50,2369473.239781425,16,13,60
637,179209499154.87112,28353046.75363851,21,16,10,41250000.0, 1, 1,10
649,179209499154.87112,28353046.75363851,21,16,10,41250000.0, 1, 1,10
4,59, 2
11,9358234319.81281,99999999999999.0, 5, 6,50,3022349.845668671,22,15,30
23,861858198.7489618,99999999999999.0, 1, 1,10,-99999999999999.0, 1, 9,10
59,848160000.0,99999999999999.0, 1, 1,10,-99999999999999.0, 1, 8,10
521,8496376121.063895,99999999999999.0, 5, 6,50,2410934.680044547,22,15,30
637,158643913067.02795,26661033.653791316,23,12,10,-99999999999999.0, 1, 1,10
649,158643913067.02795,26661033.653791316,23,12,10,-99999999999999.0, 1, 1,10
4,90, 3
11,11013924837.577148,99999999999999.0, 5, 6,50,3265903.8424867834,27,16,10
23,911863108.6864103,99999999999999.0, 1, 1,10,-99999999999999.0, 1, 9,10
59,897480000.0,99999999999999.0, 1, 1,10,-99999999999999.0, 1, 8,10
521,10102061728.890717,99999999999999.0, 5, 6,50,2654488.676862659,27,16,10
637,163303943590.8426,21140752.188730888,27,16,10,-99999999999999.0, 1, 1,10
649,163303943590.8426,21140752.188730888,27,16,10,-99999999999999.0, 1, 1,10
4,120, 4
11,9713507416.038652,30000.0,11,19,10,3273454.081308447,17, 9,10
23,944588018.6238586,99999999999999.0, 1, 1,10,-99999999999999.0, 1, 9,10
59,929520000.0,99999999999999.0, 1, 1,10,-99999999999999.0, 1, 8,10
521,8768919397.414917,0.0,11,14,20,2662564.1396870804,18, 7,30
637,123715360829.6695,0.0,11,14,20,-99999999999999.0, 1, 1,10
649,123715360829.6695,0.0,11,14,20,-99999999999999.0, 1, 1,10
4,151, 5
11,9351774697.073278,99999999999999.0,11,19,10,3275479.1260741544,23, 9,50
23,986267383.4661261,99999999999999.0, 1, 1,10,627348.5900553697,28,13,10
59,970200000.0,99999999999999.0, 1, 1,10,-99999999999999.0, 1, 8,10
521,8365507313.607205,99999999999999.0,11,14,20,2664063.96045003,23, 9,50
637,98795827412.4665,99999999999999.0,11,14,20,-99999999999999.0, 1, 1,10
649,98795827412.4665,99999999999999.0,11,14,20,-99999999999999.0, 1, 1,10
4,181, 6
11,6748689656.769805,99999999999999.0,11,19,10,3275704.650616052,19, 9,30
23,870584485.7513989,99999999999999.0, 1, 1,10,-99999999999999.0,28,13,10
59,856800000.0,99999999999999.0, 1, 1,10,-99999999999999.0, 1, 8,10
521,5878105171.018489,99999999999999.0,11,14,20,2664459.588748809, 2, 9,50
637,48633610615.665,99999999999999.0,11,14,20,-99999999999999.0, 1, 1,10
649,48633610615.665,99999999999999.0,11,14,20,-99999999999999.0, 1, 1,10
4,212, 7
11,5826963531.331582,99999999999999.0,11,19,10,-99999999999999.0,19, 9,30
23,986230633.591043,99999999999999.0, 1, 1,10,-99999999999999.0,28,13,10
59,970200000.0,99999999999999.0, 1, 1,10,-99999999999999.0, 1, 8,10
521,4840732897.740649,99999999999999.0,11,14,20,-99999999999999.0, 2, 9,50
637,24331044014.805393,99999999999999.0,11,14,20,-99999999999999.0, 1, 1,10
649,24331044014.805393,99999999999999.0,11,14,20,-99999999999999.0, 1, 1,10
4,243, 8
11,5627290049.248724,99999999999999.0,11,19,10,3277846.689959557, 6, 9,40
23,949190642.2660394,99999999999999.0, 1, 1,10,627473.0948941881,12,14,10
59,933840000.0,99999999999999.0, 1, 1,10,-99999999999999.0, 1, 8,10
521,4678099406.982863,99999999999999.0,11,14,20,2666431.5243354323, 6, 9,40
637,39047120018.23474,99999999999999.0,11,14,20,-99999999999999.0, 1, 1,10
649,39047120018.23474,99999999999999.0,11,14,20,-99999999999999.0, 1, 1,10
4,273, 9
11,8041727861.914695,99999999999999.0,11,19,10,-99999999999999.0, 6, 9,40
23,907543108.6864102,99999999999999.0, 1, 1,10,-99999999999999.0,12,14,10
59,893160000.0,99999999999999.0, 1, 1,10,-99999999999999.0, 1, 8,10
521,7134184753.228333,99999999999999.0,11,14,20,-99999999999999.0, 6, 9,40
637,74636805136.52489,99999999999999.0,11,14,20,-99999999999999.0, 1, 1,10
649,74636805136.52489,99999999999999.0,11,14,20,-99999999999999.0, 1, 1,10
4,304,10
11,10765487154.256777,99999999999999.0,11,19,10,-99999999999999.0, 6, 9,40
23,985988794.7550777,99999999999999.0, 1, 1,10,629502.8953259472,22,16,30
59,970200000.0,99999999999999.0, 1, 1,10,-99999999999999.0, 1, 8,10
521,9779498359.501743,99999999999999.0,11,14,20,-99999999999999.0, 6, 9,40
637,130743497314.8906,99999999999999.0,11,14,20,-99999999999999.0, 1, 1,10
649,130743497314.8906,99999999999999.0,11,14,20,-99999999999999.0, 1, 1,10
4,334,11
11,10597953075.892588,99999999999999.0,11,19,10,-99999999999999.0, 6, 9,40
23,907543108.6864103,99999999999999.0, 1, 1,10,-99999999999999.0,22,16,30
59,893160000.0,99999999999999.0, 1, 1,10,-99999999999999.0, 1, 8,10
521,9690409967.206192,99999999999999.0,11,14,20,-99999999999999.0, 6, 9,40
637,149222791382.7405,99999999999999.0,11,14,20,-99999999999999.0, 1, 1,10
649,149222791382.7405,99999999999999.0,11,14,20,-99999999999999.0, 1, 1,10
4,365,12
11,10437858639.007662,99999999999999.0,11,19,10,-99999999999999.0, 6, 9,40
23,948908018.6238587,99999999999999.0, 1, 1,10,-99999999999999.0,22,16,30
59,933840000.0,99999999999999.0, 1, 1,10,-99999999999999.0, 1, 8,10
521,9488950620.383821,99999999999999.0,11,14,20,-99999999999999.0, 6, 9,40
637,180066246980.45612,99999999999999.0,11,14,20,-99999999999999.0, 1, 1,10
649,180066246980.45612,99999999999999.0,11,14,20,-99999999999999.0, 1, 1,10
5,365
13,107308414268.72443,30000.0, 4,11,19,10,3277846.689959557, 8, 6, 9,40
25,11246518430.445925,30000.0, 1, 1, 1,10,629502.8953259472,10,22,16,30
61,11066760000.0,30000.0, 1, 1, 1,10,600000.0, 1, 1, 8,10
523,96061895838.27466,0.0, 4,11,14,20,2666431.5243354323, 8, 6, 9,40
639,1370349659518.1968,0.0, 4,11,14,20,41250000.0, 1, 1, 1,10
651,1370349659518.1968,0.0, 4,11,14,20,41250000.0, 1, 1, 1,10
1,RUN PERIOD 2,  41.98, -87.92,  -6.00, 201.00
4,1, 7
11,67240878.84998733,99999999999999.0,11,19,10,-99999999999999.0, 6, 9,40
23,41364909.937447466,99999999999999.0, 1, 1,10,-99999999999999.0,22,16,30
59,40680000.0,99999999999999.0, 1, 1,10,-99999999999999.0, 1, 8,10
521,25875968.91253981,99999999999999.0,11,14,20,-99999999999999.0, 6, 9,40
637,0.0,99999999999999.0,11,14,20,-99999999999999.0, 1, 1,10
649,0.0,99999999999999.0,11,14,20,-99999999999999.0, 1, 1,10
5,1
13,67240878.84998733,99999999999999.0, 4,11,19,10,-99999999999999.0, 8, 6, 9,40
25,41364909.937447466,99999999999999.0, 1, 1, 1,10,-99999999999999.0,10,22,16,30
61,40680000.0,99999999999999.0, 1, 1, 1,10,-99999999999999.0, 1, 1, 8,10
523,25875968.91253981,99999999999999.0, 4,11,14,20,-99999999999999.0, 8, 6, 9,40
639,0.0,99999999999999.0, 4,11,14,20,-99999999999999.0, 1, 1, 1,10
651,0.0,99999999999999.0, 4,11,14,20,-99999999999999.0, 1, 1, 1,10
End of Data
 Number of Records Written=          90
