Program Version,EnergyPlus, Version 24.2.0-94a887817b, YMD=2025.01.30 20:36
1,5,Environment Title[],Latitude[deg],Longitude[deg],Time Zone[],Elevation[m]
2,8,Day of Simulation[],Month[],Day of Month[],DST Indicator[1=yes 0=no],Hour[],StartMinute[],EndMinute[],DayType
3,5,Cumulative Day of Simulation[],Month[],Day of Month[],DST Indicator[1=yes 0=no],DayType  ! When Daily Report Variables Requested
4,2,Cumulative Days of Simulation[],Month[]  ! When Monthly Report Variables Requested
5,1,Cumulative Days of Simulation[] ! When Run Period Report Variables Requested
6,1,Calendar Year of Simulation[] ! When Annual Report Variables Requested
250,1,LIVING ZONE,Zone Air Temperature [C] !TimeStep,REPORTSCH
251,1,LIVING ZONE,Zone Air System Sensible Heating Energy [J] !TimeStep,REPORTSCH
336,1,LIVING ZONE,Zone Air System Sensible Cooling Energy [J] !TimeStep,REPORTSCH
385,1,LIVING ZONE,Zone Thermostat Heating Setpoint Temperature [C] !TimeStep,REPORTSCH
386,1,LIVING ZONE,Zone Thermostat Cooling Setpoint Temperature [C] !TimeStep,REPORTSCH
387,1,GARAGE ZONE,Zone Air Temperature [C] !TimeStep,REPORTSCH
388,1,GARAGE ZONE,Zone Air System Sensible Heating Energy [J] !TimeStep,REPORTSCH
425,1,GARAGE ZONE,Zone Air System Sensible Cooling Energy [J] !TimeStep,REPORTSCH
450,1,GARAGE ZONE,Zone Thermostat Heating Setpoint Temperature [C] !TimeStep,REPORTSCH
451,1,GARAGE ZONE,Zone Thermostat Cooling Setpoint Temperature [C] !TimeStep,REPORTSCH
452,1,ATTIC ZONE,Zone Air Temperature [C] !TimeStep,REPORTSCH
453,1,ATTIC ZONE,Zone Air System Sensible Heating Energy [J] !TimeStep,REPORTSCH
490,1,ATTIC ZONE,Zone Air System Sensible Cooling Energy [J] !TimeStep,REPORTSCH
515,1,ATTIC ZONE,Zone Thermostat Heating Setpoint Temperature [C] !TimeStep,REPORTSCH
516,1,ATTIC ZONE,Zone Thermostat Cooling Setpoint Temperature [C] !TimeStep,REPORTSCH
542,1,ACDXCOIL 1,Cooling Coil Total Cooling Energy [J] !TimeStep,REPORTSCH
592,1,HEAT PUMP DX HEATING COIL 1,Heating Coil Heating Energy [J] !TimeStep,REPORTSCH
632,1,SUPP HEATING COIL 1,Heating Coil Heating Energy [J] !TimeStep,REPORTSCH
686,1,TWOSPEED HEAT PUMP 1,Unitary System DX Coil Cycling Ratio [] !TimeStep,REPORTSCH
687,1,TWOSPEED HEAT PUMP 1,Unitary System DX Coil Speed Ratio [] !TimeStep,REPORTSCH
688,1,TWOSPEED HEAT PUMP 1,Unitary System DX Coil Speed Level [] !TimeStep,REPORTSCH
End of Data Dictionary
1,RUN PERIOD 1,  41.98, -87.92,  -6.00, 201.00
2,21, 1,21, 0, 1, 0.00,10.00,Monday
250,18.23300606346456
251,4308014.141287653
336,0.0
385,18.313333333333333
386,25.08
387,-0.4978890865003076
388,0.0
425,0.0
450,0.0
451,0.0
452,-1.4857902435707717
453,0.0
490,0.0
515,0.0
516,0.0
542,0.0
592,2815758.877631276
632,1614961.447066824
686,0.6648576064814657
687,0.3333333333333333
688,1.3333333333333335
2,21, 1,21, 0, 1,10.00,20.00,Monday
250,17.983252378074948
251,3448459.0918403077
336,0.0
385,17.98
386,25.08
387,-0.5064071567535198
388,0.0
425,0.0
450,0.0
451,0.0
452,-1.4695503730525374
453,0.0
490,0.0
515,0.0
516,0.0
542,0.0
592,2321844.9081591396
632,1225032.1094120843
686,0.5582433369350187
687,0.25
688,1.0
2,21, 1,21, 0, 1,20.00,30.00,Monday
250,18.23230624093012
251,4261111.257928674
336,0.0
385,18.313333333333325
386,25.079999999999988
387,-0.515760468379451
388,0.0
425,0.0
450,0.0
451,0.0
452,-1.4652295410210283
453,0.0
490,0.0
515,0.0
516,0.0
542,0.0
592,2746594.0693737403
632,1642893.6202350338
686,0.6508294169936825
687,0.3333333333333332
688,1.3333333333333328
2,21, 1,21, 0, 1,30.00,40.00,Monday
250,17.98659855388572
251,3427660.420474533
336,0.0
385,17.979999999999997
386,25.079999999999988
387,-0.5260570877257642
388,0.0
425,0.0
450,0.0
451,0.0
452,-1.4744758102798028
453,0.0
490,0.0
515,0.0
516,0.0
542,0.0
592,2279190.9843546795
632,1247296.8418674502
686,0.5506441199220432
687,0.25
688,1.0
2,21, 1,21, 0, 1,40.00,50.00,Monday
250,18.23175498802758
251,4220062.627307825
336,0.0
385,18.313333333333347
386,25.08000000000002
387,-0.5377729996593454
388,0.0
425,0.0
450,0.0
451,0.0
452,-1.496048702214357
453,0.0
490,0.0
515,0.0
516,0.0
542,0.0
592,2687249.0851314003
632,1665804.7145352438
686,0.6393499096896957
687,0.3333333333333336
688,1.3333333333333344
2,21, 1,21, 0, 1,50.00,60.00,Monday
250,17.990213076698957
251,3405528.947267398
336,0.0
385,17.98
386,25.08
387,-0.5507331296562388
388,0.0
425,0.0
450,0.0
451,0.0
452,-1.5294141430908985
453,0.0
490,0.0
515,0.0
516,0.0
542,0.0
592,2234723.3543350077
632,1270143.7302857824
686,0.5424363039606833
687,0.25
688,1.0
2,21, 1,21, 0, 2, 0.00,10.00,Monday
250,18.231606849207544
251,4216969.305010937
336,0.0
385,18.313333333333333
386,25.08
387,-0.5647684773467057
388,0.0
425,0.0
450,0.0
451,0.0
452,-1.5688084729587537
453,0.0
490,0.0
515,0.0
516,0.0
542,0.0
592,2668728.6929103583
632,1682497.43189068
686,0.6366785610724419
687,0.3333333333333333
688,1.3333333333333335
2,21, 1,21, 0, 2,10.00,20.00,Monday
250,17.987719768692777
251,3439877.5673934994
336,0.0
385,17.98
386,25.08
387,-0.5790545011648539
388,0.0
425,0.0
450,0.0
451,0.0
452,-1.6045029227824805
453,0.0
490,0.0
515,0.0
516,0.0
542,0.0
592,2267840.690643083
632,1270096.4853692062
686,0.5517068413548087
687,0.25
688,1.0
2,21, 1,21, 0, 2,20.00,30.00,Monday
250,18.23205303663005
251,4258408.81329389
336,0.0
385,18.313333333333325
386,25.079999999999988
387,-0.5935468610001973
388,0.0
425,0.0
450,0.0
451,0.0
452,-1.6328405691888777
453,0.0
490,0.0
515,0.0
516,0.0
542,0.0
592,2700736.3444888154
632,1688536.6579904428
686,0.6456437340577345
687,0.3333333333333332
688,1.3333333333333328
2,21, 1,21, 0, 2,30.00,40.00,Monday
250,17.985488864429556
251,3474357.4636950786
336,0.0
385,17.979999999999997
386,25.079999999999988
387,-0.6074833420252204
388,0.0
425,0.0
450,0.0
451,0.0
452,-1.6521755254623298
453,0.0
490,0.0
515,0.0
516,0.0
542,0.0
592,2300212.23667149
632,1270950.4417094043
686,0.560768945251011
687,0.25
688,1.0
2,21, 1,21, 0, 2,40.00,50.00,Monday
250,18.232492651684623
251,4299692.939996236
336,0.0
385,18.313333333333347
386,25.08000000000002
387,-0.6211178810850938
388,0.0
425,0.0
450,0.0
451,0.0
452,-1.6647485688699808
453,0.0
490,0.0
515,0.0
516,0.0
542,0.0
592,2732463.754861122
632,1694749.6437365902
686,0.6545304268826085
687,0.3333333333333336
688,1.3333333333333344
2,21, 1,21, 0, 2,50.00,60.00,Monday
250,17.98327189861761
251,3508335.428442448
336,0.0
385,17.98
386,25.08
387,-0.6338582835027485
388,0.0
425,0.0
450,0.0
451,0.0
452,-1.6711990858377432
453,0.0
490,0.0
515,0.0
516,0.0
542,0.0
592,2332164.407070447
632,1271788.397913002
686,0.5697136181376575
687,0.25
688,1.0
2,21, 1,21, 0, 3, 0.00,10.00,Monday
250,18.232791484093
251,4330530.345312641
336,0.0
385,18.313333333333333
386,25.08
387,-0.6355450994749839
388,0.0
425,0.0
450,0.0
451,0.0
452,-1.6654680703085263
453,0.0
490,0.0
515,0.0
516,0.0
542,0.0
592,2756244.8646680224
632,1699518.9018260418
686,0.6606376838615111
687,0.3333333333333333
688,1.3333333333333335
2,21, 1,21, 0, 3,10.00,20.00,Monday
250,17.982533893682863
251,3526934.6371925212
336,0.0
385,17.98
386,25.08
387,-0.6282226506806596
388,0.0
425,0.0
450,0.0
451,0.0
452,-1.6433400304789592
453,0.0
490,0.0
515,0.0
516,0.0
542,0.0
592,2348262.889620716
632,1273768.9237320395
686,0.5732594680667644
687,0.25
688,1.0
2,21, 1,21, 0, 3,20.00,30.00,Monday
250,18.23290571672314
251,4348734.12210107
336,0.0
385,18.313333333333325
386,25.079999999999988
387,-0.6145979935925097
388,0.0
425,0.0
450,0.0
451,0.0
452,-1.6049073071108166
453,0.0
490,0.0
515,0.0
516,0.0
542,0.0
592,2769246.53995583
632,1703801.4933590984
686,0.6632165500604577
687,0.3333333333333332
688,1.3333333333333328
2,21, 1,21, 0, 3,30.00,40.00,Monday
250,17.981830435818797
251,3543726.3176010423
336,0.0
385,17.979999999999997
386,25.079999999999988
387,-0.5959857873682841
388,0.0
425,0.0
450,0.0
451,0.0
452,-1.5525288944332263
453,0.0
490,0.0
515,0.0
516,0.0
542,0.0
592,2362851.3281525965
632,1275526.292303192
686,0.5764280749294036
687,0.25
688,1.0
2,21, 1,21, 0, 3,40.00,50.00,Monday
250,18.232997096121295
251,4364685.57438245
336,0.0
385,18.313333333333347
386,25.08000000000002
387,-0.5732509403767128
388,0.0
425,0.0
450,0.0
451,0.0
452,-1.4883783355643396
453,0.0
490,0.0
515,0.0
516,0.0
542,0.0
592,2780551.0877700686
632,1707689.1549535382
686,0.6653811148428855
687,0.3333333333333336
688,1.3333333333333344
2,21, 1,21, 0, 3,50.00,60.00,Monday
250,17.981244380848977
251,3558482.083779664
336,0.0
385,17.98
386,25.08
387,-0.5476467945391389
388,0.0
425,0.0
450,0.0
451,0.0
452,-1.416478775707204
453,0.0
490,0.0
515,0.0
516,0.0
542,0.0
592,2375528.520365884
632,1277229.0181903504
686,0.579111501641615
687,0.25
688,1.0
2,21, 1,21, 0, 4, 0.00,10.00,Monday
250,18.233118369999033
251,4381803.026172699
336,0.0
385,18.313333333333333
386,25.08
387,-0.5296963578220186
388,0.0
425,0.0
450,0.0
451,0.0
452,-1.3456933125672526
453,0.0
490,0.0
515,0.0
516,0.0
542,0.0
592,2792307.1334840124
632,1712034.9729874455
686,0.6682152878406528
687,0.3333333333333333
688,1.3333333333333335
2,21, 1,21, 0, 4,10.00,20.00,Monday
250,17.980195190229708
251,3576828.044162064
336,0.0
385,17.98
386,25.08
387,-0.5183296226294464
388,0.0
425,0.0
450,0.0
451,0.0
452,-1.285241531063385
453,0.0
490,0.0
515,0.0
516,0.0
542,0.0
592,2391590.3144639777
632,1278907.3791707936
686,0.58363129352339
687,0.25
688,1.0
2,21, 1,21, 0, 4,20.00,30.00,Monday
250,18.23329116670229
251,4401330.986872315
336,0.0
385,18.313333333333325
386,25.079999999999988
387,-0.5106174140535602
388,0.0
425,0.0
450,0.0
451,0.0
452,-1.2350612286635658
453,0.0
490,0.0
515,0.0
516,0.0
542,0.0
592,2805983.4547014507
632,1716462.136758646
686,0.6720819963294512
687,0.3333333333333332
688,1.3333333333333328
2,21, 1,21, 0, 4,30.00,40.00,Monday
250,17.97923368538352
251,3593944.1416088175
336,0.0
385,17.979999999999997
386,25.079999999999988
387,-0.5057376450162994
388,0.0
425,0.0
450,0.0
451,0.0
452,-1.1966496752609708
453,0.0
490,0.0
515,0.0
516,0.0
542,0.0
592,2406541.048854227
632,1280512.166867883
686,0.5878424544276856
687,0.25
688,1.0
2,21, 1,21, 0, 4,40.00,50.00,Monday
250,18.233450462591332
251,4419469.133637409
336,0.0
385,18.313333333333347
386,25.08000000000002
387,-0.5026463380004847
388,0.0
425,0.0
450,0.0
451,0.0
452,-1.1665575064220308
453,0.0
490,0.0
515,0.0
516,0.0
542,0.0
592,2818715.96743807
632,1720540.9153586596
686,0.6756863368393352
687,0.3333333333333336
688,1.3333333333333344
2,21, 1,21, 0, 4,50.00,60.00,Monday
250,17.97850500617366
251,3610044.7954524704
336,0.0
385,17.98
386,25.08
387,-0.501089700731169
388,0.0
425,0.0
450,0.0
451,0.0
452,-1.1442699643411143
453,0.0
490,0.0
515,0.0
516,0.0
542,0.0
592,2421622.092767604
632,1280930.6821570771
686,0.5920905680968342
687,0.25
688,1.0
2,21, 1,21, 0, 5, 0.00,10.00,Monday
250,18.233693662293344
251,4443375.259971859
336,0.0
385,18.313333333333333
386,25.08
387,-0.5004704218844214
388,0.0
425,0.0
450,0.0
451,0.0
452,-1.12627031466159
453,0.0
490,0.0
515,0.0
516,0.0
542,0.0
592,2832748.360907731
632,1728263.750127359
686,0.6817545557496063
687,0.3333333333333333
688,1.3333333333333335
2,21, 1,21, 0, 5,10.00,20.00,Monday
250,17.976482944463832
251,3635236.4294967973
336,0.0
385,17.98
386,25.08
387,-0.5005805850080809
388,0.0
425,0.0
450,0.0
451,0.0
452,-1.111264718619208
453,0.0
490,0.0
515,0.0
516,0.0
542,0.0
592,2440643.4440717357
632,1285978.289708666
686,0.6010651722085624
687,0.25
688,1.0
2,21, 1,21, 0, 5,20.00,30.00,Monday
250,18.234060199260924
251,4474782.596772239
336,0.0
385,18.313333333333325
386,25.079999999999988
387,-0.5011716519009678
388,0.0
425,0.0
450,0.0
451,0.0
452,-1.0973475597843185
453,0.0
490,0.0
515,0.0
516,0.0
542,0.0
592,2850485.6033526077
632,1738665.085775948
686,0.691032495154349
687,0.3333333333333332
688,1.3333333333333328
2,21, 1,21, 0, 5,30.00,40.00,Monday
250,18.44522569510363
251,4017141.585392518
336,0.0
385,18.31333333333334
386,25.08000000000001
387,-0.5023445101557691
388,0.0
425,0.0
450,0.0
451,0.0
452,-1.0803744530057333
453,0.0
490,0.0
515,0.0
516,0.0
542,0.0
592,3154031.183161011
632,822276.0179336041
686,0.6666666666666667
687,0.6666666666666667
688,1.3333333333333335
2,21, 1,21, 0, 5,40.00,50.00,Monday
250,18.146937287897497
251,2900449.1234354204
336,0.0
385,17.78
386,25.08
387,-0.5033608980455689
388,0.0
425,0.0
450,0.0
451,0.0
452,-1.0695650283278093
453,0.0
490,0.0
515,0.0
516,0.0
542,0.0
592,954874.4084807766
632,2087099.4009641812
686,0.20372800672102542
687,0.2
688,0.6000000000000001
2,21, 1,21, 0, 5,50.00,60.00,Monday
250,18.086779057415946
251,3192422.627420462
336,0.0
385,17.98
386,25.08
387,-0.5046372834091066
388,0.0
425,0.0
450,0.0
451,0.0
452,-1.0587950009439828
453,0.0
490,0.0
515,0.0
516,0.0
542,0.0
592,1630119.3750693533
632,1711963.389951636
686,0.3794033448447439
687,0.25
688,1.0
2,21, 1,21, 0, 6, 0.00,10.00,Monday
250,18.233076965435828
251,4601402.539281106
336,0.0
385,18.313333333333333
386,25.08
387,-0.5063528237549749
388,0.0
425,0.0
450,0.0
451,0.0
452,-1.0487076222932215
453,0.0
490,0.0
515,0.0
516,0.0
542,0.0
592,2819369.1569084246
632,1902277.7798240385
686,0.6889291448778398
687,0.3333333333333333
688,1.3333333333333335
2,21, 1,21, 0, 6,10.00,20.00,Monday
250,18.432327849377057
251,4123016.952044973
336,0.0
385,18.313333333333333
386,25.08
387,-0.5089941646958052
388,0.0
425,0.0
450,0.0
451,0.0
452,-1.0377956461499935
453,0.0
490,0.0
515,0.0
516,0.0
542,0.0
592,3136591.3158751884
632,945795.2975146719
686,0.6666666666666667
687,0.6666666666666667
688,1.3333333333333335
2,21, 1,21, 0, 6,20.00,30.00,Monday
250,18.123539208084935
251,2956561.7192723765
336,0.0
385,17.78
386,25.08
387,-0.5109089736228832
388,0.0
425,0.0
450,0.0
451,0.0
452,-1.0330001907641169
453,0.0
490,0.0
515,0.0
516,0.0
542,0.0
592,1010158.5360616051
632,2075932.4063141018
686,0.22014016554534668
687,0.2
688,0.6000000000000001
2,21, 1,21, 0, 6,30.00,40.00,Monday
250,18.077605076728137
251,3285934.346838454
336,0.0
385,17.98
386,25.08
387,-0.5131125763442526
388,0.0
425,0.0
450,0.0
451,0.0
452,-1.0294305561446608
453,0.0
490,0.0
515,0.0
516,0.0
542,0.0
592,1726935.3749209603
632,1698138.7801391934
686,0.40687849024730705
687,0.25
688,1.0
2,21, 1,21, 0, 6,40.00,50.00,Monday
250,18.233996588301157
251,4687648.630792967
336,0.0
385,18.313333333333347
386,25.08000000000002
387,-0.5157440414766747
388,0.0
425,0.0
450,0.0
451,0.0
452,-1.0268469186020592
453,0.0
490,0.0
515,0.0
516,0.0
542,0.0
592,2880399.641358395
632,1920811.6916327865
686,0.7063451593830412
687,0.3333333333333336
688,1.3333333333333344
2,21, 1,21, 0, 6,50.00,60.00,Monday
250,18.426141877940616
251,4171700.4085458433
336,0.0
385,18.313333333333347
386,25.08000000000002
387,-0.519524444574182
388,0.0
425,0.0
450,0.0
451,0.0
452,-1.024658928462479
453,0.0
490,0.0
515,0.0
516,0.0
542,0.0
592,3136094.3943345807
632,994850.9253603974
686,0.6666666666666672
687,0.6666666666666672
688,1.3333333333333344
2,21, 1,21, 0, 7, 0.00,10.00,Monday
250,18.022199731572993
251,2873972.732151575
336,0.0
385,17.78
386,25.08
387,-0.5249411262155095
388,0.0
425,0.0
450,0.0
451,0.0
452,-1.0310035930687707
453,0.0
490,0.0
515,0.0
516,0.0
542,0.0
592,1367519.8412200774
632,1612221.1719582235
686,0.3189459101819639
687,0.2
688,0.8
2,21, 1,21, 0, 7,10.00,20.00,Monday
250,18.237933258155966
251,4880621.0417966265
336,0.0
385,18.313333333333333
386,25.08
387,-0.5344348139706598
388,0.0
425,0.0
450,0.0
451,0.0
452,-1.0526839655422524
453,0.0
490,0.0
515,0.0
516,0.0
542,0.0
592,3113905.2102623014
632,1854077.4989232582
686,0.7616110116816275
687,0.33333333333333337
688,1.3333333333333333
2,21, 1,21, 0, 7,20.00,30.00,Monday
250,18.409472179190107
251,4298478.702300375
336,0.0
385,18.313333333333325
386,25.079999999999988
387,-0.5513596812592283
388,0.0
425,0.0
450,0.0
451,0.0
452,-1.1001325684606806
453,0.0
490,0.0
515,0.0
516,0.0
542,0.0
592,3194764.9550338974
632,1062411.3194479258
686,0.6666666666666664
687,0.6666666666666664
688,1.3333333333333328
2,21, 1,21, 0, 7,30.00,40.00,Monday
250,18.011224320417195
251,2931330.342452868
336,0.0
385,17.779999999999994
386,25.07999999999999
387,-0.5665357498464525
388,0.0
425,0.0
450,0.0
451,0.0
452,-1.151891303813517
453,0.0
490,0.0
515,0.0
516,0.0
542,0.0
592,1455637.1915866104
632,1578003.8924473922
686,0.33627051416015175
687,0.2
688,0.8
2,21, 1,21, 0, 7,40.00,50.00,Monday
250,18.238916926739943
251,4993913.347181115
336,0.0
385,18.313333333333347
386,25.08000000000002
387,-0.5850988664673957
388,0.0
425,0.0
450,0.0
451,0.0
452,-1.2166359876612232
453,0.0
490,0.0
515,0.0
516,0.0
542,0.0
592,3247204.976619423
632,1826134.8584671556
686,0.7824024622141903
687,0.3333333333333336
688,1.3333333333333344
2,21, 1,21, 0, 7,50.00,60.00,Monday
250,18.397145933954846
251,4394223.740143349
336,0.0
385,18.313333333333347
386,25.08000000000002
387,-0.612889750437698
388,0.0
425,0.0
450,0.0
451,0.0
452,-1.3094631908273475
453,0.0
490,0.0
515,0.0
516,0.0
542,0.0
592,3253516.983232255
632,1099250.031780553
686,0.6666666666666672
687,0.6666666666666672
688,1.3333333333333344
2,21, 1,21, 0, 8, 0.00,10.00,Monday
250,18.1282978336497
251,2887045.095495886
336,0.0
385,17.78
386,25.08
387,-0.6044167745413497
388,0.0
425,0.0
450,0.0
451,0.0
452,-1.3566785459781758
453,0.0
490,0.0
515,0.0
516,0.0
542,0.0
592,1018515.7194441108
632,2004697.410523031
686,0.2110101437666316
687,0.2
688,0.6000000000000001
2,21, 1,21, 0, 8,10.00,20.00,Monday
250,17.595946834850327
251,2917922.491702711
336,0.0
385,17.48
386,25.08
387,-0.57147885209446
388,0.0
425,0.0
450,0.0
451,0.0
452,-1.3396862220477201
453,0.0
490,0.0
515,0.0
516,0.0
542,0.0
592,1855426.2182427994
632,1200075.9194790747
686,0.41942522723016507
687,0.25
688,0.75
2,21, 1,21, 0, 8,20.00,30.00,Monday
250,18.29530963980909
251,5615731.30024334
336,0.0
385,18.180000000000003
386,25.08
387,-0.5206782543239835
388,0.0
425,0.0
450,0.0
451,0.0
452,-1.240589815076848
453,0.0
490,0.0
515,0.0
516,0.0
542,0.0
592,2530290.762185991
632,3269490.3808338996
686,0.5504380936171378
687,0.4
688,1.2000000000000002
2,21, 1,21, 0, 8,30.00,40.00,Monday
250,18.43811533198775
251,3819936.6520926044
336,0.0
385,18.313333333333347
386,25.08000000000002
387,-0.45250518253700067
388,0.0
425,0.0
450,0.0
451,0.0
452,-1.0644817849317945
453,0.0
490,0.0
515,0.0
516,0.0
542,0.0
592,3137787.1376602147
632,636325.5292927792
686,0.6666666666666672
687,0.5275015101740712
688,1.3333333333333344
2,21, 1,21, 0, 8,40.00,50.00,Monday
250,17.99470290483759
251,2816833.664627492
336,0.0
385,17.78
386,25.08
387,-0.36821595900801485
388,0.0
425,0.0
450,0.0
451,0.0
452,-0.81245002395785
453,0.0
490,0.0
515,0.0
516,0.0
542,0.0
592,1663061.80281713
632,1250831.6283909131
686,0.3771263568824803
687,0.2
688,0.8
2,21, 1,21, 0, 8,50.00,60.00,Monday
250,18.229902395813546
251,4043717.9512153855
336,0.0
385,18.313333333333347
386,25.08000000000002
387,-0.26603515289399293
388,0.0
425,0.0
450,0.0
451,0.0
452,-0.4900275014041104
453,0.0
490,0.0
515,0.0
516,0.0
542,0.0
592,2626825.78496168
632,1568495.4715215685
686,0.5870695536840983
687,0.3333333333333336
688,1.3333333333333344
2,21, 1,21, 0, 9, 0.00,10.00,Monday
250,18.03075863549983
251,2759781.6608163156
336,0.0
385,17.98
386,25.08
387,-0.14387483032524423
388,0.0
425,0.0
450,0.0
451,0.0
452,-0.07882302920836323
453,0.0
490,0.0
515,0.0
516,0.0
542,0.0
592,1706599.5235103576
632,1190804.5367071065
686,0.36778673782200255
687,0.25
688,1.0
2,21, 1,21, 0, 9,10.00,20.00,Monday
250,17.565345090218365
251,2841653.2054158123
336,0.0
385,17.64666666666667
386,25.08
387,-0.0033632030989304736
388,0.0
425,0.0
450,0.0
451,0.0
452,0.4024371062544983
453,0.0
490,0.0
515,0.0
516,0.0
542,0.0
592,2437491.16151239
632,583882.3316307949
686,0.5287655636329747
687,0.3333333333333332
688,0.9999999999999998
2,21, 1,21, 0, 9,20.00,30.00,Monday
250,18.342807252484146
251,4901187.956563836
336,0.0
385,18.180000000000003
386,25.08
387,0.14474978349838266
388,0.0
425,0.0
450,0.0
451,0.0
452,0.9285999902768876
453,0.0
490,0.0
515,0.0
516,0.0
542,0.0
592,2179926.651338298
632,2942714.868256201
686,0.43776937878812
687,0.4
688,1.2000000000000002
2,21, 1,21, 0, 9,30.00,40.00,Monday
250,18.563959583819845
251,2863742.4712907095
336,0.0
385,18.313333333333347
386,25.08000000000002
387,0.304287431861784
388,0.0
425,0.0
450,0.0
451,0.0
452,1.5038087667187585
453,0.0
490,0.0
515,0.0
516,0.0
542,0.0
592,2771354.6073716385
632,55614.438243116456
686,0.6070248714328919
687,0.3333333333333336
688,1.0000000000000009
2,21, 1,21, 0, 9,40.00,50.00,Monday
250,18.22085805184988
251,2683105.352739509
336,0.0
385,18.313333333333347
386,25.08000000000002
387,0.5184312565300402
388,0.0
425,0.0
450,0.0
451,0.0
452,2.259522713239462
453,0.0
490,0.0
515,0.0
516,0.0
542,0.0
592,1992371.1640383326
632,904585.3931245634
686,0.40445959498144163
687,0.3333333333333336
688,1.3333333333333344
2,21, 1,21, 0, 9,50.00,60.00,Monday
250,18.05728254066431
251,2286685.76115205
336,0.0
385,17.98
386,25.08
387,0.6669185127016722
388,0.0
425,0.0
450,0.0
451,0.0
452,2.780839019154214
453,0.0
490,0.0
515,0.0
516,0.0
542,0.0
592,1328841.1865062232
632,1129247.3928172553
686,0.25919199585917474
687,0.25
688,0.75
2,21, 1,21, 0,10, 0.00,10.00,Monday
250,18.243948222588095
251,2665829.8203920587
336,0.0
385,17.98
386,25.08
387,0.9028368679782677
388,0.0
425,0.0
450,0.0
451,0.0
452,3.468008522220943
453,0.0
490,0.0
515,0.0
516,0.0
542,0.0
592,1408268.9814703625
632,1414638.5615026203
686,0.2743713081804242
687,0.25
688,0.75
2,21, 1,21, 0,10,10.00,20.00,Monday
250,17.800285408579747
251,2348974.872348333
336,0.0
385,17.48
386,25.08
387,1.161485991241797
388,0.0
425,0.0
450,0.0
451,0.0
452,4.125902716944872
453,0.0
490,0.0
515,0.0
516,0.0
542,0.0
592,1737487.2451090086
632,756420.4510960347
686,0.3499283193719627
687,0.25
688,0.75
2,21, 1,21, 0,10,20.00,30.00,Monday
250,17.87701930874196
251,370411.19181815634
336,0.0
385,17.48
386,25.08
387,1.4326038793101783
388,0.0
425,0.0
450,0.0
451,0.0
452,4.800650977516259
453,0.0
490,0.0
515,0.0
516,0.0
542,0.0
592,344478.51031348633
632,0.0
686,0.08280385806603154
687,0.0
688,0.25
2,21, 1,21, 0,10,30.00,40.00,Monday
250,18.647811993052237
251,1482087.4090410755
336,0.0
385,18.313333333333347
386,25.08000000000002
387,1.6651903328016933
388,0.0
425,0.0
450,0.0
451,0.0
452,5.400307906809907
453,0.0
490,0.0
515,0.0
516,0.0
542,0.0
592,1527403.8394537298
632,0.0
686,0.36108333763860756
687,0.0
688,0.6666666666666672
2,21, 1,21, 0,10,40.00,50.00,Monday
250,17.410105561613488
251,0.0
336,0.0
385,16.98
386,25.08
387,1.9149220115278138
388,0.0
425,0.0
450,0.0
451,0.0
452,6.0518574549076805
453,0.0
490,0.0
515,0.0
516,0.0
542,0.0
592,0.0
632,0.0
686,0.0
687,0.0
688,0.0
2,21, 1,21, 0,10,50.00,60.00,Monday
250,17.236330000757754
251,0.0
336,0.0
385,16.980000000000015
386,25.08000000000002
387,2.1960973734052702
388,0.0
425,0.0
450,0.0
451,0.0
452,6.8126541997097085
453,0.0
490,0.0
515,0.0
516,0.0
542,0.0
592,0.0
632,0.0
686,0.0
687,0.0
688,0.0
2,21, 1,21, 0,11, 0.00,10.00,Monday
250,17.27528382412689
251,0.0
336,0.0
385,16.98
386,25.08
387,2.4686675483036877
388,0.0
425,0.0
450,0.0
451,0.0
452,7.618027430640165
453,0.0
490,0.0
515,0.0
516,0.0
542,0.0
592,0.0
632,0.0
686,0.0
687,0.0
688,0.0
2,21, 1,21, 0,11,10.00,20.00,Monday
250,17.41105836023342
251,0.0
336,0.0
385,16.98
386,25.08
387,2.8251635394417396
388,0.0
425,0.0
450,0.0
451,0.0
452,8.666276863063839
453,0.0
490,0.0
515,0.0
516,0.0
542,0.0
592,0.0
632,0.0
686,0.0
687,0.0
688,0.0
2,21, 1,21, 0,11,20.00,30.00,Monday
250,17.582581192239537
251,0.0
336,0.0
385,16.98
386,25.08
387,3.1191258541868976
388,0.0
425,0.0
450,0.0
451,0.0
452,9.55883350357389
453,0.0
490,0.0
515,0.0
516,0.0
542,0.0
592,0.0
632,0.0
686,0.0
687,0.0
688,0.0
2,21, 1,21, 0,11,30.00,40.00,Monday
250,17.723420383709172
251,0.0
336,0.0
385,16.980000000000015
386,25.08000000000002
387,3.3551699788922322
388,0.0
425,0.0
450,0.0
451,0.0
452,10.268950478470353
453,0.0
490,0.0
515,0.0
516,0.0
542,0.0
592,0.0
632,0.0
686,0.0
687,0.0
688,0.0
2,21, 1,21, 0,11,40.00,50.00,Monday
250,17.91328269327417
251,0.0
336,0.0
385,16.980000000000015
386,25.08000000000002
387,3.6665511609102355
388,0.0
425,0.0
450,0.0
451,0.0
452,11.097563207663475
453,0.0
490,0.0
515,0.0
516,0.0
542,0.0
592,0.0
632,0.0
686,0.0
687,0.0
688,0.0
2,21, 1,21, 0,11,50.00,60.00,Monday
250,17.725326459675294
251,0.0
336,0.0
385,16.980000000000015
386,25.08000000000002
387,3.95205734005612
388,0.0
425,0.0
450,0.0
451,0.0
452,11.74102177960689
453,0.0
490,0.0
515,0.0
516,0.0
542,0.0
592,0.0
632,0.0
686,0.0
687,0.0
688,0.0
2,21, 1,21, 0,12, 0.00,10.00,Monday
250,17.89396539925908
251,0.0
336,0.0
385,16.98
386,25.08
387,4.191205504763112
388,0.0
425,0.0
450,0.0
451,0.0
452,12.24342814051937
453,0.0
490,0.0
515,0.0
516,0.0
542,0.0
592,0.0
632,0.0
686,0.0
687,0.0
688,0.0
2,21, 1,21, 0,12,10.00,20.00,Monday
250,17.92607510622936
251,0.0
336,0.0
385,16.98
386,25.08
387,4.480470841679454
388,0.0
425,0.0
450,0.0
451,0.0
452,12.80589009480671
453,0.0
490,0.0
515,0.0
516,0.0
542,0.0
592,0.0
632,0.0
686,0.0
687,0.0
688,0.0
2,21, 1,21, 0,12,20.00,30.00,Monday
250,17.721165132382588
251,0.0
336,0.0
385,16.98
386,25.08
387,4.747718872864736
388,0.0
425,0.0
450,0.0
451,0.0
452,13.318919992948807
453,0.0
490,0.0
515,0.0
516,0.0
542,0.0
592,0.0
632,0.0
686,0.0
687,0.0
688,0.0
2,21, 1,21, 0,12,30.00,40.00,Monday
250,17.97819257239201
251,0.0
336,0.0
385,16.98
386,25.08
387,5.004747750978919
388,0.0
425,0.0
450,0.0
451,0.0
452,13.80553284223974
453,0.0
490,0.0
515,0.0
516,0.0
542,0.0
592,0.0
632,0.0
686,0.0
687,0.0
688,0.0
2,21, 1,21, 0,12,40.00,50.00,Monday
250,17.951244560965726
251,0.0
336,0.0
385,16.98
386,25.08
387,5.256916600237384
388,0.0
425,0.0
450,0.0
451,0.0
452,14.24192095492989
453,0.0
490,0.0
515,0.0
516,0.0
542,0.0
592,0.0
632,0.0
686,0.0
687,0.0
688,0.0
2,21, 1,21, 0,12,50.00,60.00,Monday
250,17.904435889985038
251,0.0
336,0.0
385,16.98
386,25.08
387,5.503513140284987
388,0.0
425,0.0
450,0.0
451,0.0
452,14.606218865006223
453,0.0
490,0.0
515,0.0
516,0.0
542,0.0
592,0.0
632,0.0
686,0.0
687,0.0
688,0.0
2,21, 1,21, 0,13, 0.00,10.00,Monday
250,18.081967017720814
251,0.0
336,0.0
385,16.98
386,25.08
387,5.733128760003925
388,0.0
425,0.0
450,0.0
451,0.0
452,14.889757681455386
453,0.0
490,0.0
515,0.0
516,0.0
542,0.0
592,0.0
632,0.0
686,0.0
687,0.0
688,0.0
2,21, 1,21, 0,13,10.00,20.00,Monday
250,17.93618252639438
251,0.0
336,0.0
385,16.98
386,25.08
387,5.943899359196278
388,0.0
425,0.0
450,0.0
451,0.0
452,15.110092734588985
453,0.0
490,0.0
515,0.0
516,0.0
542,0.0
592,0.0
632,0.0
686,0.0
687,0.0
688,0.0
2,21, 1,21, 0,13,20.00,30.00,Monday
250,18.1368735357861
251,0.0
336,0.0
385,16.98
386,25.08
387,6.1439685308647025
388,0.0
425,0.0
450,0.0
451,0.0
452,15.292204125253292
453,0.0
490,0.0
515,0.0
516,0.0
542,0.0
592,0.0
632,0.0
686,0.0
687,0.0
688,0.0
2,21, 1,21, 0,13,30.00,40.00,Monday
250,17.86639450613716
251,0.0
336,0.0
385,16.98
386,25.08
387,6.336968507794458
388,0.0
425,0.0
450,0.0
451,0.0
452,15.44210471495272
453,0.0
490,0.0
515,0.0
516,0.0
542,0.0
592,0.0
632,0.0
686,0.0
687,0.0
688,0.0
2,21, 1,21, 0,13,40.00,50.00,Monday
250,18.092472913421116
251,0.0
336,0.0
385,16.98
386,25.08
387,6.5057691698807165
388,0.0
425,0.0
450,0.0
451,0.0
452,15.546781070519081
453,0.0
490,0.0
515,0.0
516,0.0
542,0.0
592,0.0
632,0.0
686,0.0
687,0.0
688,0.0
2,21, 1,21, 0,13,50.00,60.00,Monday
250,17.990881185776644
251,0.0
336,0.0
385,16.98
386,25.08
387,6.687508880546458
388,0.0
425,0.0
450,0.0
451,0.0
452,15.634498544944972
453,0.0
490,0.0
515,0.0
516,0.0
542,0.0
592,0.0
632,0.0
686,0.0
687,0.0
688,0.0
2,21, 1,21, 0,14, 0.00,10.00,Monday
250,18.30956335884835
251,0.0
336,0.0
385,16.98
386,25.08
387,6.857456874193199
388,0.0
425,0.0
450,0.0
451,0.0
452,15.6837793517796
453,0.0
490,0.0
515,0.0
516,0.0
542,0.0
592,0.0
632,0.0
686,0.0
687,0.0
688,0.0
2,21, 1,21, 0,14,10.00,20.00,Monday
250,18.250323755009333
251,0.0
336,0.0
385,16.98
386,25.08
387,7.0418129954817745
388,0.0
425,0.0
450,0.0
451,0.0
452,15.682992778478535
453,0.0
490,0.0
515,0.0
516,0.0
542,0.0
592,0.0
632,0.0
686,0.0
687,0.0
688,0.0
2,21, 1,21, 0,14,20.00,30.00,Monday
250,18.0536765720856
251,0.0
336,0.0
385,16.98
386,25.08
387,7.230540174346992
388,0.0
425,0.0
450,0.0
451,0.0
452,15.626911476311705
453,0.0
490,0.0
515,0.0
516,0.0
542,0.0
592,0.0
632,0.0
686,0.0
687,0.0
688,0.0
2,21, 1,21, 0,14,30.00,40.00,Monday
250,17.949670336073137
251,0.0
336,0.0
385,16.98
386,25.08
387,7.403279777393578
388,0.0
425,0.0
450,0.0
451,0.0
452,15.50124041255748
453,0.0
490,0.0
515,0.0
516,0.0
542,0.0
592,0.0
632,0.0
686,0.0
687,0.0
688,0.0
2,21, 1,21, 0,14,40.00,50.00,Monday
250,18.265796879331
251,0.0
336,0.0
385,16.980000000000015
386,25.08000000000002
387,7.529159406835431
388,0.0
425,0.0
450,0.0
451,0.0
452,15.312203035721769
453,0.0
490,0.0
515,0.0
516,0.0
542,0.0
592,0.0
632,0.0
686,0.0
687,0.0
688,0.0
2,21, 1,21, 0,14,50.00,60.00,Monday
250,18.308014409728823
251,0.0
336,0.0
385,16.98
386,25.08
387,7.661829399386393
388,0.0
425,0.0
450,0.0
451,0.0
452,15.017053457922987
453,0.0
490,0.0
515,0.0
516,0.0
542,0.0
592,0.0
632,0.0
686,0.0
687,0.0
688,0.0
2,21, 1,21, 0,15, 0.00,10.00,Monday
250,18.21565703380508
251,0.0
336,0.0
385,16.98
386,25.08
387,7.791687944864023
388,0.0
425,0.0
450,0.0
451,0.0
452,14.700937415744162
453,0.0
490,0.0
515,0.0
516,0.0
542,0.0
592,0.0
632,0.0
686,0.0
687,0.0
688,0.0
2,21, 1,21, 0,15,10.00,20.00,Monday
250,18.108904039171144
251,0.0
336,0.0
385,16.98
386,25.08
387,7.947258552985597
388,0.0
425,0.0
450,0.0
451,0.0
452,14.30459925796356
453,0.0
490,0.0
515,0.0
516,0.0
542,0.0
592,0.0
632,0.0
686,0.0
687,0.0
688,0.0
2,21, 1,21, 0,15,20.00,30.00,Monday
250,18.094650232864577
251,0.0
336,0.0
385,16.98
386,25.08
387,8.08108167135482
388,0.0
425,0.0
450,0.0
451,0.0
452,13.958466642843668
453,0.0
490,0.0
515,0.0
516,0.0
542,0.0
592,0.0
632,0.0
686,0.0
687,0.0
688,0.0
2,21, 1,21, 0,15,30.00,40.00,Monday
250,18.13057206442868
251,0.0
336,0.0
385,16.98
386,25.08
387,8.21209654501015
388,0.0
425,0.0
450,0.0
451,0.0
452,13.664841641775713
453,0.0
490,0.0
515,0.0
516,0.0
542,0.0
592,0.0
632,0.0
686,0.0
687,0.0
688,0.0
2,21, 1,21, 0,15,40.00,50.00,Monday
250,18.196163850498014
251,0.0
336,0.0
385,16.98
386,25.08