Program Version,EnergyPlus, Version 24.2.0-94a887817b, YMD=2025.01.30 20:36
1,5,Environment Title[],Latitude[deg],Longitude[deg],Time Zone[],Elevation[m]
2,8,Day of Simulation[],Month[],Day of Month[],DST Indicator[1=yes 0=no],Hour[],StartMinute[],EndMinute[],DayType
3,5,Cumulative Day of Simulation[],Month[],Day of Month[],DST Indicator[1=yes 0=no],DayType  ! When Daily Meters Requested
4,2,Cumulative Days of Simulation[],Month[]  ! When Monthly Meters Requested
5,1,Cumulative Days of Simulation[] ! When Run Period Meters Requested
6,1,Calendar Year of Simulation[] ! When Annual Meters Requested
11,9,Electricity:Facility [J] !Monthly [Value,Min,Day,Hour,Minute,Max,Day,Hour,Minute]
23,9,Electricity:Building [J] !Monthly [Value,Min,Day,Hour,Minute,Max,Day,Hour,Minute]
59,9,InteriorLights:Electricity [J] !Monthly [Value,Min,Day,Hour,Minute,Max,Day,Hour,Minute]
521,9,Electricity:HVAC [J] !Monthly [Value,Min,Day,Hour,Minute,Max,Day,Hour,Minute]
637,9,NaturalGas:Facility [J] !Monthly [Value,Min,Day,Hour,Minute,Max,Day,Hour,Minute]
649,9,NaturalGas:HVAC [J] !Monthly [Value,Min,Day,Hour,Minute,Max,Day,Hour,Minute]
13,11,Electricity:Facility [J] !RunPeriod [Value,Min,Month,Day,Hour,Minute,Max,Month,Day,Hour,Minute]
25,11,Electricity:Building [J] !RunPeriod [Value,Min,Month,Day,Hour,Minute,Max,Month,Day,Hour,Minute]
61,11,InteriorLights:Electricity [J] !RunPeriod [Value,Min,Month,Day,Hour,Minute,Max,Month,Day,Hour,Minute]
523,11,Electricity:HVAC [J] !RunPeriod [Value,Min,Month,Day,Hour,Minute,Max,Month,Day,Hour,Minute]
639,11,NaturalGas:Facility [J] !RunPeriod [Value,Min,Month,Day,Hour,Minute,Max,Month,Day,Hour,Minute]
651,11,NaturalGas:HVAC [J] !RunPeriod [Value,Min,Month,Day,Hour,Minute,Max,Month,Day,Hour,Minute]
End of Data Dictionary
1,RUN PERIOD 1,  41.98, -87.92,  -6.00, 201.00
4,31, 1
11,6745549444.803718,150000.0,11,19,10,3395549.4217088665,14,12,30
23,1804601099.449663,30000.0, 1, 3,20,1132977.420606933, 7,10,50
59,970200000.0,30000.0, 1, 1,10,600000.0, 1, 8,10
521,4940948345.3540325,0.0,16,15,60,2312999.6675753626, 2, 7,60
637,14224380685.273073,0.0, 1, 3,20,20866187.93579555,27, 7,40
649,14224380685.273073,0.0, 1, 3,20,20866187.93579555,27, 7,40
4,59, 2
11,5453204288.001752,30000.0,23, 8,10,-99999999999999.0,14,12,30
23,1551065961.4381063,99999999999999.0, 1, 3,20,-99999999999999.0, 7,10,50
59,848160000.0,99999999999999.0, 1, 1,10,-99999999999999.0, 1, 8,10
521,3902138326.5636897,99999999999999.0,16,15,60,2325133.660015049,14, 8,30
637,8561197995.881916,99999999999999.0, 1, 3,20,-99999999999999.0,27, 7,40
649,8561197995.881916,99999999999999.0, 1, 3,20,-99999999999999.0,27, 7,40
4,90, 3
11,4394111281.109301,99999999999999.0,23, 8,10,-99999999999999.0,14,12,30
23,1632250756.2582896,99999999999999.0, 1, 3,20,-99999999999999.0, 7,10,50
59,897480000.0,99999999999999.0, 1, 1,10,-99999999999999.0, 1, 8,10
521,2761860524.85103,99999999999999.0,16,15,60,-99999999999999.0,14, 8,30
637,3265288571.5329995,99999999999999.0, 1, 3,20,-99999999999999.0,27, 7,40
649,3265288571.5329995,99999999999999.0, 1, 3,20,-99999999999999.0,27, 7,40
4,120, 4
11,3504008184.556916,99999999999999.0,23, 8,10,-99999999999999.0,14,12,30
23,1644747888.4089608,99999999999999.0, 1, 3,20,-99999999999999.0, 7,10,50
59,929520000.0,99999999999999.0, 1, 1,10,-99999999999999.0, 1, 8,10
521,1859260296.1479762,99999999999999.0,16,15,60,-99999999999999.0,14, 8,30
637,1688078151.2782578,99999999999999.0, 1, 3,20,-99999999999999.0,27, 7,40
649,1688078151.2782578,99999999999999.0, 1, 3,20,-99999999999999.0,27, 7,40
4,151, 5
11,2665241591.0616927,99999999999999.0,23, 8,10,-99999999999999.0,14,12,30
23,1727799906.4175408,99999999999999.0, 1, 3,20,-99999999999999.0, 7,10,50
59,970200000.0,99999999999999.0, 1, 1,10,-99999999999999.0, 1, 8,10
521,937441684.644117,99999999999999.0,16,15,60,-99999999999999.0,14, 8,30
637,67878363.73119804,99999999999999.0, 1, 3,20,-99999999999999.0,27, 7,40
649,67878363.73119804,99999999999999.0, 1, 3,20,-99999999999999.0,27, 7,40
4,181, 6
11,3198306328.764064,99999999999999.0,23, 8,10,-99999999999999.0,14,12,30
23,1498492212.031582,99999999999999.0, 1, 3,20,-99999999999999.0, 7,10,50
59,856800000.0,99999999999999.0, 1, 1,10,-99999999999999.0, 1, 8,10
521,1699814116.7324584,99999999999999.0,16,15,60,-99999999999999.0,14, 8,30
637,0.0,99999999999999.0, 1, 3,20,-99999999999999.0,27, 7,40
649,0.0,99999999999999.0, 1, 3,20,-99999999999999.0,27, 7,40
4,212, 7
11,4245762849.386895,99999999999999.0,23, 8,10,-99999999999999.0,14,12,30
23,1614578294.7917745,99999999999999.0, 1, 3,20,-99999999999999.0, 7,10,50
59,970200000.0,99999999999999.0, 1, 1,10,-99999999999999.0, 1, 8,10
521,2631184554.5950756,99999999999999.0,16,15,60,-99999999999999.0,14, 8,30
637,0.0,99999999999999.0, 1, 3,20,-99999999999999.0,27, 7,40
649,0.0,99999999999999.0, 1, 3,20,-99999999999999.0,27, 7,40
4,243, 8
11,3442185444.2880077,99999999999999.0,23, 8,10,-99999999999999.0,14,12,30
23,1617021884.1938014,99999999999999.0, 1, 3,20,-99999999999999.0, 7,10,50
59,933840000.0,99999999999999.0, 1, 1,10,-99999999999999.0, 1, 8,10
521,1825163560.0941808,99999999999999.0,16,15,60,-99999999999999.0,14, 8,30
637,0.0,99999999999999.0, 1, 3,20,-99999999999999.0,27, 7,40
649,0.0,99999999999999.0, 1, 3,20,-99999999999999.0,27, 7,40
4,273, 9
11,2653469136.794178,99999999999999.0,23, 8,10,-99999999999999.0,14,12,30
23,1594804175.7678676,99999999999999.0, 1, 3,20,-99999999999999.0, 7,10,50
59,893160000.0,99999999999999.0, 1, 1,10,-99999999999999.0, 1, 8,10
521,1058664961.0262979,99999999999999.0,16,15,60,-99999999999999.0,14, 8,30
637,13010761.789475739,99999999999999.0, 1, 3,20,-99999999999999.0,27, 7,40
649,13010761.789475739,99999999999999.0, 1, 3,20,-99999999999999.0,27, 7,40
4,304,10
11,2547742079.918507,99999999999999.0,23, 8,10,-99999999999999.0,14,12,30
23,1735367374.962172,99999999999999.0, 1, 3,20,-99999999999999.0, 7,10,50
59,970200000.0,99999999999999.0, 1, 1,10,-99999999999999.0, 1, 8,10
521,812374704.9563372,99999999999999.0,16,15,60,-99999999999999.0,14, 8,30
637,731392524.6488951,99999999999999.0, 1, 3,20,-99999999999999.0,27, 7,40
649,731392524.6488951,99999999999999.0, 1, 3,20,-99999999999999.0,27, 7,40
4,334,11
11,4369748339.059815,99999999999999.0,23, 8,10,-99999999999999.0,14,12,30
23,1611477277.9222395,99999999999999.0, 1, 3,20,-99999999999999.0, 7,10,50
59,893160000.0,99999999999999.0, 1, 1,10,-99999999999999.0, 1, 8,10
521,2758271061.13759,99999999999999.0,16,15,60,-99999999999999.0,14, 8,30
637,4325931919.286191,99999999999999.0, 1, 3,20,-99999999999999.0,27, 7,40
649,4325931919.286191,99999999999999.0, 1, 3,20,-99999999999999.0,27, 7,40
4,365,12
11,7161667460.792481,99999999999999.0,23, 8,10,-99999999999999.0,14,12,30
23,1729349955.4440544,99999999999999.0, 1, 3,20,-99999999999999.0, 7,10,50
59,933840000.0,99999999999999.0, 1, 1,10,-99999999999999.0, 1, 8,10
521,5432317505.348429,99999999999999.0,16,15,60,2335993.4704964994,31, 1,60
637,10331385238.510437,99999999999999.0, 1, 3,20,-99999999999999.0,27, 7,40
649,10331385238.510437,99999999999999.0, 1, 3,20,-99999999999999.0,27, 7,40
5,365
13,50380996428.53859,30000.0, 2,23, 8,10,3395549.4217088665, 1,14,12,30
25,19761556787.089024,30000.0, 1, 1, 3,20,1132977.420606933, 1, 7,10,50
61,11066760000.0,30000.0, 1, 1, 1,10,600000.0, 1, 1, 8,10
523,30619439641.45082,0.0, 1,16,15,60,2335993.4704964994,12,31, 1,60
639,43208544211.93211,0.0, 1, 1, 3,20,20866187.93579555, 1,27, 7,40
651,43208544211.93211,0.0, 1, 1, 3,20,20866187.93579555, 1,27, 7,40
1,RUN PERIOD 2,  41.98, -87.92,  -6.00, 201.00
4,1, 7
11,133305732.66935988,99999999999999.0,23, 8,10,-99999999999999.0,14,12,30
23,68319811.88017966,99999999999999.0, 1, 3,20,-99999999999999.0, 7,10,50
59,40680000.0,99999999999999.0, 1, 1,10,-99999999999999.0, 1, 8,10
521,64985920.78918014,99999999999999.0,16,15,60,-99999999999999.0,31, 1,60
637,0.0,99999999999999.0, 1, 3,20,-99999999999999.0,27, 7,40
649,0.0,99999999999999.0, 1, 3,20,-99999999999999.0,27, 7,40
5,1
13,133305732.66935988,99999999999999.0, 2,23, 8,10,-99999999999999.0, 1,14,12,30
25,68319811.88017966,99999999999999.0, 1, 1, 3,20,-99999999999999.0, 1, 7,10,50
61,40680000.0,99999999999999.0, 1, 1, 1,10,-99999999999999.0, 1, 1, 8,10
523,64985920.78918014,99999999999999.0, 1,16,15,60,-99999999999999.0,12,31, 1,60
639,0.0,99999999999999.0, 1, 1, 3,20,-99999999999999.0, 1,27, 7,40
651,0.0,99999999999999.0, 1, 1, 3,20,-99999999999999.0, 1,27, 7,40
End of Data
 Number of Records Written=          90
