Program Version,EnergyPlus, Version 24.2.0-94a887817b, YMD=2025.02.04 15:40
1,5,Environment Title[],Latitude[deg],Longitude[deg],Time Zone[],Elevation[m]
2,8,Day of Simulation[],Month[],Day of Month[],DST Indicator[1=yes 0=no],Hour[],StartMinute[],EndMinute[],DayType
3,5,Cumulative Day of Simulation[],Month[],Day of Month[],DST Indicator[1=yes 0=no],DayType  ! When Daily Meters Requested
4,2,Cumulative Days of Simulation[],Month[]  ! When Monthly Meters Requested
5,1,Cumulative Days of Simulation[] ! When Run Period Meters Requested
6,1,Calendar Year of Simulation[] ! When Annual Meters Requested
11,9,Electricity:Facility [J] !Monthly [Value,Min,Day,Hour,Minute,Max,Day,Hour,Minute]
23,9,Electricity:Building [J] !Monthly [Value,Min,Day,Hour,Minute,Max,Day,Hour,Minute]
59,9,InteriorLights:Electricity [J] !Monthly [Value,Min,Day,Hour,Minute,Max,Day,Hour,Minute]
521,9,Electricity:HVAC [J] !Monthly [Value,Min,Day,Hour,Minute,Max,Day,Hour,Minute]
637,9,NaturalGas:Facility [J] !Monthly [Value,Min,Day,Hour,Minute,Max,Day,Hour,Minute]
649,9,NaturalGas:HVAC [J] !Monthly [Value,Min,Day,Hour,Minute,Max,Day,Hour,Minute]
13,11,Electricity:Facility [J] !RunPeriod [Value,Min,Month,Day,Hour,Minute,Max,Month,Day,Hour,Minute]
25,11,Electricity:Building [J] !RunPeriod [Value,Min,Month,Day,Hour,Minute,Max,Month,Day,Hour,Minute]
61,11,InteriorLights:Electricity [J] !RunPeriod [Value,Min,Month,Day,Hour,Minute,Max,Month,Day,Hour,Minute]
523,11,Electricity:HVAC [J] !RunPeriod [Value,Min,Month,Day,Hour,Minute,Max,Month,Day,Hour,Minute]
639,11,NaturalGas:Facility [J] !RunPeriod [Value,Min,Month,Day,Hour,Minute,Max,Month,Day,Hour,Minute]
651,11,NaturalGas:HVAC [J] !RunPeriod [Value,Min,Month,Day,Hour,Minute,Max,Month,Day,Hour,Minute]
End of Data Dictionary
1,RUN PERIOD 1,  41.98, -87.92,  -6.00, 201.00
4,31, 1
11,9823298068.50933,408891.4285714286, 5, 6,50,2979652.926214985,16,13,60
23,984247967.2783048,30000.0, 1, 1,10,610179.6864335601, 1, 9,10
59,970200000.0,30000.0, 1, 1,10,600000.0, 1, 8,10
521,8839050101.230986,378891.4285714286, 5, 6,50,2369473.239781425,16,13,60
637,179153445613.76196,28323540.17747871,21,16,10,41250000.0, 1, 1,10
649,179153445613.76196,28323540.17747871,21,16,10,41250000.0, 1, 1,10
4,59, 2
11,9356751744.784117,99999999999999.0, 5, 6,50,3021114.366478107,22,15,30
23,860375623.720265,99999999999999.0, 1, 1,10,-99999999999999.0, 1, 9,10
59,848160000.0,99999999999999.0, 1, 1,10,-99999999999999.0, 1, 8,10
521,8496376121.063895,99999999999999.0, 5, 6,50,2410934.680044547,22,15,30
637,158573138826.94183,26632543.858173266,23,12,10,-99999999999999.0, 1, 1,10
649,158573138826.94183,26632543.858173266,23,12,10,-99999999999999.0, 1, 1,10
4,90, 3
11,10963049683.142488,99999999999999.0, 5, 6,50,3216346.5132820103,27,14,50
23,910306404.9062783,99999999999999.0, 1, 1,10,-99999999999999.0, 1, 9,10
59,897480000.0,99999999999999.0, 1, 1,10,-99999999999999.0, 1, 8,10
521,10052743278.236181,0.0,27,14,60,2606166.82684845,27,14,50
637,162736139097.6226,0.0,27,14,60,-99999999999999.0, 1, 1,10
649,162736139097.6226,0.0,27,14,60,-99999999999999.0, 1, 1,10
4,120, 4
11,9386815287.612505,30000.0,11,19,10,-99999999999999.0,27,14,50
23,942957186.0922916,99999999999999.0, 1, 1,10,-99999999999999.0, 1, 9,10
59,929520000.0,99999999999999.0, 1, 1,10,-99999999999999.0, 1, 8,10
521,8443858101.520183,99999999999999.0,27,14,60,-99999999999999.0,27,14,50
637,119571538655.36952,99999999999999.0,27,14,60,-99999999999999.0, 1, 1,10
649,119571538655.36952,99999999999999.0,27,14,60,-99999999999999.0, 1, 1,10
4,151, 5
11,8592062515.424063,99999999999999.0,11,19,10,-99999999999999.0,27,14,50
23,984511307.3382813,99999999999999.0, 1, 1,10,626106.8478583345,28,13,10
59,970200000.0,99999999999999.0, 1, 1,10,-99999999999999.0, 1, 8,10
521,7607551208.085653,99999999999999.0,27,14,60,-99999999999999.0,27,14,50
637,90434795941.79213,99999999999999.0,27,14,60,-99999999999999.0, 1, 1,10
649,90434795941.79213,99999999999999.0,27,14,60,-99999999999999.0, 1, 1,10
4,181, 6
11,6307603995.677067,99999999999999.0,11,19,10,-99999999999999.0,27,14,50
23,869101925.1165363,99999999999999.0, 1, 1,10,-99999999999999.0,28,13,10
59,856800000.0,99999999999999.0, 1, 1,10,-99999999999999.0, 1, 8,10
521,5438502070.56043,99999999999999.0,27,14,60,-99999999999999.0,27,14,50
637,40185570146.48771,99999999999999.0,27,14,60,-99999999999999.0, 1, 1,10
649,40185570146.48771,99999999999999.0,27,14,60,-99999999999999.0, 1, 1,10
4,212, 7
11,5632600312.73746,99999999999999.0,11,19,10,-99999999999999.0,27,14,50
23,984520241.6473062,99999999999999.0, 1, 1,10,-99999999999999.0,28,13,10
59,970200000.0,99999999999999.0, 1, 1,10,-99999999999999.0, 1, 8,10
521,4648080071.090099,99999999999999.0,27,14,60,-99999999999999.0,27,14,50
637,12609381149.636402,99999999999999.0,27,14,60,-99999999999999.0, 1, 1,10
649,12609381149.636402,99999999999999.0,27,14,60,-99999999999999.0, 1, 1,10
4,243, 8
11,4877403273.182569,99999999999999.0,11,19,10,-99999999999999.0,27,14,50
23,947555476.6188692,99999999999999.0, 1, 1,10,626205.968554838,12,14,10
59,933840000.0,99999999999999.0, 1, 1,10,-99999999999999.0, 1, 8,10
521,3929847796.5635705,99999999999999.0,27,14,60,-99999999999999.0,27,14,50
637,25488641268.061607,99999999999999.0,27,14,60,-99999999999999.0, 1, 1,10
649,25488641268.061607,99999999999999.0,27,14,60,-99999999999999.0, 1, 1,10
4,273, 9
11,6557024089.678899,99999999999999.0,11,19,10,-99999999999999.0,27,14,50
23,905986404.9062784,99999999999999.0, 1, 1,10,-99999999999999.0,12,14,10
59,893160000.0,99999999999999.0, 1, 1,10,-99999999999999.0, 1, 8,10
521,5651037684.772542,99999999999999.0,27,14,60,-99999999999999.0,27,14,50
637,59889330939.77245,99999999999999.0,27,14,60,-99999999999999.0, 1, 1,10
649,59889330939.77245,99999999999999.0,27,14,60,-99999999999999.0, 1, 1,10
4,304,10
11,10479254997.237995,99999999999999.0,11,19,10,3216458.3172459453,30,14,50
23,984247967.2783048,99999999999999.0, 1, 1,10,-99999999999999.0,12,14,10
59,970200000.0,99999999999999.0, 1, 1,10,-99999999999999.0, 1, 8,10
521,9495007029.959667,99999999999999.0,27,14,60,2606278.6308123856,30,14,50
637,128118687655.7614,99999999999999.0,27,14,60,-99999999999999.0, 1, 1,10
649,128118687655.7614,99999999999999.0,27,14,60,-99999999999999.0, 1, 1,10
4,334,11
11,10407274426.86977,99999999999999.0,11,19,10,-99999999999999.0,30,14,50
23,905986404.9062783,99999999999999.0, 1, 1,10,-99999999999999.0,12,14,10
59,893160000.0,99999999999999.0, 1, 1,10,-99999999999999.0, 1, 8,10
521,9501288021.96349,99999999999999.0,27,14,60,-99999999999999.0,30,14,50
637,147445422026.3136,99999999999999.0,27,14,60,-99999999999999.0, 1, 1,10
649,147445422026.3136,99999999999999.0,27,14,60,-99999999999999.0, 1, 1,10
4,365,12
11,10436227806.47612,99999999999999.0,11,19,10,-99999999999999.0,30,14,50
23,947277186.0922916,99999999999999.0, 1, 1,10,-99999999999999.0,12,14,10
59,933840000.0,99999999999999.0, 1, 1,10,-99999999999999.0, 1, 8,10
521,9488950620.383821,99999999999999.0,27,14,60,-99999999999999.0,30,14,50
637,180004136453.53177,99999999999999.0,27,14,60,-99999999999999.0, 1, 1,10
649,180004136453.53177,99999999999999.0,27,14,60,-99999999999999.0, 1, 1,10
5,365
13,102819366201.33072,30000.0, 4,11,19,10,3216458.3172459453,10,30,14,50
25,11227074095.904293,30000.0, 1, 1, 1,10,626205.968554838, 8,12,14,10
61,11066760000.0,30000.0, 1, 1, 1,10,600000.0, 1, 1, 8,10
523,91592292105.43526,0.0, 3,27,14,60,2606278.6308123856,10,30,14,50
639,1304210227775.0532,0.0, 3,27,14,60,41250000.0, 1, 1, 1,10
651,1304210227775.0532,0.0, 3,27,14,60,41250000.0, 1, 1, 1,10
1,RUN PERIOD 2,  41.98, -87.92,  -6.00, 201.00
4,1, 7
11,108476705.03156793,99999999999999.0,11,19,10,-99999999999999.0,30,14,50
23,41290781.18601364,99999999999999.0, 1, 1,10,-99999999999999.0,12,14,10
59,40680000.0,99999999999999.0, 1, 1,10,-99999999999999.0, 1, 8,10
521,67185923.84555438,99999999999999.0,27,14,60,-99999999999999.0,30,14,50
637,0.0,99999999999999.0,27,14,60,-99999999999999.0, 1, 1,10
649,0.0,99999999999999.0,27,14,60,-99999999999999.0, 1, 1,10
5,1
13,108476705.03156793,99999999999999.0, 4,11,19,10,-99999999999999.0,10,30,14,50
25,41290781.18601364,99999999999999.0, 1, 1, 1,10,-99999999999999.0, 8,12,14,10
61,40680000.0,99999999999999.0, 1, 1, 1,10,-99999999999999.0, 1, 1, 8,10
523,67185923.84555438,99999999999999.0, 3,27,14,60,-99999999999999.0,10,30,14,50
639,0.0,99999999999999.0, 3,27,14,60,-99999999999999.0, 1, 1, 1,10
651,0.0,99999999999999.0, 3,27,14,60,-99999999999999.0, 1, 1, 1,10
End of Data
 Number of Records Written=          90
