Program Version,EnergyPlus, Version 24.2.0-94a887817b, YMD=2025.02.04 15:40
1,5,Environment Title[],Latitude[deg],Longitude[deg],Time Zone[],Elevation[m]
2,8,Day of Simulation[],Month[],Day of Month[],DST Indicator[1=yes 0=no],Hour[],StartMinute[],EndMinute[],DayType
3,5,Cumulative Day of Simulation[],Month[],Day of Month[],DST Indicator[1=yes 0=no],DayType  ! When Daily Report Variables Requested
4,2,Cumulative Days of Simulation[],Month[]  ! When Monthly Report Variables Requested
5,1,Cumulative Days of Simulation[] ! When Run Period Report Variables Requested
6,1,Calendar Year of Simulation[] ! When Annual Report Variables Requested
250,1,LIVING ZONE,Zone Air Temperature [C] !TimeStep,REPORTSCH
251,1,LIVING ZONE,Zone Air System Sensible Heating Energy [J] !TimeStep,REPORTSCH
336,1,LIVING ZONE,Zone Air System Sensible Cooling Energy [J] !TimeStep,REPORTSCH
385,1,LIVING ZONE,Zone Thermostat Heating Setpoint Temperature [C] !TimeStep,REPORTSCH
386,1,LIVING ZONE,Zone Thermostat Cooling Setpoint Temperature [C] !TimeStep,REPORTSCH
387,1,GARAGE ZONE,Zone Air Temperature [C] !TimeStep,REPORTSCH
388,1,GARAGE ZONE,Zone Air System Sensible Heating Energy [J] !TimeStep,REPORTSCH
425,1,GARAGE ZONE,Zone Air System Sensible Cooling Energy [J] !TimeStep,REPORTSCH
450,1,GARAGE ZONE,Zone Thermostat Heating Setpoint Temperature [C] !TimeStep,REPORTSCH
451,1,GARAGE ZONE,Zone Thermostat Cooling Setpoint Temperature [C] !TimeStep,REPORTSCH
452,1,ATTIC ZONE,Zone Air Temperature [C] !TimeStep,REPORTSCH
453,1,ATTIC ZONE,Zone Air System Sensible Heating Energy [J] !TimeStep,REPORTSCH
490,1,ATTIC ZONE,Zone Air System Sensible Cooling Energy [J] !TimeStep,REPORTSCH
515,1,ATTIC ZONE,Zone Thermostat Heating Setpoint Temperature [C] !TimeStep,REPORTSCH
516,1,ATTIC ZONE,Zone Thermostat Cooling Setpoint Temperature [C] !TimeStep,REPORTSCH
542,1,ACDXCOIL 1,Cooling Coil Total Cooling Energy [J] !TimeStep,REPORTSCH
592,1,HEAT PUMP DX HEATING COIL 1,Heating Coil Heating Energy [J] !TimeStep,REPORTSCH
632,1,SUPP HEATING COIL 1,Heating Coil Heating Energy [J] !TimeStep,REPORTSCH
686,1,TWOSPEED HEAT PUMP 1,Unitary System DX Coil Cycling Ratio [] !TimeStep,REPORTSCH
687,1,TWOSPEED HEAT PUMP 1,Unitary System DX Coil Speed Ratio [] !TimeStep,REPORTSCH
688,1,TWOSPEED HEAT PUMP 1,Unitary System DX Coil Speed Level [] !TimeStep,REPORTSCH
End of Data Dictionary
1,RUN PERIOD 1,  41.98, -87.92,  -6.00, 201.00
2,21, 1,21, 0, 1, 0.00,10.00,Monday
250,-0.8329593748019124
251,38098111.72796909
336,0.0
385,20.040034559014593
386,27.218034108867265
387,-0.9476294328754787
388,0.0
425,0.0
450,0.0
451,0.0
452,-1.9750095641513135
453,0.0
490,0.0
515,0.0
516,0.0
542,0.0
592,4839743.985079641
632,33000000.0
686,1.0
687,1.0
688,2.0
2,21, 1,21, 0, 1,10.00,20.00,Monday
250,-0.8331123044145574
251,38082775.42863275
336,0.0
385,20.040034559014593
386,27.218034108867265
387,-0.9559898906226232
388,0.0
425,0.0
450,0.0
451,0.0
452,-1.956864024652466
453,0.0
490,0.0
515,0.0
516,0.0
542,0.0
592,4823801.676011793
632,33000000.0
686,1.0
687,1.0
688,2.0
2,21, 1,21, 0, 1,20.00,30.00,Monday
250,-0.8333052174268052
251,38066853.443652
336,0.0
385,20.040034559014593
386,27.218034108867265
387,-0.965585941825328
388,0.0
425,0.0
450,0.0
451,0.0
452,-1.9537856493245769
453,0.0
490,0.0
515,0.0
516,0.0
542,0.0
592,4807858.16290522
632,33000000.0
686,1.0
687,1.0
688,2.0
2,21, 1,21, 0, 1,30.00,40.00,Monday
250,-0.8334934980114351
251,38050906.23695979
336,0.0
385,20.040034559014593
386,27.218034108867265
387,-0.9766223027703008
388,0.0
425,0.0
450,0.0
451,0.0
452,-1.9666602960116022
453,0.0
490,0.0
515,0.0
516,0.0
542,0.0
592,4791913.445623511
632,33000000.0
686,1.0
687,1.0
688,2.0
2,21, 1,21, 0, 1,40.00,50.00,Monday
250,-0.8336832233797776
251,38034961.097615324
336,0.0
385,20.040034559014593
386,27.218034108867265
387,-0.9892562505661557
388,0.0
425,0.0
450,0.0
451,0.0
452,-1.9938667837748434
453,0.0
490,0.0
515,0.0
516,0.0
542,0.0
592,4775967.524030239
632,33000000.0
686,1.0
687,1.0
688,2.0
2,21, 1,21, 0, 1,50.00,60.00,Monday
250,-0.8338735341578429
251,38019014.291198134
336,0.0
385,20.040034559014593
386,27.218034108867265
387,-1.0036765632797648
388,0.0
425,0.0
450,0.0
451,0.0
452,-2.0338762502690764
453,0.0
490,0.0
515,0.0
516,0.0
542,0.0
592,4760020.397988958
632,33000000.0
686,1.0
687,1.0
688,2.0
2,21, 1,21, 0, 2, 0.00,10.00,Monday
250,-0.8339520196649467
251,38018954.08553463
336,0.0
385,20.040034559014593
386,27.218034108867265
387,-1.0192006176833335
388,0.0
425,0.0
450,0.0
451,0.0
452,-2.0806430726901586
453,0.0
490,0.0
515,0.0
516,0.0
542,0.0
592,4760020.397988959
632,33000000.0
686,1.0
687,1.0
688,2.0
2,21, 1,21, 0, 2,10.00,20.00,Monday
250,-0.834027857240267
251,38018952.65982712
336,0.0
385,20.040034559014593
386,27.218034108867265
387,-1.0348852853419153
388,0.0
425,0.0
450,0.0
451,0.0
452,-2.123376466849889
453,0.0
490,0.0
515,0.0
516,0.0
542,0.0
592,4760020.397988958
632,33000000.0
686,1.0
687,1.0
688,2.0
2,21, 1,21, 0, 2,20.00,30.00,Monday
250,-0.834103497838353
251,38018952.55376079
336,0.0
385,20.040034559014593
386,27.218034108867265
387,-1.050176775372748
388,0.0
425,0.0
450,0.0
451,0.0
452,-2.1548464381535752
453,0.0
490,0.0
515,0.0
516,0.0
542,0.0
592,4760020.397988958
632,33000000.0
686,1.0
687,1.0
688,2.0
2,21, 1,21, 0, 2,30.00,40.00,Monday
250,-0.8341776774083197
251,38018951.76710081
336,0.0
385,20.040034559014593
386,27.218034108867265
387,-1.064753705042863
388,0.0
425,0.0
450,0.0
451,0.0
452,-2.1742295001946665
453,0.0
490,0.0
515,0.0
516,0.0
542,0.0
592,4760020.397988956
632,33000000.0
686,1.0
687,1.0
688,2.0
2,21, 1,21, 0, 2,40.00,50.00,Monday
250,-0.8342507478222894
251,38018951.169897534
336,0.0
385,20.040034559014593
386,27.218034108867265
387,-1.078475641001004
388,0.0
425,0.0
450,0.0
451,0.0
452,-2.1843701108742843
453,0.0
490,0.0
515,0.0
516,0.0
542,0.0
592,4760020.397988958
632,33000000.0
686,1.0
687,1.0
688,2.0
2,21, 1,21, 0, 2,50.00,60.00,Monday
250,-0.8343225219326703
251,38018950.471928164
336,0.0
385,20.040034559014593
386,27.218034108867265
387,-1.0913052100158593
388,0.0
425,0.0
450,0.0
451,0.0
452,-2.1884169978652617
453,0.0
490,0.0
515,0.0
516,0.0
542,0.0
592,4760020.397988958
632,33000000.0
686,1.0
687,1.0
688,2.0
2,21, 1,21, 0, 3, 0.00,10.00,Monday
250,-0.7520078246101835
251,37977129.581751555
336,0.0
385,20.040034559014593
386,27.218034108867265
387,-1.092853065291935
388,0.0
425,0.0
450,0.0
451,0.0
452,-2.1809377095936195
453,0.0
490,0.0
515,0.0
516,0.0
542,0.0
592,4762558.894114007
632,33000000.0
686,1.0
687,1.0
688,2.0
2,21, 1,21, 0, 3,10.00,20.00,Monday
250,-0.6684470488991578
251,37978886.362417
336,0.0
385,20.040034559014593
386,27.218034108867265
387,-1.081805976863651
388,0.0
425,0.0
450,0.0
451,0.0
452,-2.1559562899907343
453,0.0
490,0.0
515,0.0
516,0.0
542,0.0
592,4764988.4357309695
632,33000000.0
686,1.0
687,1.0
688,2.0
2,21, 1,21, 0, 3,20.00,30.00,Monday
250,-0.5853232187674825
251,37981439.58699438
336,0.0
385,20.040034559014593
386,27.218034108867265
387,-1.0625716422845144
388,0.0
425,0.0
450,0.0
451,0.0
452,-2.11202474272187
453,0.0
490,0.0
515,0.0
516,0.0
542,0.0
592,4767308.250738334
632,33000000.0
686,1.0
687,1.0
688,2.0
2,21, 1,21, 0, 3,30.00,40.00,Monday
250,-0.5022138827235104
251,37965252.71037373
336,0.0
385,20.040034559014593
386,27.218034108867265
387,-1.0389453029691265
388,0.0
425,0.0
450,0.0
451,0.0
452,-2.05227605705536
453,0.0
490,0.0
515,0.0
516,0.0
542,0.0
592,4769517.689516207
632,32981597.746400304
686,1.0
687,1.0
688,2.0
2,21, 1,21, 0, 3,40.00,50.00,Monday
250,-0.4192673660393167
251,37922179.867226355
336,0.0
385,20.040034559014593
386,27.218034108867265
387,-1.0122322784944144
388,0.0
425,0.0
450,0.0
451,0.0
452,-1.9811949892479908
453,0.0
490,0.0
515,0.0
516,0.0
542,0.0
592,4771616.115684974
632,32936340.67642935
686,1.0
687,1.0
688,2.0
2,21, 1,21, 0, 3,50.00,60.00,Monday
250,-0.3363080439690102
251,37879106.93336961
336,0.0
385,20.040034559014593
386,27.218034108867265
387,-0.9821849653944744
388,0.0
425,0.0
450,0.0
451,0.0
452,-1.9023997635291159
453,0.0
490,0.0
515,0.0
516,0.0
542,0.0
592,4773602.736238396
632,32891289.907852568
686,1.0
687,1.0
688,2.0
2,21, 1,21, 0, 4, 0.00,10.00,Monday
250,-0.3356987634255823
251,37880391.605757445
336,0.0
385,20.040034559014593
386,27.218034108867265
387,-0.959454063304605
388,0.0
425,0.0
450,0.0
451,0.0
452,-1.8261791661210198
453,0.0
490,0.0
515,0.0
516,0.0
542,0.0
592,4773428.98237163
632,32848399.33238874
686,1.0
687,1.0
688,2.0
2,21, 1,21, 0, 4,10.00,20.00,Monday
250,-0.3360345661255059
251,37880628.15101389
336,0.0
385,20.040034559014593
386,27.218034108867265
387,-0.9468587721643107
388,0.0
425,0.0
450,0.0
451,0.0
452,-1.7615734374927057
453,0.0
490,0.0
515,0.0
516,0.0
542,0.0
592,4773255.169447958
632,32848300.7009279
686,1.0
687,1.0
688,2.0
2,21, 1,21, 0, 4,20.00,30.00,Monday
250,-0.3359076179348592
251,37880591.49074545
336,0.0
385,20.040034559014593
386,27.218034108867265
387,-0.9408797641421695
388,0.0
425,0.0
450,0.0
451,0.0
452,-1.7121867036298264
453,0.0
490,0.0
515,0.0
516,0.0
542,0.0
592,4773081.297437258
632,32848687.134829838
686,1.0
687,1.0
688,2.0
2,21, 1,21, 0, 4,30.00,40.00,Monday
250,-0.33587870665233577
251,37880616.41467983
336,0.0
385,20.040034559014593
386,27.218034108867265
387,-0.937640067463734
388,0.0
425,0.0
450,0.0
451,0.0
452,-1.6763588796804285
453,0.0
490,0.0
515,0.0
516,0.0
542,0.0
592,4772907.366309401
632,32848833.190475352
686,1.0
687,1.0
688,2.0
2,21, 1,21, 0, 4,40.00,50.00,Monday
250,-0.33585582204733677
251,37880642.84478185
336,0.0
385,20.040034559014593
386,27.218034108867265
387,-0.9353527047153498
388,0.0
425,0.0
450,0.0
451,0.0
452,-1.6504191814336042
453,0.0
490,0.0
515,0.0
516,0.0
542,0.0
592,4772733.376034233
632,32849030.36509267
686,1.0
687,1.0
688,2.0
2,21, 1,21, 0, 4,50.00,60.00,Monday
250,-0.3358324554543348
251,37880668.91875247
336,0.0
385,20.040034559014593
386,27.218034108867265
387,-0.9338407399039047
388,0.0
425,0.0
450,0.0
451,0.0
452,-1.6313097403872154
453,0.0
490,0.0
515,0.0
516,0.0
542,0.0
592,4772559.326581573
632,32849230.748112116
686,1.0
687,1.0
688,2.0
2,21, 1,21, 0, 5, 0.00,10.00,Monday
250,-0.3358105176786664
251,37880695.79534464
336,0.0
385,20.040034559014593
386,27.218034108867265
387,-0.9331613476989857
388,0.0
425,0.0
450,0.0
451,0.0
452,-1.6164152346895706
453,0.0
490,0.0
515,0.0
516,0.0
542,0.0
592,4759720.85868958
632,32862095.323092237
686,1.0
687,1.0
688,2.0
2,21, 1,21, 0, 5,10.00,20.00,Monday
250,-0.33578019200312037
251,37881993.20022642
336,0.0
385,20.040034559014593
386,27.218034108867265
387,-0.9331792312942176
388,0.0
425,0.0
450,0.0
451,0.0
452,-1.603424778828221
453,0.0
490,0.0
515,0.0
516,0.0
542,0.0
592,4746877.262331868
632,32876240.842362043
686,1.0
687,1.0
688,2.0
2,21, 1,21, 0, 5,20.00,30.00,Monday
250,-0.33574980585244385
251,37883310.70906914
336,0.0
385,20.040034559014593
386,27.218034108867265
387,-0.9336646782306199
388,0.0
425,0.0
450,0.0
451,0.0
452,-1.5909368551081662
453,0.0
490,0.0
515,0.0
516,0.0
542,0.0
592,4734028.534436013
632,32890407.112248037
686,1.0
687,1.0
688,2.0
2,21, 1,21, 0, 5,30.00,40.00,Monday
250,-0.3357195809132064
251,37884621.663145386
336,0.0
385,20.040034559014593
386,27.218034108867265
387,-0.9344136887635027
388,0.0
425,0.0
450,0.0
451,0.0
452,-1.5785185265869028
453,0.0
490,0.0
515,0.0
516,0.0
542,0.0
592,4721174.671927156
632,32904571.842573904
686,1.0
687,1.0
688,2.0
2,21, 1,21, 0, 5,40.00,50.00,Monday
250,-0.3356892963883304
251,37885934.54863571
336,0.0
385,20.040034559014593
386,27.218034108867265
387,-0.9352901062386315
388,0.0
425,0.0
450,0.0
451,0.0
452,-1.5662390192759983
453,0.0
490,0.0
515,0.0
516,0.0
542,0.0
592,4708315.671727968
632,32918743.76093008
686,1.0
687,1.0
688,2.0
2,21, 1,21, 0, 5,50.00,60.00,Monday
250,-0.3356588792866063
251,37887247.9812402
336,0.0
385,20.040034559014593
386,27.218034108867265
387,-0.936214770506332
388,0.0
425,0.0
450,0.0
451,0.0
452,-1.5542495171164332
453,0.0
490,0.0
515,0.0
516,0.0
542,0.0
592,4695451.530758676
632,32932921.40649075
686,1.0
687,1.0
688,2.0
2,21, 1,21, 0, 6, 0.00,10.00,Monday
250,-0.3356270779566543
251,37888561.18100654
336,0.0
385,20.040034559014593
386,27.218034108867265
387,-0.9372744979946022
388,0.0
425,0.0
450,0.0
451,0.0
452,-1.5432471502084861
453,0.0
490,0.0
515,0.0
516,0.0
542,0.0
592,4695264.08225586
632,32934422.800994538
686,1.0
687,1.0
688,2.0
2,21, 1,21, 0, 6,10.00,20.00,Monday
250,-0.33560389945148555
251,37888602.771553695
336,0.0
385,20.040034559014593
386,27.218034108867265
387,-0.9385526825710417
388,0.0
425,0.0
450,0.0
451,0.0
452,-1.53404606017874
453,0.0
490,0.0
515,0.0
516,0.0
542,0.0
592,4695076.569900008
632,32934647.258951813
686,1.0
687,1.0
688,2.0
2,21, 1,21, 0, 6,20.00,30.00,Monday
250,-0.3355807633551648
251,37888624.7577579
336,0.0
385,20.040034559014593
386,27.218034108867265
387,-0.9400434164305633
388,0.0
425,0.0
450,0.0
451,0.0
452,-1.526970848747414
453,0.0
490,0.0
515,0.0
516,0.0
542,0.0
592,4694888.993658496
632,32934856.798563935
686,1.0
687,1.0
688,2.0
2,21, 1,21, 0, 6,30.00,40.00,Monday
250,-0.33555719263993483
251,37888653.70272639
336,0.0
385,20.040034559014593
386,27.218034108867265
387,-0.9417044536044533
388,0.0
425,0.0
450,0.0
451,0.0
452,-1.5218132222271767
453,0.0
490,0.0
515,0.0
516,0.0
542,0.0
592,4694701.353498662
632,32935073.617828287
686,1.0
687,1.0
688,2.0
2,21, 1,21, 0, 6,40.00,50.00,Monday
250,-0.33553346520330185
251,37888681.14007216
336,0.0
385,20.040034559014593
386,27.218034108867265
387,-0.9435037577721356
388,0.0
425,0.0
450,0.0
451,0.0
452,-1.5181243758874838
453,0.0
490,0.0
515,0.0
516,0.0
542,0.0
592,4694513.649387832
632,32935288.843721807
686,1.0
687,1.0
688,2.0
2,21, 1,21, 0, 6,50.00,60.00,Monday
250,-0.33550951608170426
251,37888708.381839395
336,0.0
385,20.040034559014593
386,27.218034108867265
387,-0.9454241384856351
388,0.0
425,0.0
450,0.0
451,0.0
452,-1.51548493203765
453,0.0
490,0.0
515,0.0
516,0.0
542,0.0
592,4694325.881293309
632,32935503.973015543
686,1.0
687,1.0
688,2.0
2,21, 1,21, 0, 7, 0.00,10.00,Monday
250,-0.33611534282229744
251,37889074.90500983
336,0.0
385,20.040034559014593
386,27.218034108867265
387,-0.9498869045599757
388,0.0
425,0.0
450,0.0
451,0.0
452,-1.518762873029771
453,0.0
490,0.0
515,0.0
516,0.0
542,0.0
592,4723573.583255435
632,32906283.542848684
686,1.0
687,1.0
688,2.0
2,21, 1,21, 0, 7,10.00,20.00,Monday
250,-0.3360936079723483
251,37886160.67997922
336,0.0
385,20.040034559014593
386,27.218034108867265
387,-0.9590649900728937
388,0.0
425,0.0
450,0.0
451,0.0
452,-1.537432927200442
453,0.0
490,0.0
515,0.0
516,0.0
542,0.0
592,4752837.186047653
632,32874443.772720825
686,1.0
687,1.0
688,2.0
2,21, 1,21, 0, 7,20.00,30.00,Monday
250,-0.336056626317211
251,37883191.403967395
336,0.0
385,20.040034559014593
386,27.218034108867265
387,-0.9731994335419438
388,0.0
425,0.0
450,0.0
451,0.0
452,-1.5768639165889566
453,0.0
490,0.0
515,0.0
516,0.0
542,0.0
592,4782116.702651945
632,32842203.19116406
686,1.0
687,1.0
688,2.0
2,21, 1,21, 0, 7,30.00,40.00,Monday
250,-0.33602285033655677
251,37880238.81015551
336,0.0
385,20.040034559014593
386,27.218034108867265
387,-0.9913357511029742
388,0.0
425,0.0
450,0.0
451,0.0
452,-1.6346694175772765
453,0.0
490,0.0
515,0.0
516,0.0
542,0.0
592,4811412.146064443
632,32809953.42594556
686,1.0
687,1.0
688,2.0
2,21, 1,21, 0, 7,40.00,50.00,Monday
250,-0.3359878015104519
251,37877280.63051517
336,0.0
385,20.040034559014593
386,27.218034108867265
387,-1.0123955275298895
388,0.0
425,0.0
450,0.0
451,0.0
452,-1.7045945928565318
453,0.0
490,0.0
515,0.0
516,0.0
542,0.0
592,4840723.5292954575
632,32777684.54711445
686,1.0
687,1.0
688,2.0
2,21, 1,21, 0, 7,50.00,60.00,Monday
250,-0.3359522707654989
251,37874320.39376388
336,0.0
385,20.040034559014593
386,27.218034108867265
387,-1.035631969692343
388,0.0
425,0.0
450,0.0
451,0.0
452,-1.7809477731978325
453,0.0
490,0.0
515,0.0
516,0.0
542,0.0
592,4870050.865369484
632,32745397.232325964
686,1.0
687,1.0
688,2.0
2,21, 1,21, 0, 8, 0.00,10.00,Monday
250,-0.1356964140902706
251,37763552.85979636
336,0.0
385,20.040034559014593
386,27.218034108867265
387,-1.0317516250956817
388,0.0
425,0.0
450,0.0
451,0.0
452,-1.8398958961865923
453,0.0
490,0.0
515,0.0
516,0.0
542,0.0
592,4889730.300311495
632,32722756.004917536
686,1.0
687,1.0
688,2.0
2,21, 1,21, 0, 8,10.00,20.00,Monday
250,0.06464677817323632
251,37657997.63498383
336,0.0
385,20.040034559014593
386,27.218034108867265
387,-0.9902380939241198
388,0.0
425,0.0
450,0.0
451,0.0
452,-1.831039677272423
453,0.0
490,0.0
515,0.0
516,0.0
542,0.0
592,4909380.719869503
632,32597604.02168826
686,1.0
687,1.0
688,2.0
2,21, 1,21, 0, 8,20.00,30.00,Monday
250,0.2637134384804141
251,37553209.630278245
336,0.0
385,20.040034559014593
386,27.218034108867265
387,-0.9192444076110093
388,0.0
425,0.0
450,0.0
451,0.0
452,-1.7236076578946464
453,0.0
490,0.0
515,0.0
516,0.0
542,0.0
592,4929009.6156952735
632,32472506.608640976
686,1.0
687,1.0
688,2.0
2,21, 1,21, 0, 8,30.00,40.00,Monday
250,0.46313026123983003
251,37448202.52961075
336,0.0
385,20.040034559014593
386,27.218034108867265
387,-0.8289896377193348
388,0.0
425,0.0
450,0.0
451,0.0
452,-1.527972029946261
453,0.0
490,0.0
515,0.0
516,0.0
542,0.0
592,4952863.646772657
632,32343840.86433188
686,1.0
687,1.0
688,2.0
2,21, 1,21, 0, 8,40.00,50.00,Monday
250,0.662610691568111
251,37342753.30165715
336,0.0
385,20.040034559014593
386,27.218034108867265
387,-0.7274272187712064
388,0.0
425,0.0
450,0.0
451,0.0
452,-1.2524993798904085
453,0.0
490,0.0
515,0.0
516,0.0
542,0.0
592,4977062.298687914
632,32214232.93138679
686,1.0
687,1.0
688,2.0
2,21, 1,21, 0, 8,50.00,60.00,Monday
250,0.8625819748506265
251,37237974.55804211
336,0.0
385,20.040034559014593
386,27.218034108867265
387,-0.631569363066081
388,0.0
425,0.0
450,0.0
451,0.0
452,-0.9395875929924167
453,0.0
490,0.0
515,0.0
516,0.0
542,0.0
592,5001395.306277512
632,32032040.271992505
686,1.0
687,1.0
688,2.0
2,21, 1,21, 0, 9, 0.00,10.00,Monday
250,1.128477480547871
251,37098734.14451528
336,0.0
385,20.040034559014593
386,27.218034108867265
387,-0.4932101544662916
388,0.0
425,0.0
450,0.0
451,0.0
452,-0.4602114294113985
453,0.0
490,0.0
515,0.0
516,0.0
542,0.0
592,5029363.153609448
632,31881467.053425346
686,1.0
687,1.0
688,2.0
2,21, 1,21, 0, 9,10.00,20.00,Monday
250,1.3942888263546271
251,36958581.919462286
336,0.0
385,20.040034559014593
386,27.218034108867265
387,-0.34245356660948323
388,0.0
425,0.0
450,0.0
451,0.0
452,0.06401161125868483
453,0.0
490,0.0
515,0.0
516,0.0
542,0.0
592,5057356.862312016
632,31713305.106468774
686,1.0
687,1.0
688,2.0
2,21, 1,21, 0, 9,20.00,30.00,Monday
250,1.6601954099261915
251,36818374.22405027
336,0.0
385,20.040034559014593
386,27.218034108867265
387,-0.1825489056459398
388,0.0
425,0.0
450,0.0
451,0.0
452,0.6287131049694382
453,0.0
490,0.0
515,0.0
516,0.0
542,0.0
592,5085392.284952975
632,31545088.231641483
686,1.0
687,1.0
688,2.0
2,21, 1,21, 0, 9,30.00,40.00,Monday
250,1.9260534344878493
251,36678190.56362264
336,0.0
385,20.040034559014593
386,27.218034108867265
387,-0.012785924141137599
388,0.0
425,0.0
450,0.0
451,0.0
452,1.2233465788154994
453,0.0
490,0.0
515,0.0
516,0.0
542,0.0
592,5113485.892141593
632,31376799.11415108
686,1.0
687,1.0
688,2.0
2,21, 1,21, 0, 9,40.00,50.00,Monday
250,2.19210090023868
251,36536908.19778008
336,0.0
385,20.040034559014607
386,27.218034108867286
387,0.13240417889214293
388,0.0
425,0.0
450,0.0
451,0.0
452,1.7250312253805569
453,0.0
490,0.0
515,0.0
516,0.0
542,0.0
592,5141654.529350725
632,31184148.11544831
686,1.0000000000000009
687,1.0000000000000009
688,2.0000000000000018
2,21, 1,21, 0, 9,50.00,60.00,Monday
250,2.45826555712979
251,36396025.630394384
336,0.0
385,20.040034559014593
386,27.218034108867265
387,0.2845679347825938
388,0.0
425,0.0
450,0.0
451,0.0
452,2.26551680788437
453,0.0
490,0.0
515,0.0
516,0.0
542,0.0
592,5169915.672059795
632,31039596.177322
686,1.0
687,1.0
688,2.0
2,21, 1,21, 0,10, 0.00,10.00,Monday
250,2.922073774854179
251,36149929.06074349
336,0.0
385,20.040034559014593
386,27.218034108867265
387,0.4750557963384545
388,0.0
425,0.0
450,0.0
451,0.0
452,2.824798138731279
453,0.0
490,0.0
515,0.0
516,0.0
542,0.0
592,5241404.10703412
632,30732979.93398927
686,1.0
687,1.0
688,2.0
2,21, 1,21, 0,10,10.00,20.00,Monday
250,3.3866419820688813
251,35904047.94781709
336,0.0
385,20.040034559014593
386,27.218034108867265
387,0.7661016100164939
388,0.0
425,0.0
450,0.0
451,0.0
452,3.5796856370068975
453,0.0
490,0.0
515,0.0
516,0.0
542,0.0
592,5315291.857316207
632,30412282.802367806
686,1.0
687,1.0
688,2.0
2,21, 1,21, 0,10,20.00,30.00,Monday
250,3.8514134072610617
251,35656787.18931032
336,0.0
385,20.040034559014586
386,27.218034108867258
387,1.0464744671969815
388,0.0
425,0.0
450,0.0
451,0.0
452,4.2685780776550235
453,0.0
490,0.0
515,0.0
516,0.0
542,0.0
592,5391793.298050372
632,30088599.481646057
686,0.9999999999999996
687,0.9999999999999996
688,1.9999999999999991
2,21, 1,21, 0,10,30.00,40.00,Monday
250,4.316309070832242
251,35409325.60281699
336,0.0
385,20.0400345590146
386,27.21803410886728
387,1.3282274029814511
388,0.0
425,0.0
450,0.0
451,0.0
452,4.970506445192286
453,0.0
490,0.0
515,0.0
516,0.0
542,0.0
592,5471132.199313744
632,29761865.912639365
686,1.0000000000000004
687,1.0000000000000004
688,2.000000000000001
2,21, 1,21, 0,10,40.00,50.00,Monday
250,4.781380892307634
251,35161628.28020564
336,0.0
385,20.040034559014607
386,27.218034108867286
387,1.6183534833134015
388,0.0
425,0.0
450,0.0
451,0.0
452,5.734608859737264
453,0.0
490,0.0
515,0.0
516,0.0
542,0.0
592,5553542.375759332
632,29431836.911492363
686,1.0000000000000009
687,1.0000000000000009
688,2.0000000000000018
2,21, 1,21, 0,10,50.00,60.00,Monday
250,5.2464622181305085
251,34913778.27444574
336,0.0
385,20.040034559014607
386,27.218034108867286
387,1.918566093909361
388,0.0
425,0.0
450,0.0
451,0.0
452,6.563649359553594
453,0.0
490,0.0
515,0.0
516,0.0
542,0.0
592,5639267.778995938
632,29098312.294494003
686,1.0000000000000009
687,1.0000000000000009
688,2.0000000000000018
2,21, 1,21, 0,11, 0.00,10.00,Monday
250,5.529928352708998
251,34762937.60766573
336,0.0
385,20.040034559014593
386,27.218034108867265
387,2.205064766949036
388,0.0
425,0.0
450,0.0
451,0.0
452,7.418862033449415
453,0.0
490,0.0
515,0.0
516,0.0
542,0.0
592,5689519.861596226
632,28864856.587680608
686,1.0
687,1.0
688,2.0
2,21, 1,21, 0,11,10.00,20.00,Monday
250,5.812822314552201
251,34612348.019447096
336,0.0
385,20.040034559014593
386,27.218034108867265
387,2.474828250527024
388,0.0
425,0.0
450,0.0
451,0.0
452,8.269374482008278
453,0.0
490,0.0
515,0.0
516,0.0
542,0.0
592,5740969.350869596
632,28662730.495427985
686,1.0
687,1.0
688,2.0
2,21, 1,21, 0,11,20.00,30.00,Monday
250,6.095763972833141
251,34461683.157865904
336,0.0
385,20.040034559014586
386,27.218034108867258
387,2.746985415936609
388,0.0
425,0.0
450,0.0
451,0.0
452,9.115969967440993
453,0.0
490,0.0
515,0.0
516,0.0
542,0.0
592,5793671.095282218
632,28459389.107516166
686,0.9999999999999996
687,0.9999999999999996
688,1.9999999999999991
2,21, 1,21, 0,11,30.00,40.00,Monday
250,6.378501633518242
251,34311075.42723057
336,0.0
385,20.0400345590146
386,27.21803410886728
387,3.024318314981488
388,0.0
425,0.0
450,0.0
451,0.0
452,9.937783482278775
453,0.0
490,0.0
515,0.0
516,0.0
542,0.0
592,5847681.4279665835
632,28254751.82793273
686,1.0000000000000004
687,1.0000000000000004
688,2.000000000000001
2,21, 1,21, 0,11,40.00,50.00,Monday
250,6.661151479888511
251,34160461.06855577
336,0.0
385,20.040034559014607
386,27.218034108867286
387,3.3034254744532054
388,0.0
425,0.0
450,0.0
451,0.0
452,10.683336344504593
453,0.0
490,0.0
515,0.0
516,0.0
542,0.0
592,5903058.082199926
632,28048762.978303567
686,1.0000000000000009
687,1.0000000000000009
688,2.0000000000000018
2,21, 1,21, 0,11,50.00,60.00,Monday
250,6.9436825153542125
251,34009855.31866543
336,0.0
385,20.040034559014607
386,27.218034108867286
387,3.5804545252132938
388,0.0
425,0.0
450,0.0
451,0.0
452,11.319163216383167
453,0.0
490,0.0
515,0.0
516,0.0
542,0.0
592,5959860.237244541
632,27841352.15370799
686,1.0000000000000009
687,1.0000000000000009
688,2.0000000000000018
2,21, 1,21, 0,12, 0.00,10.00,Monday
250,7.210356770183418
251,33867736.704137444
336,0.0
385,20.040034559014593
386,27.218034108867265
387,3.8204611655876257
388,0.0
425,0.0
450,0.0
451,0.0
452,11.81827211305908
453,0.0
490,0.0
515,0.0
516,0.0
542,0.0
592,5991096.197635708
632,27690324.53800209
686,1.0
687,1.0
688,2.0
2,21, 1,21, 0,12,10.00,20.00,Monday
250,7.475808583806911
251,33729755.33405288
336,0.0
385,20.040034559014593
386,27.218034108867265
387,4.112854940991895
388,0.0
425,0.0
450,0.0
451,0.0
452,12.382261169309036
453,0.0
490,0.0
515,0.0
516,0.0
542,0.0
592,7572016.881221028
632,25969600.807621367
686,1.0
687,1.0
688,2.0
2,21, 1,21, 0,12,20.00,30.00,Monday
250,7.741868092952503
251,33589725.03373002
336,0.0
385,20.040034559014593
386,27.218034108867265
387,4.381979076800727
388,0.0
425,0.0
450,0.0
451,0.0
452,12.89719960008195
453,0.0
490,0.0
515,0.0
516,0.0
542,0.0
592,7609409.155487606
632,25792334.934310872
686,1.0
687,1.0
688,2.0
2,21, 1,21, 0,12,30.00,40.00,Monday
250,8.007854575990937
251,33449735.31015101
336,0.0
385,20.040034559014593
386,27.218034108867265
387,4.640800633278725
388,0.0
425,0.0
450,0.0
451,0.0
452,13.389051312127556
453,0.0
490,0.0
515,0.0
516,0.0
542,0.0
592,7646583.592010484
632,25615150.981484056
686,1.0
687,1.0
688,2.0
2,21, 1,21, 0,12,40.00,50.00,Monday
250,8.273814540596113
251,33309759.586651754
336,0.0
385,20.040034559014593
386,27.218034108867265
387,4.8952328096616045
388,0.0
425,0.0
450,0.0
451,0.0
452,13.831143136548167
453,0.0
490,0.0
515,0.0
516,0.0
542,0.0
592,7683540.190789654
632,25438211.68865613
686,1.0
687,1.0
688,2.0
2,21, 1,21, 0,12,50.00,60.00,Monday
250,8.53976666794942
251,33169787.307173114
336,0.0
385,20.040034559014593
386,27.218034108867265
387,5.144184216872707
388,0.0
425,0.0
450,0.0
451,0.0
452,14.198914759672311
453,0.0
490,0.0
515,0.0
516,0.0
542,0.0
592,7720278.951825123
632,25261499.01471466
686,1.0
687,1.0
688,2.0
2,21, 1,21, 0,13, 0.00,10.00,Monday
250,8.722768673712897
251,33071100.912959646
336,0.0
385,20.040034559014593
386,27.218034108867265
387,5.3765774613706805
388,0.0
425,0.0
450,0.0
451,0.0
452,14.490144488323681
453,0.0
490,0.0
515,0.0
516,0.0
542,0.0
592,7745410.487127085
632,25163779.068345748
686,1.0
687,1.0
688,2.0
2,21, 1,21, 0,13,10.00,20.00,Monday
250,8.905419699220904
251,32976594.661554743
336,0.0
385,20.040034559014593
386,27.218034108867265
387,5.595373163359835
388,0.0
425,0.0
450,0.0
451,0.0
452,14.719403728837252
453,0.0
490,0.0
515,0.0
516,0.0
542,0.0
592,7770439.060057996
632,25045852.44054319
686,1.0
687,1.0
688,2.0
2,21, 1,21, 0,13,20.00,30.00,Monday
250,9.088533790749409
251,32881937.51924982
336,0.0
385,20.040034559014593
386,27.218034108867265
387,5.8002839585855694
388,0.0
425,0.0
450,0.0
451,0.0
452,14.902590375618358
453,0.0
490,0.0
515,0.0
516,0.0
542,0.0
592,7795364.6706178645
632,24926532.202864703
686,1.0
687,1.0
688,2.0
2,21, 1,21, 0,13,30.00,40.00,Monday
250,9.271507995214092
251,32787385.88105138
336,0.0
385,20.040034559014593
386,27.218034108867265
387,5.995329631883892
388,0.0
425,0.0
450,0.0
451,0.0
452,15.051460530281416
453,0.0
490,0.0
515,0.0
516,0.0
542,0.0
592,7820187.318806681
632,24807095.126755483
686,1.0
687,1.0
688,2.0
2,21, 1,21, 0,13,40.00,50.00,Monday
250,9.454487656757559
251,32692864.797519207
336,0.0
385,20.040034559014593
386,27.218034108867265
387,6.184260595472548
388,0.0
425,0.0
450,0.0
451,0.0
452,15.170792588988668
453,0.0
490,0.0
515,0.0
516,0.0
542,0.0
592,7844907.00462445
632,24687870.207977716
686,1.0
687,1.0
688,2.0
2,21, 1,21, 0,13,50.00,60.00,Monday
250,9.63746134348516
251,32598380.106231593
336,0.0
385,20.040034559014593
386,27.218034108867265
387,6.368376808650097
388,0.0
425,0.0
450,0.0
451,0.0
452,15.264217995937088
453,0.0
490,0.0
515,0.0
516,0.0
542,0.0
592,7869523.72807117
632,24568778.649644356
686,1.0
687,1.0
688,2.0
2,21, 1,21, 0,14, 0.00,10.00,Monday
250,9.837388689098752
251,32494771.801846705
336,0.0
385,20.040034559014593
386,27.218034108867265
387,6.550517316872421
388,0.0
425,0.0
450,0.0
451,0.0
452,15.320334099245269
453,0.0
490,0.0
515,0.0
516,0.0
542,0.0
592,7896260.907308882
632,24447603.367115404
686,1.0
687,1.0
688,2.0
2,21, 1,21, 0,14,10.00,20.00,Monday
250,10.036975387960743
251,32390949.969043814
336,0.0
385,20.040034559014593
386,27.218034108867265
387,6.730813890881327
388,0.0
425,0.0
450,0.0
451,0.0
452,15.32082076559976
453,0.0
490,0.0
515,0.0
516,0.0
542,0.0
592,7922875.552815757
632,24316996.14116502
686,1.0
687,1.0
688,2.0
2,21, 1,21, 0,14,20.00,30.00,Monday
250,10.236456277034495
251,32287199.560508233
336,0.0
385,20.040034559014593
386,27.218034108867265
387,6.907108705382965
388,0.0
425,0.0
450,0.0
451,0.0
452,15.26521023087199
453,0.0
490,0.0
515,0.0
516,0.0
542,0.0
592,7949367.664591794
632,24186709.834300347
686,1.0
687,1.0
688,2.0
2,21, 1,21, 0,14,30.00,40.00,Monday
250,10.435865905313895
251,32183512.419199783
336,0.0
385,20.040034559014593
386,27.218034108867265
387,7.073449376894711
388,0.0
425,0.0
450,0.0
451,0.0
452,15.142977047556176
453,0.0
490,0.0
515,0.0
516,0.0
542,0.0
592,7975737.242637003
632,24056628.15401321
686,1.0
687,1.0
688,2.0
2,21, 1,21, 0,14,40.00,50.00,Monday
250,10.635212149246406
251,32079881.534194034
336,0.0
385,20.040034559014593
386,27.218034108867265
387,7.22614218609205
388,0.0
425,0.0
450,0.0
451,0.0
452,14.93439991869309
453,0.0
490,0.0
515,0.0
516,0.0
542,0.0
592,8001984.286951372
632,23926729.67520583
686,1.0
687,1.0
688,2.0
2,21, 1,21, 0,14,50.00,60.00,Monday
250,10.834513504423805
251,31976297.393992104
336,0.0
385,20.040034559014593
386,27.218034108867265
387,7.365477392837263
388,0.0
425,0.0
450,0.0
451,0.0
452,14.64251656856202
453,0.0
490,0.0
515,0.0
516,0.0
542,0.0
592,8028108.797534912
632,23797010.63027155
686,1.0
687,1.0
688,2.0
2,21, 1,21, 0,15, 0.00,10.00,Monday
250,11.100302731687593
251,31837528.13262198
336,0.0
385,20.040034559014593
386,27.218034108867265
387,7.4864571923133605
388,0.0
425,0.0
450,0.0
451,0.0