Program Version,EnergyPlus, Version 24.2.0-94a887817b, YMD=2025.01.21 23:16
1,5,Environment Title[],Latitude[deg],Longitude[deg],Time Zone[],Elevation[m]
2,8,Day of Simulation[],Month[],Day of Month[],DST Indicator[1=yes 0=no],Hour[],StartMinute[],EndMinute[],DayType
3,5,Cumulative Day of Simulation[],Month[],Day of Month[],DST Indicator[1=yes 0=no],DayType  ! When Daily Report Variables Requested
4,2,Cumulative Days of Simulation[],Month[]  ! When Monthly Report Variables Requested
5,1,Cumulative Days of Simulation[] ! When Run Period Report Variables Requested
6,1,Calendar Year of Simulation[] ! When Annual Report Variables Requested
250,1,LIVING ZONE,Zone Air Temperature [C] !TimeStep,REPORTSCH
251,1,LIVING ZONE,Zone Air System Sensible Heating Energy [J] !TimeStep,REPORTSCH
336,1,LIVING ZONE,Zone Air System Sensible Cooling Energy [J] !TimeStep,REPORTSCH
385,1,LIVING ZONE,Zone Thermostat Heating Setpoint Temperature [C] !TimeStep,REPORTSCH
386,1,LIVING ZONE,Zone Thermostat Cooling Setpoint Temperature [C] !TimeStep,REPORTSCH
387,1,GARAGE ZONE,Zone Air Temperature [C] !TimeStep,REPORTSCH
388,1,GARAGE ZONE,Zone Air System Sensible Heating Energy [J] !TimeStep,REPORTSCH
425,1,GARAGE ZONE,Zone Air System Sensible Cooling Energy [J] !TimeStep,REPORTSCH
450,1,GARAGE ZONE,Zone Thermostat Heating Setpoint Temperature [C] !TimeStep,REPORTSCH
451,1,GARAGE ZONE,Zone Thermostat Cooling Setpoint Temperature [C] !TimeStep,REPORTSCH
452,1,ATTIC ZONE,Zone Air Temperature [C] !TimeStep,REPORTSCH
453,1,ATTIC ZONE,Zone Air System Sensible Heating Energy [J] !TimeStep,REPORTSCH
490,1,ATTIC ZONE,Zone Air System Sensible Cooling Energy [J] !TimeStep,REPORTSCH
515,1,ATTIC ZONE,Zone Thermostat Heating Setpoint Temperature [C] !TimeStep,REPORTSCH
516,1,ATTIC ZONE,Zone Thermostat Cooling Setpoint Temperature [C] !TimeStep,REPORTSCH
542,1,ACDXCOIL 1,Cooling Coil Total Cooling Energy [J] !TimeStep,REPORTSCH
592,1,HEAT PUMP DX HEATING COIL 1,Heating Coil Heating Energy [J] !TimeStep,REPORTSCH
632,1,SUPP HEATING COIL 1,Heating Coil Heating Energy [J] !TimeStep,REPORTSCH
686,1,TWOSPEED HEAT PUMP 1,Unitary System DX Coil Cycling Ratio [] !TimeStep,REPORTSCH
687,1,TWOSPEED HEAT PUMP 1,Unitary System DX Coil Speed Ratio [] !TimeStep,REPORTSCH
688,1,TWOSPEED HEAT PUMP 1,Unitary System DX Coil Speed Level [] !TimeStep,REPORTSCH
End of Data Dictionary
1,CHICAGO_IL_USA ANNUAL HEATING 99% DESIGN CONDITIONS DB,  41.98, -87.92,  -6.00, 201.00
2,1, 1,21, 0, 1, 0.00,10.00,WinterDesignDay
250,-16.643430810911536
251,33258891.428733416
336,0.0
385,17.63045222605584
386,27.658480521093217
387,-18.489943967283747
388,0.0
425,0.0
450,0.0
451,0.0
452,-19.351597392746164
453,0.0
490,0.0
515,0.0
516,0.0
542,0.0
592,0.0
632,33000000.0
686,1.0
687,1.0
688,2.0
2,1, 1,21, 0, 1,10.00,20.00,WinterDesignDay
250,-16.643430811209658
251,33258891.428731266
336,0.0
385,17.63045222605584
386,27.658480521093217
387,-18.489945453032416
388,0.0
425,0.0
450,0.0
451,0.0
452,-19.35159760030024
453,0.0
490,0.0
515,0.0
516,0.0
542,0.0
592,0.0
632,33000000.0
686,1.0
687,1.0
688,2.0
2,1, 1,21, 0, 1,20.00,30.00,WinterDesignDay
250,-16.64343081150383
251,33258891.428729154
336,0.0
385,17.63045222605584
386,27.658480521093217
387,-18.489946919413054
388,0.0
425,0.0
450,0.0
451,0.0
452,-19.3515978051481
453,0.0
490,0.0
515,0.0
516,0.0
542,0.0
592,0.0
632,33000000.0
686,1.0
687,1.0
688,2.0
2,1, 1,21, 0, 1,30.00,40.00,WinterDesignDay
250,-16.64343081179411
251,33258891.428727064
336,0.0
385,17.63045222605584
386,27.658480521093217
387,-18.48994836667811
388,0.0
425,0.0
450,0.0
451,0.0
452,-19.351598007325027
453,0.0
490,0.0
515,0.0
516,0.0
542,0.0
592,0.0
632,33000000.0
686,1.0
687,1.0
688,2.0
2,1, 1,21, 0, 1,40.00,50.00,WinterDesignDay
250,-16.643430812080545
251,33258891.428725
336,0.0
385,17.63045222605584
386,27.658480521093217
387,-18.48994979507675
388,0.0
425,0.0
450,0.0
451,0.0
452,-19.351598206865855
453,0.0
490,0.0
515,0.0
516,0.0
542,0.0
592,0.0
632,33000000.0
686,1.0
687,1.0
688,2.0
2,1, 1,21, 0, 1,50.00,60.00,WinterDesignDay
250,-16.643430812363192
251,33258891.42872297
336,0.0
385,17.63045222605584
386,27.658480521093217
387,-18.489951204855018
388,0.0
425,0.0
450,0.0
451,0.0
452,-19.35159840380496
453,0.0
490,0.0
515,0.0
516,0.0
542,0.0
592,0.0
632,33000000.0
686,1.0
687,1.0
688,2.0
2,1, 1,21, 0, 2, 0.00,10.00,WinterDesignDay
250,-16.64343081264209
251,33258891.428720962
336,0.0
385,17.63045222605584
386,27.658480521093217
387,-18.48995259625556
388,0.0
425,0.0
450,0.0
451,0.0
452,-19.351598598176263
453,0.0
490,0.0
515,0.0
516,0.0
542,0.0
592,0.0
632,33000000.0
686,1.0
687,1.0
688,2.0
2,1, 1,21, 0, 2,10.00,20.00,WinterDesignDay
250,-16.643430812917302
251,33258891.428718984
336,0.0
385,17.63045222605584
386,27.658480521093217
387,-18.489953969517916
388,0.0
425,0.0
450,0.0
451,0.0
452,-19.351598790013252
453,0.0
490,0.0
515,0.0
516,0.0
542,0.0
592,0.0
632,33000000.0
686,1.0
687,1.0
688,2.0
2,1, 1,21, 0, 2,20.00,30.00,WinterDesignDay
250,-16.64343081318887
251,33258891.42871703
336,0.0
385,17.63045222605584
386,27.658480521093217
387,-18.489955324878544
388,0.0
425,0.0
450,0.0
451,0.0
452,-19.35159897934898
453,0.0
490,0.0
515,0.0
516,0.0
542,0.0
592,0.0
632,33000000.0
686,1.0
687,1.0
688,2.0
2,1, 1,21, 0, 2,30.00,40.00,WinterDesignDay
250,-16.643430813456845
251,33258891.4287151
336,0.0
385,17.63045222605584
386,27.658480521093217
387,-18.489956662570947
388,0.0
425,0.0
450,0.0
451,0.0
452,-19.351599166216065
453,0.0
490,0.0
515,0.0
516,0.0
542,0.0
592,0.0
632,33000000.0
686,1.0
687,1.0
688,2.0
2,1, 1,21, 0, 2,40.00,50.00,WinterDesignDay
250,-16.643430813721277
251,33258891.428713206
336,0.0
385,17.63045222605584
386,27.658480521093217
387,-18.489957982825292
388,0.0
425,0.0
450,0.0
451,0.0
452,-19.351599350646687
453,0.0
490,0.0
515,0.0
516,0.0
542,0.0
592,0.0
632,33000000.0
686,1.0
687,1.0
688,2.0
2,1, 1,21, 0, 2,50.00,60.00,WinterDesignDay
250,-16.643430813982214
251,33258891.42871133
336,0.0
385,17.63045222605584
386,27.658480521093217
387,-18.4899592858688
388,0.0
425,0.0
450,0.0
451,0.0
452,-19.351599532672626
453,0.0
490,0.0
515,0.0
516,0.0
542,0.0
592,0.0
632,33000000.0
686,1.0
687,1.0
688,2.0
2,1, 1,21, 0, 3, 0.00,10.00,WinterDesignDay
250,-16.643430814239693
251,33258891.428709473
336,0.0
385,17.63045222605584
386,27.658480521093217
387,-18.489960571925725
388,0.0
425,0.0
450,0.0
451,0.0
452,-19.35159971232524
453,0.0
490,0.0
515,0.0
516,0.0
542,0.0
592,0.0
632,33000000.0
686,1.0
687,1.0
688,2.0
2,1, 1,21, 0, 3,10.00,20.00,WinterDesignDay
250,-16.643430814493765
251,33258891.428707648
336,0.0
385,17.63045222605584
386,27.658480521093217
387,-18.48996184121765
388,0.0
425,0.0
450,0.0
451,0.0
452,-19.351599889635477
453,0.0
490,0.0
515,0.0
516,0.0
542,0.0
592,0.0
632,33000000.0
686,1.0
687,1.0
688,2.0
2,1, 1,21, 0, 3,20.00,30.00,WinterDesignDay
250,-16.643430814744484
251,33258891.428705852
336,0.0
385,17.63045222605584
386,27.658480521093217
387,-18.48996309396328
388,0.0
425,0.0
450,0.0
451,0.0
452,-19.35160006463388
453,0.0
490,0.0
515,0.0
516,0.0
542,0.0
592,0.0
632,33000000.0
686,1.0
687,1.0
688,2.0
2,1, 1,21, 0, 3,30.00,40.00,WinterDesignDay
250,-16.643430814991888
251,33258891.42870407
336,0.0
385,17.63045222605584
386,27.658480521093217
387,-18.48996433037811
388,0.0
425,0.0
450,0.0
451,0.0
452,-19.351600237350596
453,0.0
490,0.0
515,0.0
516,0.0
542,0.0
592,0.0
632,33000000.0
686,1.0
687,1.0
688,2.0
2,1, 1,21, 0, 3,40.00,50.00,WinterDesignDay
250,-16.643430815236016
251,33258891.428702317
336,0.0
385,17.63045222605584
386,27.658480521093217
387,-18.48996555067504
388,0.0
425,0.0
450,0.0
451,0.0
452,-19.351600407815376
453,0.0
490,0.0
515,0.0
516,0.0
542,0.0
592,0.0
632,33000000.0
686,1.0
687,1.0
688,2.0
2,1, 1,21, 0, 3,50.00,60.00,WinterDesignDay
250,-16.64343081547692
251,33258891.42870059
336,0.0
385,17.63045222605584
386,27.658480521093217
387,-18.48996675506417
388,0.0
425,0.0
450,0.0
451,0.0
452,-19.351600576057585
453,0.0
490,0.0
515,0.0
516,0.0
542,0.0
592,0.0
632,33000000.0
686,1.0
687,1.0
688,2.0
2,1, 1,21, 0, 4, 0.00,10.00,WinterDesignDay
250,-16.64343081571464
251,33258891.428698886
336,0.0
385,17.63045222605584
386,27.658480521093217
387,-18.48996794375286
388,0.0
425,0.0
450,0.0
451,0.0
452,-19.3516007421062
453,0.0
490,0.0
515,0.0
516,0.0
542,0.0
592,0.0
632,33000000.0
686,1.0
687,1.0
688,2.0
2,1, 1,21, 0, 4,10.00,20.00,WinterDesignDay
250,-16.64343081594922
251,33258891.428697202
336,0.0
385,17.63045222605584
386,27.658480521093217
387,-18.489969116945776
388,0.0
425,0.0
450,0.0
451,0.0
452,-19.35160090598983
453,0.0
490,0.0
515,0.0
516,0.0
542,0.0
592,0.0
632,33000000.0
686,1.0
687,1.0
688,2.0
2,1, 1,21, 0, 4,20.00,30.00,WinterDesignDay
250,-16.643430816180697
251,33258891.428695537
336,0.0
385,17.63045222605584
386,27.658480521093217
387,-18.48997027484502
388,0.0
425,0.0
450,0.0
451,0.0
452,-19.351601067736713
453,0.0
490,0.0
515,0.0
516,0.0
542,0.0
592,0.0
632,33000000.0
686,1.0
687,1.0
688,2.0
2,1, 1,21, 0, 4,30.00,40.00,WinterDesignDay
250,-16.643430816409115
251,33258891.4286939
336,0.0
385,17.63045222605584
386,27.658480521093217
387,-18.489971417649993
388,0.0
425,0.0
450,0.0
451,0.0
452,-19.3516012273747
453,0.0
490,0.0
515,0.0
516,0.0
542,0.0
592,0.0
632,33000000.0
686,1.0
687,1.0
688,2.0
2,1, 1,21, 0, 4,40.00,50.00,WinterDesignDay
250,-16.643430816634528
251,33258891.428692285
336,0.0
385,17.63045222605584
386,27.658480521093217
387,-18.489972545557304
388,0.0
425,0.0
450,0.0
451,0.0
452,-19.351601384931296
453,0.0
490,0.0
515,0.0
516,0.0
542,0.0
592,0.0
632,33000000.0
686,1.0
687,1.0
688,2.0
2,1, 1,21, 0, 4,50.00,60.00,WinterDesignDay
250,-16.643430816856952
251,33258891.428690683
336,0.0
385,17.63045222605584
386,27.658480521093217
387,-18.489973658761087
388,0.0
425,0.0
450,0.0
451,0.0
452,-19.35160154043364
453,0.0
490,0.0
515,0.0
516,0.0
542,0.0
592,0.0
632,33000000.0
686,1.0
687,1.0
688,2.0
2,1, 1,21, 0, 5, 0.00,10.00,WinterDesignDay
250,-16.643430817076435
251,33258891.428689104
336,0.0
385,17.63045222605584
386,27.658480521093217
387,-18.48997475745327
388,0.0
425,0.0
450,0.0
451,0.0
452,-19.351601693908524
453,0.0
490,0.0
515,0.0
516,0.0
542,0.0
592,0.0
632,33000000.0
686,1.0
687,1.0
688,2.0
2,1, 1,21, 0, 5,10.00,20.00,WinterDesignDay
250,-16.643430817293027
251,33258891.428687554
336,0.0
385,17.63045222605584
386,27.658480521093217
387,-18.48997584182303
388,0.0
425,0.0
450,0.0
451,0.0
452,-19.351601845382376
453,0.0
490,0.0
515,0.0
516,0.0
542,0.0
592,0.0
632,33000000.0
686,1.0
687,1.0
688,2.0
2,1, 1,21, 0, 5,20.00,30.00,WinterDesignDay
250,-16.64343081750676
251,33258891.42868602
336,0.0
385,17.63045222605584
386,27.658480521093217
387,-18.489976912056786
388,0.0
425,0.0
450,0.0
451,0.0
452,-19.351601994881296
453,0.0
490,0.0
515,0.0
516,0.0
542,0.0
592,0.0
632,33000000.0
686,1.0
687,1.0
688,2.0
2,1, 1,21, 0, 5,30.00,40.00,WinterDesignDay
250,-16.643430817717668
251,33258891.428684507
336,0.0
385,17.63045222605584
386,27.658480521093217
387,-18.48997796833874
388,0.0
425,0.0
450,0.0
451,0.0
452,-19.351602142431037
453,0.0
490,0.0
515,0.0
516,0.0
542,0.0
592,0.0
632,33000000.0
686,1.0
687,1.0
688,2.0
2,1, 1,21, 0, 5,40.00,50.00,WinterDesignDay
250,-16.643430817925797
251,33258891.428683016
336,0.0
385,17.63045222605584
386,27.658480521093217
387,-18.489979010850856
388,0.0
425,0.0
450,0.0
451,0.0
452,-19.351602288057013
453,0.0
490,0.0
515,0.0
516,0.0
542,0.0
592,0.0
632,33000000.0
686,1.0
687,1.0
688,2.0
2,1, 1,21, 0, 5,50.00,60.00,WinterDesignDay
250,-16.643430818131172
251,33258891.428681538
336,0.0
385,17.63045222605584
386,27.658480521093217
387,-18.489980039772856
388,0.0
425,0.0
450,0.0
451,0.0
452,-19.351602431784308
453,0.0
490,0.0
515,0.0
516,0.0
542,0.0
592,0.0
632,33000000.0
686,1.0
687,1.0
688,2.0
2,1, 1,21, 0, 6, 0.00,10.00,WinterDesignDay
250,-16.64343081833384
251,33258891.42868009
336,0.0
385,17.63045222605584
386,27.658480521093217
387,-18.489981055281913
388,0.0
425,0.0
450,0.0
451,0.0
452,-19.351602573637678
453,0.0
490,0.0
515,0.0
516,0.0
542,0.0
592,0.0
632,33000000.0
686,1.0
687,1.0
688,2.0
2,1, 1,21, 0, 6,10.00,20.00,WinterDesignDay
250,-16.643430818533833
251,33258891.428678654
336,0.0
385,17.63045222605584
386,27.658480521093217
387,-18.489982057552634
388,0.0
425,0.0
450,0.0
451,0.0
452,-19.351602713641554
453,0.0
490,0.0
515,0.0
516,0.0
542,0.0
592,0.0
632,33000000.0
686,1.0
687,1.0
688,2.0
2,1, 1,21, 0, 6,20.00,30.00,WinterDesignDay
250,-16.643430818731186
251,33258891.42867724
336,0.0
385,17.63045222605584
386,27.658480521093217
387,-18.489983046757615
388,0.0
425,0.0
450,0.0
451,0.0
452,-19.35160285182006
453,0.0
490,0.0
515,0.0
516,0.0
542,0.0
592,0.0
632,33000000.0
686,1.0
687,1.0
688,2.0
2,1, 1,21, 0, 6,30.00,40.00,WinterDesignDay
250,-16.64343081892594
251,33258891.428675845
336,0.0
385,17.63045222605584
386,27.658480521093217
387,-18.489984023067166
388,0.0
425,0.0
450,0.0
451,0.0
452,-19.351602988197
453,0.0
490,0.0
515,0.0
516,0.0
542,0.0
592,0.0
632,33000000.0
686,1.0
687,1.0
688,2.0
2,1, 1,21, 0, 6,40.00,50.00,WinterDesignDay
250,-16.643430819118116
251,33258891.42867446
336,0.0
385,17.63045222605584
386,27.658480521093217
387,-18.48998498664956
388,0.0
425,0.0
450,0.0
451,0.0
452,-19.35160312279586
453,0.0
490,0.0
515,0.0
516,0.0
542,0.0
592,0.0
632,33000000.0
686,1.0
687,1.0
688,2.0
2,1, 1,21, 0, 6,50.00,60.00,WinterDesignDay
250,-16.643430819307767
251,33258891.428673107
336,0.0
385,17.63045222605584
386,27.658480521093217
387,-18.4899859376706
388,0.0
425,0.0
450,0.0
451,0.0
452,-19.351603255639823
453,0.0
490,0.0
515,0.0
516,0.0
542,0.0
592,0.0
632,33000000.0
686,1.0
687,1.0
688,2.0
2,1, 1,21, 0, 7, 0.00,10.00,WinterDesignDay
250,-16.64343081949491
251,33258891.428671766
336,0.0
385,17.63045222605584
386,27.658480521093217
387,-18.48998687629405
388,0.0
425,0.0
450,0.0
451,0.0
452,-19.351603386751776
453,0.0
490,0.0
515,0.0
516,0.0
542,0.0
592,0.0
632,33000000.0
686,1.0
687,1.0
688,2.0
2,1, 1,21, 0, 7,10.00,20.00,WinterDesignDay
250,-16.64343081967959
251,33258891.428670444
336,0.0
385,17.63045222605584
386,27.658480521093217
387,-18.489987802681426
388,0.0
425,0.0
450,0.0
451,0.0
452,-19.3516035161543
453,0.0
490,0.0
515,0.0
516,0.0
542,0.0
592,0.0
632,33000000.0
686,1.0
687,1.0
688,2.0
2,1, 1,21, 0, 7,20.00,30.00,WinterDesignDay
250,-16.643430819861827
251,33258891.428669136
336,0.0
385,17.63045222605584
386,27.658480521093217
387,-18.48998871699225
388,0.0
425,0.0
450,0.0
451,0.0
452,-19.35160364386968
453,0.0
490,0.0
515,0.0
516,0.0
542,0.0
592,0.0
632,33000000.0
686,1.0
687,1.0
688,2.0
2,1, 1,21, 0, 7,30.00,40.00,WinterDesignDay
250,-16.64343082004167
251,33258891.42866785
336,0.0
385,17.63045222605584
386,27.658480521093217
387,-18.489989619383955
388,0.0
425,0.0
450,0.0
451,0.0
452,-19.351603769919922
453,0.0
490,0.0
515,0.0
516,0.0
542,0.0
592,0.0
632,33000000.0
686,1.0
687,1.0
688,2.0
2,1, 1,21, 0, 7,40.00,50.00,WinterDesignDay
250,-16.643430820219137
251,33258891.42866658
336,0.0
385,17.63045222605584
386,27.658480521093217
387,-18.48999051001207
388,0.0
425,0.0
450,0.0
451,0.0
452,-19.351603894326736
453,0.0
490,0.0
515,0.0
516,0.0
542,0.0
592,0.0
632,33000000.0
686,1.0
687,1.0
688,2.0
2,1, 1,21, 0, 7,50.00,60.00,WinterDesignDay
250,-16.643430820394265
251,33258891.428665325
336,0.0
385,17.63045222605584
386,27.658480521093217
387,-18.489991389029857
388,0.0
425,0.0
450,0.0
451,0.0
452,-19.351604017111548
453,0.0
490,0.0
515,0.0
516,0.0
542,0.0
592,0.0
632,33000000.0
686,1.0
687,1.0
688,2.0
2,1, 1,21, 0, 8, 0.00,10.00,WinterDesignDay
250,-16.643430820567087
251,33258891.42866409
336,0.0
385,17.63045222605584
386,27.658480521093217
387,-18.489992256588675
388,0.0
425,0.0
450,0.0
451,0.0
452,-19.351604138295507
453,0.0
490,0.0
515,0.0
516,0.0
542,0.0
592,0.0
632,33000000.0
686,1.0
687,1.0
688,2.0
2,1, 1,21, 0, 8,10.00,20.00,WinterDesignDay
250,-16.64343082073763
251,33258891.428662863
336,0.0
385,17.63045222605584
386,27.658480521093217
387,-18.489993112838057
388,0.0
425,0.0
450,0.0
451,0.0
452,-19.35160425789949
453,0.0
490,0.0
515,0.0
516,0.0
542,0.0
592,0.0
632,33000000.0
686,1.0
687,1.0
688,2.0
2,1, 1,21, 0, 8,20.00,30.00,WinterDesignDay
250,-16.64343082090593
251,33258891.428661667
336,0.0
385,17.63045222605584
386,27.658480521093217
387,-18.48999395792511
388,0.0
425,0.0
450,0.0
451,0.0
452,-19.351604375944095
453,0.0
490,0.0
515,0.0
516,0.0
542,0.0
592,0.0
632,33000000.0
686,1.0
687,1.0
688,2.0
2,1, 1,21, 0, 8,30.00,40.00,WinterDesignDay
250,-16.643430821072005
251,33258891.428660467
336,0.0
385,17.63045222605584
386,27.658480521093217
387,-18.489994791995315
388,0.0
425,0.0
450,0.0
451,0.0
452,-19.35160449244966
453,0.0
490,0.0
515,0.0
516,0.0
542,0.0
592,0.0
632,33000000.0
686,1.0
687,1.0
688,2.0
2,1, 1,21, 0, 8,40.00,50.00,WinterDesignDay
250,-16.643430821235896
251,33258891.428659298
336,0.0
385,17.63045222605584
386,27.658480521093217
387,-18.48999561519243
388,0.0
425,0.0
450,0.0
451,0.0
452,-19.35160460743625
453,0.0
490,0.0
515,0.0
516,0.0
542,0.0
592,0.0
632,33000000.0
686,1.0
687,1.0
688,2.0
2,1, 1,21, 0, 8,50.00,60.00,WinterDesignDay
250,-16.643430821397626
251,33258891.428658143
336,0.0
385,17.63045222605584
386,27.658480521093217
387,-18.489996427658237
388,0.0
425,0.0
450,0.0
451,0.0
452,-19.35160472092367
453,0.0
490,0.0
515,0.0
516,0.0
542,0.0
592,0.0
632,33000000.0
686,1.0
687,1.0
688,2.0
2,1, 1,21, 0, 9, 0.00,10.00,WinterDesignDay
250,-16.643430821557224
251,33258891.428657
336,0.0
385,17.63045222605584
386,27.658480521093217
387,-18.489997229532847
388,0.0
425,0.0
450,0.0
451,0.0
452,-19.351604832931464
453,0.0
490,0.0
515,0.0
516,0.0
542,0.0
592,0.0
632,33000000.0
686,1.0
687,1.0
688,2.0
2,1, 1,21, 0, 9,10.00,20.00,WinterDesignDay
250,-16.643430821714727
251,33258891.42865587
336,0.0
385,17.63045222605584
386,27.658480521093217
387,-18.489998020954054
388,0.0
425,0.0
450,0.0
451,0.0
452,-19.351604943478925
453,0.0
490,0.0
515,0.0
516,0.0
542,0.0
592,0.0
632,33000000.0
686,1.0
687,1.0
688,2.0
2,1, 1,21, 0, 9,20.00,30.00,WinterDesignDay
250,-16.643430821870147
251,33258891.42865476
336,0.0
385,17.63045222605584
386,27.658480521093217
387,-18.489998802058047
388,0.0
425,0.0
450,0.0
451,0.0
452,-19.3516050525851
453,0.0
490,0.0
515,0.0
516,0.0
542,0.0
592,0.0
632,33000000.0
686,1.0
687,1.0
688,2.0
2,1, 1,21, 0, 9,30.00,40.00,WinterDesignDay
250,-16.643430822023525
251,33258891.428653665
336,0.0
385,17.63045222605584
386,27.658480521093217
387,-18.48999957297943
388,0.0
425,0.0
450,0.0
451,0.0
452,-19.351605160268782
453,0.0
490,0.0
515,0.0
516,0.0
542,0.0
592,0.0
632,33000000.0
686,1.0
687,1.0
688,2.0
2,1, 1,21, 0, 9,40.00,50.00,WinterDesignDay
250,-16.64343082217488
251,33258891.428652577
336,0.0
385,17.63045222605584
386,27.658480521093217
387,-18.490000333851032
388,0.0
425,0.0
450,0.0
451,0.0
452,-19.351605266548518
453,0.0
490,0.0
515,0.0
516,0.0
542,0.0
592,0.0
632,33000000.0
686,1.0
687,1.0
688,2.0
2,1, 1,21, 0, 9,50.00,60.00,WinterDesignDay
250,-16.643430822324248
251,33258891.428651515
336,0.0
385,17.63045222605584
386,27.658480521093217
387,-18.490001084803783
388,0.0
425,0.0
450,0.0
451,0.0
452,-19.351605371442606
453,0.0
490,0.0
515,0.0
516,0.0
542,0.0
592,0.0
632,33000000.0
686,1.0
687,1.0
688,2.0
2,1, 1,21, 0,10, 0.00,10.00,WinterDesignDay
250,-16.64343082247165
251,33258891.428650457
336,0.0
385,17.63045222605584
386,27.658480521093217
387,-18.490001825966875
388,0.0
425,0.0
450,0.0
451,0.0
452,-19.35160547496912
453,0.0
490,0.0
515,0.0
516,0.0
542,0.0
592,0.0
632,33000000.0
686,1.0
687,1.0
688,2.0
2,1, 1,21, 0,10,10.00,20.00,WinterDesignDay
250,-16.643430822617102
251,33258891.42864941
336,0.0
385,17.63045222605584
386,27.658480521093217
387,-18.490002557468088
388,0.0
425,0.0
450,0.0
451,0.0
452,-19.35160557714589
453,0.0
490,0.0
515,0.0
516,0.0
542,0.0
592,0.0
632,33000000.0
686,1.0
687,1.0
688,2.0
2,1, 1,21, 0,10,20.00,30.00,WinterDesignDay
250,-16.643430822760646
251,33258891.428648394
336,0.0
385,17.63045222605584
386,27.658480521093217
387,-18.49000327943335
388,0.0
425,0.0
450,0.0
451,0.0
452,-19.351605677990513
453,0.0
490,0.0
515,0.0
516,0.0
542,0.0
592,0.0
632,33000000.0
686,1.0
687,1.0
688,2.0
2,1, 1,21, 0,10,30.00,40.00,WinterDesignDay
250,-16.6434308229023
251,33258891.428647377
336,0.0
385,17.63045222605584
386,27.658480521093217
387,-18.49000399198685
388,0.0
425,0.0
450,0.0
451,0.0
452,-19.351605777520362
453,0.0
490,0.0
515,0.0
516,0.0
542,0.0
592,0.0
632,33000000.0
686,1.0
687,1.0
688,2.0
2,1, 1,21, 0,10,40.00,50.00,WinterDesignDay
250,-16.643430823042095
251,33258891.428646382
336,0.0
385,17.63045222605584
386,27.658480521093217
387,-18.49000469525124
388,0.0
425,0.0
450,0.0
451,0.0
452,-19.351605875752572
453,0.0
490,0.0
515,0.0
516,0.0
542,0.0
592,0.0
632,33000000.0
686,1.0
687,1.0
688,2.0
2,1, 1,21, 0,10,50.00,60.00,WinterDesignDay
250,-16.64343082318004
251,33258891.428645387
336,0.0
385,17.63045222605584
386,27.658480521093217
387,-18.490005389347512
388,0.0
425,0.0
450,0.0
451,0.0
452,-19.35160597270407
453,0.0
490,0.0
515,0.0
516,0.0
542,0.0
592,0.0
632,33000000.0
686,1.0
687,1.0
688,2.0
2,1, 1,21, 0,11, 0.00,10.00,WinterDesignDay
250,-16.643430823316177
251,33258891.428644415
336,0.0
385,17.63045222605584
386,27.658480521093217
387,-18.490006074395545
388,0.0
425,0.0
450,0.0
451,0.0
452,-19.351606068391558
453,0.0
490,0.0
515,0.0
516,0.0
542,0.0
592,0.0
632,33000000.0
686,1.0
687,1.0
688,2.0
2,1, 1,21, 0,11,10.00,20.00,WinterDesignDay
250,-16.643430823450522
251,33258891.428643458
336,0.0
385,17.63045222605584
386,27.658480521093217
387,-18.49000675051334
388,0.0
425,0.0
450,0.0
451,0.0
452,-19.351606162831505
453,0.0
490,0.0
515,0.0
516,0.0
542,0.0
592,0.0
632,33000000.0
686,1.0
687,1.0
688,2.0
2,1, 1,21, 0,11,20.00,30.00,WinterDesignDay
250,-16.643430823583095
251,33258891.428642504
336,0.0
385,17.63045222605584
386,27.658480521093217
387,-18.490007417817015
388,0.0
425,0.0
450,0.0
451,0.0
452,-19.35160625604018
453,0.0
490,0.0
515,0.0
516,0.0
542,0.0
592,0.0
632,33000000.0
686,1.0
687,1.0
688,2.0
2,1, 1,21, 0,11,30.00,40.00,WinterDesignDay
250,-16.64343082371393
251,33258891.428641576
336,0.0
385,17.63045222605584
386,27.658480521093217
387,-18.490008076421645
388,0.0
425,0.0
450,0.0
451,0.0
452,-19.35160634803364
453,0.0
490,0.0
515,0.0
516,0.0
542,0.0
592,0.0
632,33000000.0
686,1.0
687,1.0
688,2.0
2,1, 1,21, 0,11,40.00,50.00,WinterDesignDay
250,-16.64343082384304
251,33258891.42864065
336,0.0
385,17.63045222605584
386,27.658480521093217
387,-18.49000872644059
388,0.0
425,0.0
450,0.0
451,0.0
452,-19.35160643882773
453,0.0
490,0.0
515,0.0
516,0.0
542,0.0
592,0.0
632,33000000.0
686,1.0
687,1.0
688,2.0
2,1, 1,21, 0,11,50.00,60.00,WinterDesignDay
250,-16.64343082397045
251,33258891.428639736
336,0.0
385,17.63045222605584
386,27.658480521093217
387,-18.490009367985767
388,0.0
425,0.0
450,0.0
451,0.0
452,-19.351606528438086
453,0.0
490,0.0
515,0.0
516,0.0
542,0.0
592,0.0
632,33000000.0
686,1.0
687,1.0
688,2.0
2,1, 1,21, 0,12, 0.00,10.00,WinterDesignDay
250,-16.64343082409619
251,33258891.428638842
336,0.0
385,17.63045222605584
386,27.658480521093217
387,-18.490010001167615
388,0.0
425,0.0
450,0.0
451,0.0
452,-19.351606616880147
453,0.0
490,0.0
515,0.0
516,0.0
542,0.0
592,0.0
632,33000000.0
686,1.0
687,1.0
688,2.0
2,1, 1,21, 0,12,10.00,20.00,WinterDesignDay
250,-16.643430824220275
251,33258891.42863795
336,0.0
385,17.63045222605584
386,27.658480521093217
387,-18.490010626095035
388,0.0
425,0.0
450,0.0
451,0.0
452,-19.351606704169143
453,0.0
490,0.0
515,0.0
516,0.0
542,0.0
592,0.0
632,33000000.0
686,1.0
687,1.0
688,2.0
2,1, 1,21, 0,12,20.00,30.00,WinterDesignDay
250,-16.643430824342726
251,33258891.42863708
336,0.0
385,17.63045222605584
386,27.658480521093217
387,-18.490011242875635
388,0.0
425,0.0
450,0.0
451,0.0
452,-19.351606790320105
453,0.0
490,0.0
515,0.0
516,0.0
542,0.0
592,0.0
632,33000000.0
686,1.0
687,1.0
688,2.0
2,1, 1,21, 0,12,30.00,40.00,WinterDesignDay
250,-16.643430824463568
251,33258891.42863622
336,0.0
385,17.63045222605584
386,27.658480521093217
387,-18.490011851615737
388,0.0
425,0.0
450,0.0
451,0.0
452,-19.351606875347876
453,0.0
490,0.0
515,0.0
516,0.0
542,0.0
592,0.0
632,33000000.0
686,1.0
687,1.0
688,2.0
2,1, 1,21, 0,12,40.00,50.00,WinterDesignDay
250,-16.643430824582822
251,33258891.428635363
336,0.0
385,17.63045222605584
386,27.658480521093217
387,-18.49001245242024
388,0.0
425,0.0
450,0.0
451,0.0
452,-19.351606959267098
453,0.0
490,0.0
515,0.0
516,0.0
542,0.0
592,0.0
632,33000000.0
686,1.0
687,1.0
688,2.0
2,1, 1,21, 0,12,50.00,60.00,WinterDesignDay
250,-16.643430824700506
251,33258891.42863452
336,0.0
385,17.63045222605584
386,27.658480521093217
387,-18.49001304539242
388,0.0
425,0.0
450,0.0
451,0.0
452,-19.351607042092223
453,0.0
490,0.0
515,0.0
516,0.0
542,0.0
592,0.0
632,33000000.0
686,1.0
687,1.0
688,2.0
2,1, 1,21, 0,13, 0.00,10.00,WinterDesignDay
250,-16.643430824816647
251,33258891.428633694
336,0.0
385,17.63045222605584
386,27.658480521093217
387,-18.49001363063443
388,0.0
425,0.0
450,0.0
451,0.0
452,-19.351607123837518
453,0.0
490,0.0
515,0.0
516,0.0
542,0.0
592,0.0
632,33000000.0
686,1.0
687,1.0
688,2.0
2,1, 1,21, 0,13,10.00,20.00,WinterDesignDay
250,-16.643430824931258
251,33258891.428632874
336,0.0
385,17.63045222605584
386,27.658480521093217
387,-18.490014208247235
388,0.0
425,0.0
450,0.0
451,0.0
452,-19.351607204517062
453,0.0
490,0.0
515,0.0
516,0.0
542,0.0
592,0.0
632,33000000.0
686,1.0
687,1.0
688,2.0
2,1, 1,21, 0,13,20.00,30.00,WinterDesignDay
250,-16.643430825044362
251,33258891.42863207
336,0.0
385,17.63045222605584
386,27.658480521093217
387,-18.490014778330114
388,0.0
425,0.0
450,0.0
451,0.0
452,-19.351607284144748
453,0.0
490,0.0
515,0.0
516,0.0
542,0.0
592,0.0
632,33000000.0
686,1.0
687,1.0
688,2.0
2,1, 1,21, 0,13,30.00,40.00,WinterDesignDay
250,-16.64343082515598
251,33258891.428631272
336,0.0
385,17.63045222605584
386,27.658480521093217
387,-18.49001534098117
388,0.0
425,0.0
450,0.0
451,0.0
452,-19.351607362734292
453,0.0
490,0.0
515,0.0
516,0.0
542,0.0
592,0.0
632,33000000.0
686,1.0
687,1.0
688,2.0
2,1, 1,21, 0,13,40.00,50.00,WinterDesignDay
250,-16.643430825266137
251,33258891.428630486
336,0.0
385,17.63045222605584
386,27.658480521093217
387,-18.49001589629738
388,0.0
425,0.0
450,0.0
451,0.0
452,-19.35160744029923
453,0.0
490,0.0
515,0.0
516,0.0
542,0.0
592,0.0
632,33000000.0
686,1.0
687,1.0
688,2.0
2,1, 1,21, 0,13,50.00,60.00,WinterDesignDay
250,-16.643430825374836
251,33258891.428629708
336,0.0
385,17.63045222605584
386,27.658480521093217
387,-18.49001644437443
388,0.0
425,0.0
450,0.0
451,0.0
452,-19.351607516852923
453,0.0
490,0.0
515,0.0
516,0.0
542,0.0
592,0.0
632,33000000.0
686,1.0
687,1.0
688,2.0
2,1, 1,21, 0,14, 0.00,10.00,WinterDesignDay
250,-16.643430825482117
251,33258891.428628955
336,0.0
385,17.63045222605584
386,27.658480521093217
387,-18.490016985306678
388,0.0
425,0.0
450,0.0
451,0.0
452,-19.351607592408556
453,0.0
490,0.0
515,0.0
516,0.0
542,0.0
592,0.0
632,33000000.0
686,1.0
687,1.0
688,2.0
2,1, 1,21, 0,14,10.00,20.00,WinterDesignDay
250,-16.64343082558798
251,33258891.428628184
336,0.0
385,17.63045222605584
386,27.658480521093217
387,-18.490017519187
388,0.0
425,0.0
450,0.0
451,0.0
452,-19.35160766697914
453,0.0
490,0.0
515,0.0
516,0.0
542,0.0
592,0.0
632,33000000.0
686,1.0
687,1.0
688,2.0
2,1, 1,21, 0,14,20.00,30.00,WinterDesignDay
250,-16.64343082569246
251,33258891.428627446
336,0.0
385,17.63045222605584
386,27.658480521093217
387,-18.4900180461074
388,0.0
425,0.0
450,0.0
451,0.0
452,-19.35160774057752
453,0.0
490,0.0
515,0.0
516,0.0
542,0.0
592,0.0
632,33000000.0
686,1.0
687,1.0
688,2.0
2,1, 1,21, 0,14,30.00,40.00,WinterDesignDay
250,-16.643430825795562
251,33258891.428626705
336,0.0
385,17.63045222605584
386,27.658480521093217
387,-18.49001856615881
388,0.0
425,0.0
450,0.0
451,0.0
452,-19.35160781321636
453,0.0
490,0.0
515,0.0
516,0.0
542,0.0
592,0.0
632,33000000.0
686,1.0
687,1.0
688,2.0
2,1, 1,21, 0,14,40.00,50.00,WinterDesignDay
250,-16.64343082589731
251,33258891.428625982
336,0.0
385,17.63045222605584
386,27.658480521093217
387,-18.490019079430688
388,0.0
425,0.0
450,0.0
451,0.0
452,-19.351607884908184
453,0.0
490,0.0
515,0.0
516,0.0
542,0.0
592,0.0
632,33000000.0
686,1.0
687,1.0
688,2.0
2,1, 1,21, 0,14,50.00,60.00,WinterDesignDay
250,-16.643430825997722
251,33258891.428625263
336,0.0
385,17.63045222605584
386,27.658480521093217
387,-18.490019586011414
388,0.0
425,0.0
450,0.0
451,0.0
452,-19.35160795566534
453,0.0
490,0.0
515,0.0
516,0.0
542,0.0
592,0.0
632,33000000.0
686,1.0
687,1.0
688,2.0
2,1, 1,21, 0,15, 0.00,10.00,WinterDesignDay
250,-16.64343082609681
251,33258891.42862456
336,0.0
385,17.63045222605584
386,27.658480521093217
387,-18.490020085988306
388,0.0
425,0.0
450,0.0
451,0.0
452,-19.351608025500013
453,0.0
490,0.0
515,0.0
516,0.0
542,0.0
592,0.0
632,33000000.0
686,1.0
687,1.0
688,2.0
2,1, 1,21, 0,15,10.00,20.00,WinterDesignDay
250,-16.643430826194606
251,33258891.428623863
336,0.0
385,17.63045222605584
386,27.658480521093217
387,-18.49002057944749
388,0.0
425,0.0
450,0.0
451,0.0
452,-19.35160809442423
453,0.0
490,0.0
515,0.0
516,0.0
542,0.0
592,0.0
632,33000000.0
686,1.0
687,1.0
688,2.0
2,1, 1,21, 0,15,20.00,30.00,WinterDesignDay
250,-16.643430826291116
251,33258891.42862317
336,0.0
385,17.63045222605584
386,27.658480521093217
387,-18.49002106647351
388,0.0
425,0.0
450,0.0
451,0.0
452,-19.351608162449857
453,0.0
490,0.0
515,0.0
516,0.0
542,0.0
592,0.0
632,33000000.0
686,1.0
687,1.0
688,2.0
2,1, 1,21, 0,15,30.00,40.00,WinterDesignDay
250,-16.643430826386357
251,33258891.428622488
336,0.0
385,17.63045222605584
386,27.658480521093217
387,-18.4900215471504
388,0.0
425,0.0
450,0.0
451,0.0
452,-19.351608229588614
453,0.0
490,0.0
515,0.0
516,0.0
542,0.0
592,0.0
632,33000000.0
686,1.0
687,1.0
688,2.0
2,1, 1,21, 0,15,40.00,50.00,WinterDesignDay
250,-16.643430826480344
251,33258891.428621817
336,0.0
385,17.63045222605584
386,27.658480521093217
387,-18.49002202156122
388,0.0
425,0.0
450,0.0
451,0.0
452,-19.351608295852056
453,0.0
490,0.0
515,0.0
516,0.0
542,0.0
592,0.0
632,33000000.0
686,1.0
687,1.0
688,2.0