Program Version,EnergyPlus, Version 24.2.0-94a887817b, YMD=2025.01.30 20:35
1,5,Environment Title[],Latitude[deg],Longitude[deg],Time Zone[],Elevation[m]
2,8,Day of Simulation[],Month[],Day of Month[],DST Indicator[1=yes 0=no],Hour[],StartMinute[],EndMinute[],DayType
3,5,Cumulative Day of Simulation[],Month[],Day of Month[],DST Indicator[1=yes 0=no],DayType  ! When Daily Meters Requested
4,2,Cumulative Days of Simulation[],Month[]  ! When Monthly Meters Requested
5,1,Cumulative Days of Simulation[] ! When Run Period Meters Requested
6,1,Calendar Year of Simulation[] ! When Annual Meters Requested
11,9,Electricity:Facility [J] !Monthly [Value,Min,Day,Hour,Minute,Max,Day,Hour,Minute]
23,9,Electricity:Building [J] !Monthly [Value,Min,Day,Hour,Minute,Max,Day,Hour,Minute]
59,9,InteriorLights:Electricity [J] !Monthly [Value,Min,Day,Hour,Minute,Max,Day,Hour,Minute]
521,9,Electricity:HVAC [J] !Monthly [Value,Min,Day,Hour,Minute,Max,Day,Hour,Minute]
637,9,NaturalGas:Facility [J] !Monthly [Value,Min,Day,Hour,Minute,Max,Day,Hour,Minute]
649,9,NaturalGas:HVAC [J] !Monthly [Value,Min,Day,Hour,Minute,Max,Day,Hour,Minute]
13,11,Electricity:Facility [J] !RunPeriod [Value,Min,Month,Day,Hour,Minute,Max,Month,Day,Hour,Minute]
25,11,Electricity:Building [J] !RunPeriod [Value,Min,Month,Day,Hour,Minute,Max,Month,Day,Hour,Minute]
61,11,InteriorLights:Electricity [J] !RunPeriod [Value,Min,Month,Day,Hour,Minute,Max,Month,Day,Hour,Minute]
523,11,Electricity:HVAC [J] !RunPeriod [Value,Min,Month,Day,Hour,Minute,Max,Month,Day,Hour,Minute]
639,11,NaturalGas:Facility [J] !RunPeriod [Value,Min,Month,Day,Hour,Minute,Max,Month,Day,Hour,Minute]
651,11,NaturalGas:HVAC [J] !RunPeriod [Value,Min,Month,Day,Hour,Minute,Max,Month,Day,Hour,Minute]
End of Data Dictionary
1,RUN PERIOD 1,  41.98, -87.92,  -6.00, 201.00
4,31, 1
11,8413587952.554343,426955.78806610056,16,19,60,3428670.2115529277,25,13,40
23,1899816528.3619223,121506.4384959838,17,19,40,1028738.2675983204, 7, 9,20
59,970200000.0,30000.0, 1, 1,10,600000.0, 1, 8,10
521,6513771424.192473,0.0,16,16,10,2475493.8774235044,12, 7,40
637,25544386614.68145,0.0, 1,13,30,24269790.223664302,27, 7,60
649,25544386614.68145,0.0, 1,13,30,24269790.223664302,27, 7,60
4,59, 2
11,7368363496.119927,112583.98927808585,23,15,20,3450565.186162466,14,16,50
23,1656488616.547594,109393.37820729153,23,14,60,-99999999999999.0, 7, 9,20
59,848160000.0,99999999999999.0, 1, 1,10,-99999999999999.0, 1, 8,10
521,5711874879.572342,99999999999999.0,16,16,10,-99999999999999.0,12, 7,40
637,17016658384.278452,99999999999999.0, 1,13,30,-99999999999999.0,27, 7,60
649,17016658384.278452,99999999999999.0, 1,13,30,-99999999999999.0,27, 7,60
4,90, 3
11,6282376021.704976,96176.80417312396,27,19,60,-99999999999999.0,14,16,50
23,1710394281.955341,96176.80417312396,27,19,60,-99999999999999.0, 7, 9,20
59,897480000.0,99999999999999.0, 1, 1,10,-99999999999999.0, 1, 8,10
521,4571981739.749615,99999999999999.0,16,16,10,-99999999999999.0,12, 7,40
637,7899715853.960638,99999999999999.0, 1,13,30,-99999999999999.0,27, 7,60
649,7899715853.960638,99999999999999.0, 1,13,30,-99999999999999.0,27, 7,60
4,120, 4
11,4293899001.7643237,95767.66911119042,14, 8,60,-99999999999999.0,14,16,50
23,1674635484.625098,30000.0,18,19,30,-99999999999999.0, 7, 9,20
59,929520000.0,99999999999999.0, 1, 1,10,-99999999999999.0, 1, 8,10
521,2619263517.139209,99999999999999.0,16,16,10,-99999999999999.0,12, 7,40
637,4547537102.869876,99999999999999.0, 1,13,30,-99999999999999.0,27, 7,60
649,4547537102.869876,99999999999999.0, 1,13,30,-99999999999999.0,27, 7,60
4,151, 5
11,2476736579.577446,30000.0, 4, 9,60,-99999999999999.0,14,16,50
23,1686114188.16638,99999999999999.0,18,19,30,-99999999999999.0, 7, 9,20
59,970200000.0,99999999999999.0, 1, 1,10,-99999999999999.0, 1, 8,10
521,790622391.4110714,99999999999999.0,16,16,10,-99999999999999.0,12, 7,40
637,605915451.3769192,99999999999999.0, 1,13,30,-99999999999999.0,27, 7,60
649,605915451.3769192,99999999999999.0, 1,13,30,-99999999999999.0,27, 7,60
4,181, 6
11,2149146179.485513,99999999999999.0, 4, 9,60,-99999999999999.0,14,16,50
23,1472141273.2839289,99999999999999.0,18,19,30,-99999999999999.0, 7, 9,20
59,856800000.0,99999999999999.0, 1, 1,10,-99999999999999.0, 1, 8,10
521,677004906.2015853,99999999999999.0,16,16,10,-99999999999999.0,12, 7,40
637,24833255.672226157,99999999999999.0, 1,13,30,-99999999999999.0,27, 7,60
649,24833255.672226157,99999999999999.0, 1,13,30,-99999999999999.0,27, 7,60
4,212, 7
11,2845275558.257666,99999999999999.0, 4, 9,60,-99999999999999.0,14,16,50
23,1595576528.8841686,99999999999999.0,18,19,30,-99999999999999.0, 7, 9,20
59,970200000.0,99999999999999.0, 1, 1,10,-99999999999999.0, 1, 8,10
521,1249699029.3735032,99999999999999.0,16,16,10,-99999999999999.0,12, 7,40
637,0.0,99999999999999.0, 1,13,30,-99999999999999.0,27, 7,60
649,0.0,99999999999999.0, 1,13,30,-99999999999999.0,27, 7,60
4,243, 8
11,2232148033.7459307,99999999999999.0, 4, 9,60,-99999999999999.0,14,16,50
23,1589596254.4901667,99999999999999.0,18,19,30,-99999999999999.0, 7, 9,20
59,933840000.0,99999999999999.0, 1, 1,10,-99999999999999.0, 1, 8,10
521,642551779.2557596,99999999999999.0,16,16,10,-99999999999999.0,12, 7,40
637,6148740.028540463,99999999999999.0, 1,13,30,-99999999999999.0,27, 7,60
649,6148740.028540463,99999999999999.0, 1,13,30,-99999999999999.0,27, 7,60
4,273, 9
11,2028731991.8659658,99999999999999.0, 4, 9,60,-99999999999999.0,14,16,50
23,1541316630.0519571,99999999999999.0,18,19,30,-99999999999999.0, 7, 9,20
59,893160000.0,99999999999999.0, 1, 1,10,-99999999999999.0, 1, 8,10
521,487415361.81400955,99999999999999.0,16,16,10,-99999999999999.0,12, 7,40
637,109869385.73248114,99999999999999.0, 1,13,30,-99999999999999.0,27, 7,60
649,109869385.73248114,99999999999999.0, 1,13,30,-99999999999999.0,27, 7,60
4,304,10
11,3309147565.975159,99999999999999.0, 4, 9,60,-99999999999999.0,14,16,50
23,1730556676.3650143,99999999999999.0,18,19,30,-99999999999999.0, 7, 9,20
59,970200000.0,99999999999999.0, 1, 1,10,-99999999999999.0, 1, 8,10
521,1578590889.6101446,99999999999999.0,16,16,10,-99999999999999.0,12, 7,40
637,2523249402.518767,99999999999999.0, 1,13,30,-99999999999999.0,27, 7,60
649,2523249402.518767,99999999999999.0, 1,13,30,-99999999999999.0,27, 7,60
4,334,11
11,5914643035.468111,99999999999999.0, 4, 9,60,-99999999999999.0,14,16,50
23,1676988910.5458033,99999999999999.0,18,19,30,-99999999999999.0, 7, 9,20
59,893160000.0,99999999999999.0, 1, 1,10,-99999999999999.0, 1, 8,10
521,4237654124.922302,99999999999999.0,16,16,10,-99999999999999.0,12, 7,40
637,9080522871.081827,99999999999999.0, 1,13,30,-99999999999999.0,27, 7,60
649,9080522871.081827,99999999999999.0, 1,13,30,-99999999999999.0,27, 7,60
4,365,12
11,9004182795.45928,99999999999999.0, 4, 9,60,-99999999999999.0,14,16,50
23,1826752752.7858126,99999999999999.0,18,19,30,-99999999999999.0, 7, 9,20
59,933840000.0,99999999999999.0, 1, 1,10,-99999999999999.0, 1, 8,10
521,7177430042.673487,99999999999999.0,16,16,10,-99999999999999.0,12, 7,40
637,20378811285.658012,99999999999999.0, 1,13,30,-99999999999999.0,27, 7,60
649,20378811285.658012,99999999999999.0, 1,13,30,-99999999999999.0,27, 7,60
5,365
13,56318238211.97869,30000.0, 5, 4, 9,60,3450565.186162466, 2,14,16,50
25,20060378126.063534,30000.0, 4,18,19,30,1028738.2675983204, 1, 7, 9,20
61,11066760000.0,30000.0, 1, 1, 1,10,600000.0, 1, 1, 8,10
523,36257860085.91552,0.0, 1,16,16,10,2475493.8774235044, 1,12, 7,40
639,87737648347.85858,0.0, 1, 1,13,30,24269790.223664302, 1,27, 7,60
651,87737648347.85858,0.0, 1, 1,13,30,24269790.223664302, 1,27, 7,60
1,RUN PERIOD 2,  41.98, -87.92,  -6.00, 201.00
4,1, 7
11,88976235.25446181,99999999999999.0, 4, 9,60,-99999999999999.0,14,16,50
23,66114554.24990996,99999999999999.0,18,19,30,-99999999999999.0, 7, 9,20
59,40680000.0,99999999999999.0, 1, 1,10,-99999999999999.0, 1, 8,10
521,22861681.004551847,99999999999999.0,16,16,10,-99999999999999.0,12, 7,40
637,0.0,99999999999999.0, 1,13,30,-99999999999999.0,27, 7,60
649,0.0,99999999999999.0, 1,13,30,-99999999999999.0,27, 7,60
5,1
13,88976235.25446181,99999999999999.0, 5, 4, 9,60,-99999999999999.0, 2,14,16,50
25,66114554.24990996,99999999999999.0, 4,18,19,30,-99999999999999.0, 1, 7, 9,20
61,40680000.0,99999999999999.0, 1, 1, 1,10,-99999999999999.0, 1, 1, 8,10
523,22861681.004551847,99999999999999.0, 1,16,16,10,-99999999999999.0, 1,12, 7,40
639,0.0,99999999999999.0, 1, 1,13,30,-99999999999999.0, 1,27, 7,60
651,0.0,99999999999999.0, 1, 1,13,30,-99999999999999.0, 1,27, 7,60
End of Data
 Number of Records Written=          90
