Program Version,EnergyPlus, Version 24.1.0-9d7789a3ac, YMD=2024.10.18 13:35
1,5,Environment Title[],Latitude[deg],Longitude[deg],Time Zone[],Elevation[m]
2,8,Day of Simulation[],Month[],Day of Month[],DST Indicator[1=yes 0=no],Hour[],StartMinute[],EndMinute[],DayType
3,5,Cumulative Day of Simulation[],Month[],Day of Month[],DST Indicator[1=yes 0=no],DayType  ! When Daily Report Variables Requested
4,2,Cumulative Days of Simulation[],Month[]  ! When Monthly Report Variables Requested
5,1,Cumulative Days of Simulation[] ! When Run Period Report Variables Requested
6,1,Calendar Year of Simulation[] ! When Annual Report Variables Requested
250,1,LIVING ZONE,Zone Air Temperature [C] !TimeStep,REPORTSCH
251,1,LIVING ZONE,Zone Air System Sensible Heating Energy [J] !TimeStep,REPORTSCH
336,1,LIVING ZONE,Zone Air System Sensible Cooling Energy [J] !TimeStep,REPORTSCH
385,1,LIVING ZONE,Zone Thermostat Heating Setpoint Temperature [C] !TimeStep,REPORTSCH
386,1,LIVING ZONE,Zone Thermostat Cooling Setpoint Temperature [C] !TimeStep,REPORTSCH
387,1,GARAGE ZONE,Zone Air Temperature [C] !TimeStep,REPORTSCH
388,1,GARAGE ZONE,Zone Air System Sensible Heating Energy [J] !TimeStep,REPORTSCH
425,1,GARAGE ZONE,Zone Air System Sensible Cooling Energy [J] !TimeStep,REPORTSCH
450,1,GARAGE ZONE,Zone Thermostat Heating Setpoint Temperature [C] !TimeStep,REPORTSCH
451,1,GARAGE ZONE,Zone Thermostat Cooling Setpoint Temperature [C] !TimeStep,REPORTSCH
452,1,ATTIC ZONE,Zone Air Temperature [C] !TimeStep,REPORTSCH
453,1,ATTIC ZONE,Zone Air System Sensible Heating Energy [J] !TimeStep,REPORTSCH
490,1,ATTIC ZONE,Zone Air System Sensible Cooling Energy [J] !TimeStep,REPORTSCH
515,1,ATTIC ZONE,Zone Thermostat Heating Setpoint Temperature [C] !TimeStep,REPORTSCH
516,1,ATTIC ZONE,Zone Thermostat Cooling Setpoint Temperature [C] !TimeStep,REPORTSCH
542,1,ACDXCOIL 1,Cooling Coil Total Cooling Energy [J] !TimeStep,REPORTSCH
592,1,HEAT PUMP DX HEATING COIL 1,Heating Coil Heating Energy [J] !TimeStep,REPORTSCH
632,1,SUPP HEATING COIL 1,Heating Coil Heating Energy [J] !TimeStep,REPORTSCH
686,1,TWOSPEED HEAT PUMP 1,Unitary System DX Coil Cycling Ratio [] !TimeStep,REPORTSCH
687,1,TWOSPEED HEAT PUMP 1,Unitary System DX Coil Speed Ratio [] !TimeStep,REPORTSCH
688,1,TWOSPEED HEAT PUMP 1,Unitary System DX Coil Speed Level [] !TimeStep
End of Data Dictionary
1,CHICAGO_IL_USA ANNUAL HEATING 99% DESIGN CONDITIONS DB,  41.98, -87.92,  -6.00, 201.00
2,1, 1,21, 0, 1, 0.00,10.00,WinterDesignDay
250,18.225649918474055
251,12096599.943755873
336,0.0
385,18.177076010733472
386,25.305646693653337
387,-17.646218517123813
388,0.0
425,0.0
450,0.0
451,0.0
452,-18.337240941184387
453,0.0
490,0.0
515,0.0
516,0.0
542,0.0
592,0.0
632,11648464.331849746
686,1.0
687,1.0
688,2.0
2,1, 1,21, 0, 1,10.00,20.00,WinterDesignDay
250,18.408724612355144
251,5490508.093367752
336,0.0
385,18.84374267740014
386,25.305646693653333
387,-17.646064022667602
388,0.0
425,0.0
450,0.0
451,0.0
452,-18.337152149512562
453,0.0
490,0.0
515,0.0
516,0.0
542,0.0
592,0.0
632,5941637.515674185
686,1.0
687,1.0
688,2.0
2,1, 1,21, 0, 1,20.00,30.00,WinterDesignDay
250,18.804615872356464
251,14448395.006394263
336,0.0
385,18.84374267740014
386,25.305646693653333
387,-17.645968394288477
388,0.0
425,0.0
450,0.0
451,0.0
452,-18.336855391947246
453,0.0
490,0.0
515,0.0
516,0.0
542,0.0
592,0.0
632,14303296.051545348
686,1.0
687,1.0
688,2.0
2,1, 1,21, 0, 1,30.00,40.00,WinterDesignDay
250,18.175378228150013
251,10683927.189296639
336,0.0
385,18.177076010733458
386,25.30564669365332
387,-17.646069613962197
388,0.0
425,0.0
450,0.0
451,0.0
452,-18.336818971259707
453,0.0
490,0.0
515,0.0
516,0.0
542,0.0
592,0.0
632,10427638.002053773
686,0.9999999999999992
687,0.9999999999999992
688,1.9999999999999984
2,1, 1,21, 0, 1,40.00,50.00,WinterDesignDay
250,18.14333842269216
251,11025303.691970903
336,0.0
385,18.177076010733487
386,25.305646693653355
387,-17.646187152004824
388,0.0
425,0.0
450,0.0
451,0.0
452,-18.337014927902523
453,0.0
490,0.0
515,0.0
516,0.0
542,0.0
592,0.0
632,10880812.730434036
686,1.0000000000000009
687,1.0000000000000009
688,2.0000000000000018
2,1, 1,21, 0, 1,50.00,60.00,WinterDesignDay
250,18.225649918456632
251,12096599.991198666
336,0.0
385,18.177076010733487
386,25.305646693653355
387,-17.646224391911073
388,0.0
425,0.0
450,0.0
451,0.0
452,-18.33724153363285
453,0.0
490,0.0
515,0.0
516,0.0
542,0.0
592,0.0
632,11648464.379272094
686,1.0000000000000009
687,1.0000000000000009
688,2.0000000000000018
2,1, 1,21, 0, 2, 0.00,10.00,WinterDesignDay
250,18.408724612776147
251,5490508.14178801
336,0.0
385,18.84374267740014
386,25.305646693653333
387,-17.646069807598607
388,0.0
425,0.0
450,0.0
451,0.0
452,-18.33715273387036
453,0.0
490,0.0
515,0.0
516,0.0
542,0.0
592,0.0
632,5941637.564372586
686,1.0
687,1.0
688,2.0
2,1, 1,21, 0, 2,10.00,20.00,WinterDesignDay
250,18.80461587241791
251,14448395.05447784
336,0.0
385,18.84374267740014
386,25.305646693653333
387,-17.64597411030119
388,0.0
425,0.0
450,0.0
451,0.0
452,-18.336855968684873
453,0.0
490,0.0
515,0.0
516,0.0
542,0.0
592,0.0
632,14303296.0995218
686,1.0
687,1.0
688,2.0
2,1, 1,21, 0, 2,20.00,30.00,WinterDesignDay
250,18.175378228151505
251,10683927.235317264
336,0.0
385,18.177076010733487
386,25.30564669365335
387,-17.646075269420916
388,0.0
425,0.0
450,0.0
451,0.0
452,-18.33681954058276
453,0.0
490,0.0
515,0.0
516,0.0
542,0.0
592,0.0
632,10427638.048069315
686,1.0000000000000007
687,1.0000000000000007
688,2.0000000000000013
2,1, 1,21, 0, 2,30.00,40.00,WinterDesignDay
250,18.14333842270772
251,11025303.737017345
336,0.0
385,18.177076010733487
386,25.305646693653355
387,-17.6461927406357
388,0.0
425,0.0
450,0.0
451,0.0
452,-18.3370154901058
453,0.0
490,0.0
515,0.0
516,0.0
542,0.0
592,0.0
632,10880812.775484046
686,1.0000000000000009
687,1.0000000000000009
688,2.0000000000000018
2,1, 1,21, 0, 2,40.00,50.00,WinterDesignDay
250,18.225649918440315
251,12096600.035589078
336,0.0
385,18.177076010733487
386,25.305646693653355
387,-17.646229888873716
388,0.0
425,0.0
450,0.0
451,0.0
452,-18.337242087931525
453,0.0
490,0.0
515,0.0
516,0.0
542,0.0
592,0.0
632,11648464.42364338
686,1.0000000000000009
687,1.0000000000000009
688,2.0000000000000018
2,1, 1,21, 0, 2,50.00,60.00,WinterDesignDay
250,18.408724613170065
251,5490508.187092942
336,0.0
385,18.84374267740014
386,25.305646693653333
387,-17.64607522048347
388,0.0
425,0.0
450,0.0
451,0.0
452,-18.33715328060093
453,0.0
490,0.0
515,0.0
516,0.0
542,0.0
592,0.0
632,5941637.609937764
686,1.0
687,1.0
688,2.0
2,1, 1,21, 0, 3, 0.00,10.00,WinterDesignDay
250,18.804615872475395
251,14448395.099467713
336,0.0
385,18.84374267740014
386,25.305646693653333
387,-17.645979458699266
388,0.0
425,0.0
450,0.0
451,0.0
452,-18.33685650828585
453,0.0
490,0.0
515,0.0
516,0.0
542,0.0
592,0.0
632,14303296.144411441
686,1.0
687,1.0
688,2.0
2,1, 1,21, 0, 3,10.00,20.00,WinterDesignDay
250,18.175378228152866
251,10683927.278376922
336,0.0
385,18.177076010733472
386,25.30564669365333
387,-17.64608056115899
388,0.0
425,0.0
450,0.0
451,0.0
452,-18.336820073245782
453,0.0
490,0.0
515,0.0
516,0.0
542,0.0
592,0.0
632,10427638.091124216
686,1.0
687,1.0
688,2.0
2,1, 1,21, 0, 3,20.00,30.00,WinterDesignDay
250,18.14333842272226
251,11025303.779165491
336,0.0
385,18.177076010733465
386,25.305646693653323
387,-17.64619796984362
388,0.0
425,0.0
450,0.0
451,0.0
452,-18.337016016107782
453,0.0
490,0.0
515,0.0
516,0.0
542,0.0
592,0.0
632,10880812.817635529
686,0.9999999999999996
687,0.9999999999999996
688,1.9999999999999991
2,1, 1,21, 0, 3,30.00,40.00,WinterDesignDay
250,18.22564991842504
251,12096600.077123307
336,0.0
385,18.17707601073348
386,25.305646693653344
387,-17.646235032308404
388,0.0
425,0.0
450,0.0
451,0.0
452,-18.337242606539682
453,0.0
490,0.0
515,0.0
516,0.0
542,0.0
592,0.0
632,11648464.465159709
686,1.0000000000000004
687,1.0000000000000004
688,2.000000000000001
2,1, 1,21, 0, 3,40.00,50.00,WinterDesignDay
250,18.408724613538638
251,5490508.2294829665
336,0.0
385,18.84374267740014
386,25.305646693653333
387,-17.646080285247226
388,0.0
425,0.0
450,0.0
451,0.0
452,-18.337153792129648
453,0.0
490,0.0
515,0.0
516,0.0
542,0.0
592,0.0
632,5941637.652571296
686,1.0
687,1.0
688,2.0
2,1, 1,21, 0, 3,50.00,60.00,WinterDesignDay
250,18.80461587252919
251,14448395.14156307
336,0.0
385,18.84374267740014
386,25.305646693653333
387,-17.645984463123064
388,0.0
425,0.0
450,0.0
451,0.0
452,-18.336857013143927
453,0.0
490,0.0
515,0.0
516,0.0
542,0.0
592,0.0
632,14303296.18641301
686,1.0
687,1.0
688,2.0
2,1, 1,21, 0, 4, 0.00,10.00,WinterDesignDay
250,18.175378228154152
251,10683927.318666272
336,0.0
385,18.177076010733472
386,25.305646693653337
387,-17.646085512566415
388,0.0
425,0.0
450,0.0
451,0.0
452,-18.336820571611938
453,0.0
490,0.0
515,0.0
516,0.0
542,0.0
592,0.0
632,10427638.131409114
686,1.0
687,1.0
688,2.0
2,1, 1,21, 0, 4,10.00,20.00,WinterDesignDay
250,18.14333842273589
251,11025303.818601975
336,0.0
385,18.177076010733472
386,25.305646693653333
387,-17.646202862742324
388,0.0
425,0.0
450,0.0
451,0.0
452,-18.337016508241998
453,0.0
490,0.0
515,0.0
516,0.0
542,0.0
592,0.0
632,10880812.85707514
686,1.0
687,1.0
688,2.0
2,1, 1,21, 0, 4,20.00,30.00,WinterDesignDay
250,18.225649918410745
251,12096600.1159854
336,0.0
385,18.177076010733465
386,25.305646693653323
387,-17.646239844950294
388,0.0
425,0.0
450,0.0
451,0.0
452,-18.337243091757664
453,0.0
490,0.0
515,0.0
516,0.0
542,0.0
592,0.0
632,11648464.50400505
686,0.9999999999999996
687,0.9999999999999996
688,1.9999999999999991
2,1, 1,21, 0, 4,30.00,40.00,WinterDesignDay
250,18.408724613883496
251,5490508.269145767
336,0.0
385,18.843742677400133
386,25.305646693653326
387,-17.646085024277596
388,0.0
425,0.0
450,0.0
451,0.0
452,-18.33715427072519
453,0.0
490,0.0
515,0.0
516,0.0
542,0.0
592,0.0
632,5941637.692461934
686,0.9999999999999997
687,0.9999999999999997
688,1.9999999999999993
2,1, 1,21, 0, 4,40.00,50.00,WinterDesignDay
250,18.804615872579518
251,14448395.180950075
336,0.0
385,18.84374267740014
386,25.305646693653333
387,-17.645989145694003
388,0.0
425,0.0
450,0.0
451,0.0
452,-18.336857485498246
453,0.0
490,0.0
515,0.0
516,0.0
542,0.0
592,0.0
632,14303296.22571227
686,1.0
687,1.0
688,2.0
2,1, 1,21, 0, 4,50.00,60.00,WinterDesignDay
250,18.175378228155328
251,10683927.356363438
336,0.0
385,18.177076010733447
386,25.305646693653298
387,-17.64609014553033
388,0.0
425,0.0
450,0.0
451,0.0
452,-18.33682103789168
453,0.0
490,0.0
515,0.0
516,0.0
542,0.0
592,0.0
632,10427638.169102117
686,0.9999999999999986
687,0.9999999999999986
688,1.9999999999999971
2,1, 1,21, 0, 5, 0.00,10.00,WinterDesignDay
250,18.143338422748638
251,11025303.855501236
336,0.0
385,18.177076010733472
386,25.305646693653337
387,-17.646207440960236
388,0.0
425,0.0
450,0.0
451,0.0
452,-18.337016968691252
453,0.0
490,0.0
515,0.0
516,0.0
542,0.0
592,0.0
632,10880812.89397732
686,1.0
687,1.0
688,2.0
2,1, 1,21, 0, 5,10.00,20.00,WinterDesignDay
250,18.225649918397387
251,12096600.152347174
336,0.0
385,18.177076010733472
386,25.305646693653333
387,-17.64624434807254
388,0.0
425,0.0
450,0.0
451,0.0
452,-18.337243545737337
453,0.0
490,0.0
515,0.0
516,0.0
542,0.0
592,0.0
632,11648464.540351158
686,1.0
687,1.0
688,2.0
2,1, 1,21, 0, 5,20.00,30.00,WinterDesignDay
250,18.408724614206175
251,5490508.306256786
336,0.0
385,18.84374267740014
386,25.305646693653333
387,-17.646089458522088
388,0.0
425,0.0
450,0.0
451,0.0
452,-18.33715471850982
453,0.0
490,0.0
515,0.0
516,0.0
542,0.0
592,0.0
632,5941637.729786137
686,1.0
687,1.0
688,2.0
2,1, 1,21, 0, 5,30.00,40.00,WinterDesignDay
250,18.804615872626613
251,14448395.217803044
336,0.0
385,18.84374267740014
386,25.305646693653333
387,-17.645993527109596
388,0.0
425,0.0
450,0.0
451,0.0
452,-18.33685792744336
453,0.0
490,0.0
515,0.0
516,0.0
542,0.0
592,0.0
632,14303296.262483135
686,1.0
687,1.0
688,2.0
2,1, 1,21, 0, 5,40.00,50.00,WinterDesignDay
250,18.175378228156454
251,10683927.391635457
336,0.0
385,18.177076010733447
386,25.305646693653298
387,-17.64609448052916
388,0.0
425,0.0
450,0.0
451,0.0
452,-18.336821474152803
453,0.0
490,0.0
515,0.0
516,0.0
542,0.0
592,0.0
632,10427638.204370234
686,0.9999999999999986
687,0.9999999999999986
688,1.9999999999999971
2,1, 1,21, 0, 5,50.00,60.00,WinterDesignDay
250,18.143338422760575
251,11025303.890026659
336,0.0
385,18.177076010733487
386,25.305646693653355
387,-17.646211724733757
388,0.0
425,0.0
450,0.0
451,0.0
452,-18.337017399497377
453,0.0
490,0.0
515,0.0
516,0.0
542,0.0
592,0.0
632,10880812.928505475
686,1.0000000000000009
687,1.0000000000000009
688,2.0000000000000018
2,1, 1,21, 0, 6, 0.00,10.00,WinterDesignDay
250,18.22564991838488
251,12096600.186369702
336,0.0
385,18.177076010733472
386,25.305646693653337
387,-17.646248561580144
388,0.0
425,0.0
450,0.0
451,0.0
452,-18.33724397049157
453,0.0
490,0.0
515,0.0
516,0.0
542,0.0
592,0.0
632,11648464.574359022
686,1.0
687,1.0
688,2.0
2,1, 1,21, 0, 6,10.00,20.00,WinterDesignDay
250,18.408724614508095
251,5490508.340980255
336,0.0
385,18.84374267740014
386,25.305646693653333
387,-17.64609360758161
388,0.0
425,0.0
450,0.0
451,0.0
452,-18.337155137468738
453,0.0
490,0.0
515,0.0
516,0.0
542,0.0
592,0.0
632,5941637.764709074
686,1.0
687,1.0
688,2.0
2,1, 1,21, 0, 6,20.00,30.00,WinterDesignDay
250,18.804615872670674
251,14448395.252285138
336,0.0
385,18.84374267740014
386,25.305646693653333
387,-17.645997626737294
388,0.0
425,0.0
450,0.0
451,0.0
452,-18.336858340938637
453,0.0
490,0.0
515,0.0
516,0.0
542,0.0
592,0.0
632,14303296.296888404
686,1.0
687,1.0
688,2.0
2,1, 1,21, 0, 6,30.00,40.00,WinterDesignDay
250,18.17537822815752
251,10683927.424638223
336,0.0
385,18.177076010733458
386,25.30564669365332
387,-17.646098536724978
388,0.0
425,0.0
450,0.0
451,0.0
452,-18.336821882329524
453,0.0
490,0.0
515,0.0
516,0.0
542,0.0
592,0.0
632,10427638.237369359
686,0.9999999999999992
687,0.9999999999999992
688,1.9999999999999984
2,1, 1,21, 0, 6,40.00,50.00,WinterDesignDay
250,18.14333842277174
251,11025303.922330735
336,0.0
385,18.177076010733487
386,25.305646693653355
387,-17.64621573299887
388,0.0
425,0.0
450,0.0
451,0.0
452,-18.337017802570397
453,0.0
490,0.0
515,0.0
516,0.0
542,0.0
592,0.0
632,10880812.960812112
686,1.0000000000000009
687,1.0000000000000009
688,2.0000000000000018
2,1, 1,21, 0, 6,50.00,60.00,WinterDesignDay
250,18.225649918373193
251,12096600.218203392
336,0.0
385,18.177076010733487
386,25.305646693653355
387,-17.64625250409841
388,0.0
425,0.0
450,0.0
451,0.0
452,-18.337244367903356
453,0.0
490,0.0
515,0.0
516,0.0
542,0.0
592,0.0
632,11648464.606178993
686,1.0000000000000009
687,1.0000000000000009
688,2.0000000000000018
2,1, 1,21, 0, 7, 0.00,10.00,WinterDesignDay
250,18.40872461479059
251,5490508.3734699255
336,0.0
385,18.84374267740014
386,25.305646693653333
387,-17.646097489796382
388,0.0
425,0.0
450,0.0
451,0.0
452,-18.337155529459064
453,0.0
490,0.0
515,0.0
516,0.0
542,0.0
592,0.0
632,5941637.797385379
686,1.0
687,1.0
688,2.0
2,1, 1,21, 0, 7,10.00,20.00,WinterDesignDay
250,18.8046158727119
251,14448395.284548912
336,0.0
385,18.84374267740014
386,25.305646693653333
387,-17.64600146269954
388,0.0
425,0.0
450,0.0
451,0.0
452,-18.33685872781696
453,0.0
490,0.0
515,0.0
516,0.0
542,0.0
592,0.0
632,14303296.329080295
686,1.0
687,1.0
688,2.0
2,1, 1,21, 0, 7,20.00,30.00,WinterDesignDay
250,18.175378228158536
251,10683927.455517752
336,0.0
385,18.177076010733487
386,25.30564669365335
387,-17.646102332048894
388,0.0
425,0.0
450,0.0
451,0.0
452,-18.33682226423127
453,0.0
490,0.0
515,0.0
516,0.0
542,0.0
592,0.0
632,10427638.268245472
686,1.0000000000000007
687,1.0000000000000007
688,2.0000000000000013
2,1, 1,21, 0, 7,30.00,40.00,WinterDesignDay
250,18.14333842278218
251,11025303.952556703
336,0.0
385,18.177076010733487
386,25.305646693653355
387,-17.646219483474496
388,0.0
425,0.0
450,0.0
451,0.0
452,-18.337018179697086
453,0.0
490,0.0
515,0.0
516,0.0
542,0.0
592,0.0
632,10880812.991040474
686,1.0000000000000009
687,1.0000000000000009
688,2.0000000000000018
2,1, 1,21, 0, 7,40.00,50.00,WinterDesignDay
250,18.225649918362247
251,12096600.247989051
336,0.0
385,18.177076010733487
386,25.305646693653355
387,-17.646256193055567
388,0.0
425,0.0
450,0.0
451,0.0
452,-18.337244739734157
453,0.0
490,0.0
515,0.0
516,0.0
542,0.0
592,0.0
632,11648464.635951811
686,1.0000000000000009
687,1.0000000000000009
688,2.0000000000000018
2,1, 1,21, 0, 7,50.00,60.00,WinterDesignDay
250,18.408724615054908
251,5490508.403869393
336,0.0
385,18.84374267740014
386,25.305646693653333
387,-17.64610112232862
388,0.0
425,0.0
450,0.0
451,0.0
452,-18.337155896218107
453,0.0
490,0.0
515,0.0
516,0.0
542,0.0
592,0.0
632,5941637.827959472
686,1.0
687,1.0
688,2.0
2,1, 1,21, 0, 8, 0.00,10.00,WinterDesignDay
250,18.804615872750478
251,14448395.314737119
336,0.0
385,18.84374267740014
386,25.305646693653333
387,-17.646005051953615
388,0.0
425,0.0
450,0.0
451,0.0
452,-18.33685908979301
453,0.0
490,0.0
515,0.0
516,0.0
542,0.0
592,0.0
632,14303296.359201245
686,1.0
687,1.0
688,2.0
2,1, 1,21, 0, 8,10.00,20.00,WinterDesignDay
250,18.175378228159445
251,10683927.484410815
336,0.0
385,18.177076010733472
386,25.30564669365333
387,-17.646105883277684
388,0.0
425,0.0
450,0.0
451,0.0
452,-18.33682262155067
453,0.0
490,0.0
515,0.0
516,0.0
542,0.0
592,0.0
632,10427638.297135344
686,1.0
687,1.0
688,2.0
2,1, 1,21, 0, 8,20.00,30.00,WinterDesignDay
250,18.143338422791928
251,11025303.98083821
336,0.0
385,18.177076010733465
386,25.305646693653323
387,-17.646222992739403
388,0.0
425,0.0
450,0.0
451,0.0
452,-18.337018532548935
453,0.0
490,0.0
515,0.0
516,0.0
542,0.0
592,0.0
632,10880813.01932422
686,0.9999999999999996
687,0.9999999999999996
688,1.9999999999999991
2,1, 1,21, 0, 8,30.00,40.00,WinterDesignDay
250,18.225649918351994
251,12096600.275858719
336,0.0
385,18.17707601073348
386,25.305646693653344
387,-17.646259644758217
388,0.0
425,0.0
450,0.0
451,0.0
452,-18.337245087631818
453,0.0
490,0.0
515,0.0
516,0.0
542,0.0
592,0.0
632,11648464.663809473
686,1.0000000000000004
687,1.0000000000000004
688,2.000000000000001
2,1, 1,21, 0, 8,40.00,50.00,WinterDesignDay
250,18.408724615302226
251,5490508.432313201
336,0.0
385,18.84374267740014
386,25.305646693653333
387,-17.64610452123456
388,0.0
425,0.0
450,0.0
451,0.0
452,-18.33715623937109
453,0.0
490,0.0
515,0.0
516,0.0
542,0.0
592,0.0
632,5941637.856566676
686,1.0
687,1.0
688,2.0
2,1, 1,21, 0, 8,50.00,60.00,WinterDesignDay
250,18.804615872786577
251,14448395.342983173
336,0.0
385,18.84374267740014
386,25.305646693653333
387,-17.646008410364473
388,0.0
425,0.0
450,0.0
451,0.0
452,-18.336859428470806
453,0.0
490,0.0
515,0.0
516,0.0
542,0.0
592,0.0
632,14303296.38738437
686,1.0
687,1.0
688,2.0
2,1, 1,21, 0, 9, 0.00,10.00,WinterDesignDay
250,18.175378228160305
251,10683927.511445127
336,0.0
385,18.177076010733472
386,25.305646693653337
387,-17.646109206108804
388,0.0
425,0.0
450,0.0
451,0.0
452,-18.336822955871245
453,0.0
490,0.0
515,0.0
516,0.0
542,0.0
592,0.0
632,10427638.324166669
686,1.0
687,1.0
688,2.0
2,1, 1,21, 0, 9,10.00,20.00,WinterDesignDay
250,18.143338422801076
251,11025304.007300207
336,0.0
385,18.177076010733472
386,25.305646693653333
387,-17.646226276305292
388,0.0
425,0.0
450,0.0
451,0.0
452,-18.3370188626896
453,0.0
490,0.0
515,0.0
516,0.0
542,0.0
592,0.0
632,10880813.045788318
686,1.0
687,1.0
688,2.0
2,1, 1,21, 0, 9,20.00,30.00,WinterDesignDay
250,18.2256499183424
251,12096600.301935349
336,0.0
385,18.177076010733465
386,25.305646693653323
387,-17.64626287446415
388,0.0
425,0.0
450,0.0
451,0.0
452,-18.33724541313784
453,0.0
490,0.0
515,0.0
516,0.0
542,0.0
592,0.0
632,11648464.689874863
686,0.9999999999999996
687,0.9999999999999996
688,1.9999999999999991
2,1, 1,21, 0, 9,30.00,40.00,WinterDesignDay
250,18.408724615533625
251,5490508.458927237
336,0.0
385,18.843742677400133
386,25.305646693653326
387,-17.646107701539773
388,0.0
425,0.0
450,0.0
451,0.0
452,-18.33715656043835
453,0.0
490,0.0
515,0.0
516,0.0
542,0.0
592,0.0
632,5941637.8833335955
686,0.9999999999999997
687,0.9999999999999997
688,1.9999999999999993
2,1, 1,21, 0, 9,40.00,50.00,WinterDesignDay
250,18.804615872820342
251,14448395.369412184
336,0.0
385,18.84374267740014
386,25.305646693653333
387,-17.64601155277883
388,0.0
425,0.0
450,0.0
451,0.0
452,-18.33685974535088
453,0.0
490,0.0
515,0.0
516,0.0
542,0.0
592,0.0
632,14303296.4137545
686,1.0
687,1.0
688,2.0
2,1, 1,21, 0, 9,50.00,60.00,WinterDesignDay
250,18.175378228161087
251,10683927.53674039
336,0.0
385,18.177076010733447
386,25.305646693653298
387,-17.64611231523177
388,0.0
425,0.0
450,0.0
451,0.0
452,-18.336823268674234
453,0.0
490,0.0
515,0.0
516,0.0
542,0.0
592,0.0
632,10427638.34945914
686,0.9999999999999986
687,0.9999999999999986
688,1.9999999999999971
2,1, 1,21, 0,10, 0.00,10.00,WinterDesignDay
250,18.14333842280963
251,11025304.032060066
336,0.0
385,18.177076010733472
386,25.305646693653337
387,-17.646229348688447
388,0.0
425,0.0
450,0.0
451,0.0
452,-18.337019171581833
453,0.0
490,0.0
515,0.0
516,0.0
542,0.0
592,0.0
632,10880813.070550138
686,1.0
687,1.0
688,2.0
2,1, 1,21, 0,10,10.00,20.00,WinterDesignDay
250,18.22564991833344
251,12096600.326334521
336,0.0
385,18.177076010733472
386,25.305646693653333
387,-17.64626589645078
388,0.0
425,0.0
450,0.0
451,0.0
452,-18.337245717694366
453,0.0
490,0.0
515,0.0
516,0.0
542,0.0
592,0.0
632,11648464.71426352
686,1.0
687,1.0
688,2.0
2,1, 1,21, 0,10,20.00,30.00,WinterDesignDay
250,18.408724615750156
251,5490508.483829198
336,0.0
385,18.84374267740014
386,25.305646693653333
387,-17.64611067730247
388,0.0
425,0.0
450,0.0
451,0.0
452,-18.337156860842263
453,0.0
490,0.0
515,0.0
516,0.0
542,0.0
592,0.0
632,5941637.908378601
686,1.0
687,1.0
688,2.0
2,1, 1,21, 0,10,30.00,40.00,WinterDesignDay
250,18.804615872851947
251,14448395.394141026
336,0.0
385,18.84374267740014
386,25.305646693653333
387,-17.646014493087804
388,0.0
425,0.0
450,0.0
451,0.0
452,-18.33686004183705
453,0.0
490,0.0
515,0.0
516,0.0
542,0.0
592,0.0
632,14303296.43842825
686,1.0
687,1.0
688,2.0
2,1, 1,21, 0,10,40.00,50.00,WinterDesignDay
250,18.17537822816184
251,10683927.560408313
336,0.0
385,18.177076010733447
386,25.305646693653298
387,-17.646115224390336
388,0.0
425,0.0
450,0.0
451,0.0
452,-18.3368235613455
453,0.0
490,0.0
515,0.0
516,0.0
542,0.0
592,0.0
632,10427638.373124447
686,0.9999999999999986
687,0.9999999999999986
688,1.9999999999999971
2,1, 1,21, 0,10,50.00,60.00,WinterDesignDay
250,18.143338422817646
251,11025304.055227023
336,0.0
385,18.177076010733487
386,25.305646693653355
387,-17.646232223470097
388,0.0
425,0.0
450,0.0
451,0.0
452,-18.33701946059408
453,0.0
490,0.0
515,0.0
516,0.0
542,0.0
592,0.0
632,10880813.093718925
686,1.0000000000000009
687,1.0000000000000009
688,2.0000000000000018
2,1, 1,21, 0,11, 0.00,10.00,WinterDesignDay
250,18.225649918325047
251,12096600.349164138
336,0.0
385,18.177076010733472
386,25.305646693653337
387,-17.646268724077682
388,0.0
425,0.0
450,0.0
451,0.0
452,-18.33724600265048
453,0.0
490,0.0
515,0.0
516,0.0
542,0.0
592,0.0
632,11648464.737083297
686,1.0
687,1.0
688,2.0
2,1, 1,21, 0,11,10.00,20.00,WinterDesignDay
250,18.408724615952746
251,5490508.507129145
336,0.0
385,18.84374267740014
386,25.305646693653333
387,-17.646113461678265
388,0.0
425,0.0
450,0.0
451,0.0
452,-18.337157141913448
453,0.0
490,0.0
515,0.0
516,0.0
542,0.0
592,0.0
632,5941637.931812401
686,1.0
687,1.0
688,2.0
2,1, 1,21, 0,11,20.00,30.00,WinterDesignDay
250,18.804615872881513
251,14448395.417279132
336,0.0
385,18.84374267740014
386,25.305646693653333
387,-17.646017244289673
388,0.0
425,0.0
450,0.0
451,0.0
452,-18.336860319242604
453,0.0
490,0.0
515,0.0
516,0.0
542,0.0
592,0.0
632,14303296.461514806
686,1.0
687,1.0
688,2.0
2,1, 1,21, 0,11,30.00,40.00,WinterDesignDay
250,18.175378228162565
251,10683927.58255374
336,0.0
385,18.177076010733458
386,25.30564669365332
387,-17.646117946444768
388,0.0
425,0.0
450,0.0
451,0.0
452,-18.336823835181466
453,0.0
490,0.0
515,0.0
516,0.0
542,0.0
592,0.0
632,10427638.395267427
686,0.9999999999999992
687,0.9999999999999992
688,1.9999999999999984
2,1, 1,21, 0,11,40.00,50.00,WinterDesignDay
250,18.143338422825135
251,11025304.076903703
336,0.0
385,18.177076010733487
386,25.305646693653355
387,-17.646234913358466
388,0.0
425,0.0
450,0.0
451,0.0
452,-18.337019731006546
453,0.0
490,0.0
515,0.0
516,0.0
542,0.0
592,0.0
632,10880813.115397325
686,1.0000000000000009
687,1.0000000000000009
688,2.0000000000000018
2,1, 1,21, 0,11,50.00,60.00,WinterDesignDay
250,18.22564991831721
251,12096600.370525137
336,0.0
385,18.177076010733487
386,25.305646693653355
387,-17.64627136984378
388,0.0
425,0.0
450,0.0
451,0.0
452,-18.337246269268356
453,0.0
490,0.0
515,0.0
516,0.0
542,0.0
592,0.0
632,11648464.758435093
686,1.0000000000000009
687,1.0000000000000009
688,2.0000000000000018
2,1, 1,21, 0,12, 0.00,10.00,WinterDesignDay
250,18.40872461614231
251,5490508.528930355
336,0.0
385,18.84374267740014
386,25.305646693653333
387,-17.646116066974866
388,0.0
425,0.0
450,0.0
451,0.0
452,-18.337157404896757
453,0.0
490,0.0
515,0.0
516,0.0
542,0.0
592,0.0
632,5941637.953738845
686,1.0
687,1.0
688,2.0
2,1, 1,21, 0,12,10.00,20.00,WinterDesignDay
250,18.804615872909174
251,14448395.43892876
336,0.0
385,18.84374267740014
386,25.305646693653333
387,-17.646019818545696
388,0.0
425,0.0
450,0.0
451,0.0
452,-18.336860578796145
453,0.0
490,0.0
515,0.0
516,0.0
542,0.0
592,0.0
632,14303296.483116202
686,1.0
687,1.0
688,2.0
2,1, 1,21, 0,12,20.00,30.00,WinterDesignDay
250,18.175378228163247
251,10683927.603274586
336,0.0
385,18.177076010733487
386,25.30564669365335
387,-17.646120493428416
388,0.0
425,0.0
450,0.0
451,0.0
452,-18.336824091394963
453,0.0
490,0.0
515,0.0
516,0.0
542,0.0
592,0.0
632,10427638.415985983
686,1.0000000000000007
687,1.0000000000000007
688,2.0000000000000013
2,1, 1,21, 0,12,30.00,40.00,WinterDesignDay
250,18.14333842283214
251,11025304.097185915
336,0.0
385,18.177076010733487
386,25.305646693653355
387,-17.646237430244888
388,0.0
425,0.0
450,0.0
451,0.0
452,-18.337019984016916
453,0.0
490,0.0
515,0.0
516,0.0
542,0.0
592,0.0
632,10880813.135681145
686,1.0000000000000009
687,1.0000000000000009
688,2.0000000000000018
2,1, 1,21, 0,12,40.00,50.00,WinterDesignDay
250,18.22564991830986
251,12096600.390511982
336,0.0
385,18.177076010733487
386,25.305646693653355
387,-17.646273845445833
388,0.0
425,0.0
450,0.0
451,0.0
452,-18.337246518728726
453,0.0
490,0.0
515,0.0
516,0.0
542,0.0
592,0.0
632,11648464.778413324
686,1.0000000000000009
687,1.0000000000000009
688,2.0000000000000018
2,1, 1,21, 0,12,50.00,60.00,WinterDesignDay
250,18.408724616319677
251,5490508.549329107
336,0.0
385,18.84374267740014
386,25.305646693653333
387,-17.646118504710252
388,0.0
425,0.0
450,0.0
451,0.0
452,-18.33715765095678
453,0.0
490,0.0
515,0.0
516,0.0
542,0.0
592,0.0
632,5941637.974254779
686,1.0
687,1.0
688,2.0
2,1, 1,21, 0,13, 0.00,10.00,WinterDesignDay
250,18.804615872935067
251,14448395.45918566
336,0.0
385,18.84374267740014
386,25.305646693653333
387,-17.646022227237133
388,0.0
425,0.0
450,0.0
451,0.0
452,-18.3368608216471
453,0.0
490,0.0
515,0.0
516,0.0
542,0.0
592,0.0
632,14303296.503327973
686,1.0
687,1.0
688,2.0
2,1, 1,21, 0,13,10.00,20.00,WinterDesignDay
250,18.175378228163854
251,10683927.622662475
336,0.0
385,18.177076010733472
386,25.30564669365333
387,-17.64612287660122
388,0.0
425,0.0
450,0.0
451,0.0
452,-18.336824331120614
453,0.0
490,0.0
515,0.0
516,0.0
542,0.0
592,0.0
632,10427638.43537173
686,1.0
687,1.0
688,2.0
2,1, 1,21, 0,13,20.00,30.00,WinterDesignDay
250,18.143338422838674
251,11025304.1161635
336,0.0
385,18.177076010733465
386,25.305646693653323
387,-17.646239785255943
388,0.0
425,0.0
450,0.0
451,0.0
452,-18.337020220745625
453,0.0
490,0.0
515,0.0
516,0.0
542,0.0
592,0.0
632,10880813.154660232
686,0.9999999999999996
687,0.9999999999999996
688,1.9999999999999991
2,1, 1,21, 0,13,30.00,40.00,WinterDesignDay
250,18.225649918302977
251,12096600.409213176
336,0.0
385,18.17707601073348
386,25.305646693653344
387,-17.646276161827252
388,0.0
425,0.0
450,0.0
451,0.0
452,-18.337246752136284
453,0.0
490,0.0
515,0.0
516,0.0
542,0.0
592,0.0
632,11648464.797106458
686,1.0000000000000004
687,1.0000000000000004
688,2.000000000000001
2,1, 1,21, 0,13,40.00,50.00,WinterDesignDay
250,18.408724616485635
251,5490508.568415667
336,0.0
385,18.84374267740014
386,25.305646693653333
387,-17.646120785660095
388,0.0
425,0.0
450,0.0
451,0.0
452,-18.337157881183106
453,0.0
490,0.0
515,0.0
516,0.0
542,0.0
592,0.0
632,5941637.993450984
686,1.0
687,1.0
688,2.0
2,1, 1,21, 0,13,50.00,60.00,WinterDesignDay
250,18.804615872959285
251,14448395.478139509
336,0.0
385,18.84374267740014
386,25.305646693653333
387,-17.646024481010826
388,0.0
425,0.0
450,0.0
451,0.0
452,-18.336861048870837
453,0.0
490,0.0
515,0.0
516,0.0
542,0.0
592,0.0
632,14303296.522239588
686,1.0
687,1.0
688,2.0
2,1, 1,21, 0,14, 0.00,10.00,WinterDesignDay
250,18.17537822816443
251,10683927.64080321
336,0.0
385,18.177076010733472
386,25.305646693653337
387,-17.646125106497802
388,0.0
425,0.0
450,0.0
451,0.0
452,-18.33682455542003
453,0.0
490,0.0
515,0.0
516,0.0
542,0.0
592,0.0
632,10427638.45351046
686,1.0
687,1.0
688,2.0
2,1, 1,21, 0,14,10.00,20.00,WinterDesignDay
250,18.143338422844813
251,11025304.13392025
336,0.0
385,18.177076010733472
386,25.305646693653333
387,-17.646241988802455
388,0.0
425,0.0
450,0.0
451,0.0
452,-18.33702044224102
453,0.0
490,0.0
515,0.0
516,0.0
542,0.0
592,0.0
632,10880813.172418388
686,1.0
687,1.0
688,2.0
2,1, 1,21, 0,14,20.00,30.00,WinterDesignDay
250,18.225649918296533
251,12096600.426711302
336,0.0
385,18.177076010733465
386,25.305646693653323
387,-17.646278329229098
388,0.0
425,0.0
450,0.0
451,0.0
452,-18.337246970524518
453,0.0
490,0.0
515,0.0
516,0.0
542,0.0
592,0.0
632,11648464.814597042
686,0.9999999999999996
687,0.9999999999999996
688,1.9999999999999991
2,1, 1,21, 0,14,30.00,40.00,WinterDesignDay
250,18.408724616640907
251,5490508.5862744115
336,0.0
385,18.843742677400133
386,25.305646693653326
387,-17.646122919909416
388,0.0
425,0.0
450,0.0
451,0.0
452,-18.33715809659506
453,0.0
490,0.0
515,0.0
516,0.0
542,0.0
592,0.0
632,5941638.011412316
686,0.9999999999999997