Program Version,EnergyPlus, Version 24.2.0-94a887817b, YMD=2025.01.31 01:09
1,5,Environment Title[],Latitude[deg],Longitude[deg],Time Zone[],Elevation[m]
2,8,Day of Simulation[],Month[],Day of Month[],DST Indicator[1=yes 0=no],Hour[],StartMinute[],EndMinute[],DayType
3,5,Cumulative Day of Simulation[],Month[],Day of Month[],DST Indicator[1=yes 0=no],DayType  ! When Daily Report Variables Requested
4,2,Cumulative Days of Simulation[],Month[]  ! When Monthly Report Variables Requested
5,1,Cumulative Days of Simulation[] ! When Run Period Report Variables Requested
6,1,Calendar Year of Simulation[] ! When Annual Report Variables Requested
250,1,LIVING ZONE,Zone Air Temperature [C] !TimeStep,REPORTSCH
251,1,LIVING ZONE,Zone Air System Sensible Heating Energy [J] !TimeStep,REPORTSCH
336,1,LIVING ZONE,Zone Air System Sensible Cooling Energy [J] !TimeStep,REPORTSCH
385,1,LIVING ZONE,Zone Thermostat Heating Setpoint Temperature [C] !TimeStep,REPORTSCH
386,1,LIVING ZONE,Zone Thermostat Cooling Setpoint Temperature [C] !TimeStep,REPORTSCH
387,1,GARAGE ZONE,Zone Air Temperature [C] !TimeStep,REPORTSCH
388,1,GARAGE ZONE,Zone Air System Sensible Heating Energy [J] !TimeStep,REPORTSCH
425,1,GARAGE ZONE,Zone Air System Sensible Cooling Energy [J] !TimeStep,REPORTSCH
450,1,GARAGE ZONE,Zone Thermostat Heating Setpoint Temperature [C] !TimeStep,REPORTSCH
451,1,GARAGE ZONE,Zone Thermostat Cooling Setpoint Temperature [C] !TimeStep,REPORTSCH
452,1,ATTIC ZONE,Zone Air Temperature [C] !TimeStep,REPORTSCH
453,1,ATTIC ZONE,Zone Air System Sensible Heating Energy [J] !TimeStep,REPORTSCH
490,1,ATTIC ZONE,Zone Air System Sensible Cooling Energy [J] !TimeStep,REPORTSCH
515,1,ATTIC ZONE,Zone Thermostat Heating Setpoint Temperature [C] !TimeStep,REPORTSCH
516,1,ATTIC ZONE,Zone Thermostat Cooling Setpoint Temperature [C] !TimeStep,REPORTSCH
542,1,ACDXCOIL 1,Cooling Coil Total Cooling Energy [J] !TimeStep,REPORTSCH
592,1,HEAT PUMP DX HEATING COIL 1,Heating Coil Heating Energy [J] !TimeStep,REPORTSCH
632,1,SUPP HEATING COIL 1,Heating Coil Heating Energy [J] !TimeStep,REPORTSCH
686,1,TWOSPEED HEAT PUMP 1,Unitary System DX Coil Cycling Ratio [] !TimeStep,REPORTSCH
687,1,TWOSPEED HEAT PUMP 1,Unitary System DX Coil Speed Ratio [] !TimeStep,REPORTSCH
688,1,TWOSPEED HEAT PUMP 1,Unitary System DX Coil Speed Level [] !TimeStep,REPORTSCH
End of Data Dictionary
1,RUN PERIOD 1,  41.98, -87.92,  -6.00, 201.00
2,21, 1,21, 0, 1, 0.00,10.00,Monday
250,25.486271372646904
251,0.0
336,7476525.261351484
385,19.349999999999994
386,20.912222222222226
387,0.02443685339843044
388,0.0
425,0.0
450,0.0
451,0.0
452,-1.4390672807713054
453,0.0
490,0.0
515,0.0
516,0.0
542,8177647.08343588
592,0.0
632,0.0
686,0.9142530698531334
687,0.8888888888888886
688,1.8888888888888884
2,21, 1,21, 0, 1,10.00,20.00,Monday
250,25.623936189629738
251,0.0
336,5945702.4813785115
385,19.349999999999998
386,20.689999999999998
387,0.013906201721251796
388,0.0
425,0.0
450,0.0
451,0.0
452,-1.417614983848978
453,0.0
490,0.0
515,0.0
516,0.0
542,9813134.898528613
592,0.0
632,0.0
686,0.9999999999999998
687,0.9999999999999998
688,1.9999999999999996
2,21, 1,21, 0, 1,20.00,30.00,Monday
250,26.910257777005654
251,0.0
336,4662561.361724339
385,19.349999999999994
386,20.689999999999994
387,0.005940504074473831
388,0.0
425,0.0
450,0.0
451,0.0
452,-1.408253510469325
453,0.0
490,0.0
515,0.0
516,0.0
542,10801940.453041486
592,0.0
632,0.0
686,0.9999999999999996
687,0.9999999999999996
688,1.9999999999999991
2,21, 1,21, 0, 1,30.00,40.00,Monday
250,27.006084709193267
251,0.0
336,3399599.0337896766
385,19.35
386,20.69
387,-0.00022308427545580456
388,0.0
425,0.0
450,0.0
451,0.0
452,-1.4072674014125246
453,0.0
490,0.0
515,0.0
516,0.0
542,10801940.453041485
592,0.0
632,0.0
686,1.0
687,1.0
688,2.0
2,21, 1,21, 0, 1,40.00,50.00,Monday
250,28.066615206090574
251,0.0
336,2912782.7709078793
385,19.350000000000016
386,20.69000000000002
387,-0.005098455889907171
388,0.0
425,0.0
450,0.0
451,0.0
452,-1.4136060068881005
453,0.0
490,0.0
515,0.0
516,0.0
542,10801940.45304149
592,0.0
632,0.0
686,1.0000000000000009
687,1.0000000000000009
688,2.0000000000000018
2,21, 1,21, 0, 1,50.00,60.00,Monday
250,28.194135978216575
251,0.0
336,2199002.428701716
385,19.35
386,20.69
387,-0.010712094039427716
388,0.0
425,0.0
450,0.0
451,0.0
452,-1.4293014740718217
453,0.0
490,0.0
515,0.0
516,0.0
542,10801940.45304148
592,0.0
632,0.0
686,1.0
687,1.0
688,2.0
2,21, 1,21, 0, 2, 0.00,10.00,Monday
250,28.21615754935137
251,0.0
336,2495051.128979999
385,19.35
386,20.69
387,-0.017099304598848442
388,0.0
425,0.0
450,0.0
451,0.0
452,-1.4497954472196892
453,0.0
490,0.0
515,0.0
516,0.0
542,10801940.453041486
592,0.0
632,0.0
686,1.0
687,1.0
688,2.0
2,21, 1,21, 0, 2,10.00,20.00,Monday
250,28.343139502716106
251,0.0
336,2551348.487182926
385,19.35
386,20.69
387,-0.02374236590633954
388,0.0
425,0.0
450,0.0
451,0.0
452,-1.4648363831423974
453,0.0
490,0.0
515,0.0
516,0.0
542,10801940.453041486
592,0.0
632,0.0
686,1.0
687,1.0
688,2.0
2,21, 1,21, 0, 2,20.00,30.00,Monday
250,28.449560657775542
251,0.0
336,2525518.7183980974
385,19.35
386,20.69
387,-0.03049976098835286
388,0.0
425,0.0
450,0.0
451,0.0
452,-1.4687079394535874
453,0.0
490,0.0
515,0.0
516,0.0
542,10801940.453041486
592,0.0
632,0.0
686,1.0
687,1.0
688,2.0
2,21, 1,21, 0, 2,30.00,40.00,Monday
250,28.496458202096015
251,0.0
336,2480220.6844086866
385,19.35
386,20.69
387,-0.037363136618277934
388,0.0
425,0.0
450,0.0
451,0.0
452,-1.4623758927882886
453,0.0
490,0.0
515,0.0
516,0.0
542,10801940.45304148
592,0.0
632,0.0
686,1.0
687,1.0
688,2.0
2,21, 1,21, 0, 2,40.00,50.00,Monday
250,28.534348923715243
251,0.0
336,2469924.539616449
385,19.35
386,20.69
387,-0.04423267987635296
388,0.0
425,0.0
450,0.0
451,0.0
452,-1.4494729657516545
453,0.0
490,0.0
515,0.0
516,0.0
542,10801940.45304148
592,0.0
632,0.0
686,1.0
687,1.0
688,2.0
2,21, 1,21, 0, 2,50.00,60.00,Monday
250,28.582015070852542
251,0.0
336,2471172.048805328
385,19.35
386,20.69
387,-0.05094960739694828
388,0.0
425,0.0
450,0.0
451,0.0
452,-1.4329766512198499
453,0.0
490,0.0
515,0.0
516,0.0
542,10801940.453041486
592,0.0
632,0.0
686,1.0
687,1.0
688,2.0
2,21, 1,21, 0, 3, 0.00,10.00,Monday
250,28.631750257718203
251,0.0
336,2468195.22830837
385,19.35
386,20.69
387,-0.05504725612476421
388,0.0
425,0.0
450,0.0
451,0.0
452,-1.409707332993904
453,0.0
490,0.0
515,0.0
516,0.0
542,10801940.45304148
592,0.0
632,0.0
686,1.0
687,1.0
688,2.0
2,21, 1,21, 0, 3,10.00,20.00,Monday
250,28.674691826356586
251,0.0
336,2458496.571876245
385,19.35
386,20.69
387,-0.05470801321747854
388,0.0
425,0.0
450,0.0
451,0.0
452,-1.3727657511680373
453,0.0
490,0.0
515,0.0
516,0.0
542,10801940.453041496
592,0.0
632,0.0
686,1.0
687,1.0
688,2.0
2,21, 1,21, 0, 3,20.00,30.00,Monday
250,28.7125867832805
251,0.0
336,2450543.0720255617
385,19.35
386,20.69
387,-0.04999803213471928
388,0.0
425,0.0
450,0.0
451,0.0
452,-1.3193896043470876
453,0.0
490,0.0
515,0.0
516,0.0
542,10801940.453041486
592,0.0
632,0.0
686,1.0
687,1.0
688,2.0
2,21, 1,21, 0, 3,30.00,40.00,Monday
250,28.748909804178222
251,0.0
336,2445105.749599021
385,19.35
386,20.69
387,-0.04165622370904273
388,0.0
425,0.0
450,0.0
451,0.0
452,-1.2517355614536214
453,0.0
490,0.0
515,0.0
516,0.0
542,10801940.453041486
592,0.0
632,0.0
686,1.0
687,1.0
688,2.0
2,21, 1,21, 0, 3,40.00,50.00,Monday
250,28.783632042315926
251,0.0
336,2439833.9056604397
385,19.35
386,20.69
387,-0.030267969740518243
388,0.0
425,0.0
450,0.0
451,0.0
452,-1.1739169662464324
453,0.0
490,0.0
515,0.0
516,0.0
542,10801940.45304148
592,0.0
632,0.0
686,1.0
687,1.0
688,2.0
2,21, 1,21, 0, 3,50.00,60.00,Monday
250,28.815996206772358
251,0.0
336,2434320.353834789
385,19.35
386,20.69
387,-0.016118715403536977
388,0.0
425,0.0
450,0.0
451,0.0
452,-1.0893286579034944
453,0.0
490,0.0
515,0.0
516,0.0
542,10801940.45304148
592,0.0
632,0.0
686,1.0
687,1.0
688,2.0
2,21, 1,21, 0, 4, 0.00,10.00,Monday
250,28.846035485284833
251,0.0
336,2429091.176279551
385,19.35
386,20.69
387,-0.0017427490028750275
388,0.0
425,0.0
450,0.0
451,0.0
452,-1.0053484522442673
453,0.0
490,0.0
515,0.0
516,0.0
542,10801940.453041486
592,0.0
632,0.0
686,1.0
687,1.0
688,2.0
2,21, 1,21, 0, 4,10.00,20.00,Monday
250,28.874442646551486
251,0.0
336,2424512.5248678206
385,19.35
386,20.69
387,0.010762373823970947
388,0.0
425,0.0
450,0.0
451,0.0
452,-0.9319938802671601
453,0.0
490,0.0
515,0.0
516,0.0
542,10801940.453041486
592,0.0
632,0.0
686,1.0
687,1.0
688,2.0
2,21, 1,21, 0, 4,20.00,30.00,Monday
250,28.901521033130027
251,0.0
336,2420287.849892933
385,19.35
386,20.69
387,0.020596481593950677
388,0.0
425,0.0
450,0.0
451,0.0
452,-0.8738831365304829
453,0.0
490,0.0
515,0.0
516,0.0
542,10801940.453041486
592,0.0
632,0.0
686,1.0
687,1.0
688,2.0
2,21, 1,21, 0, 4,30.00,40.00,Monday
250,28.927240694731683
251,0.0
336,2416196.498757462
385,19.35
386,20.69
387,0.028134410725670203
388,0.0
425,0.0
450,0.0
451,0.0
452,-0.8294834263587154
453,0.0
490,0.0
515,0.0
516,0.0
542,10801940.45304148
592,0.0
632,0.0
686,1.0
687,1.0
688,2.0
2,21, 1,21, 0, 4,40.00,50.00,Monday
250,28.951636754643626
251,0.0
336,2412278.0658126823
385,19.35
386,20.69
387,0.03393713165567107
388,0.0
425,0.0
450,0.0
451,0.0
452,-0.7951584007917369
453,0.0
490,0.0
515,0.0
516,0.0
542,10801940.45304148
592,0.0
632,0.0
686,1.0
687,1.0
688,2.0
2,21, 1,21, 0, 4,50.00,60.00,Monday
250,28.97474435629415
251,0.0
336,2408527.4384881784
385,19.35
386,20.69
387,0.03824706124621239
388,0.0
425,0.0
450,0.0
451,0.0
452,-0.7681630111135528
453,0.0
490,0.0
515,0.0
516,0.0
542,10801940.45304148
592,0.0
632,0.0
686,1.0
687,1.0
688,2.0
2,21, 1,21, 0, 5, 0.00,10.00,Monday
250,28.98909338115488
251,0.0
336,2400728.397199211
385,19.35
386,20.69
387,0.041297221181003554
388,0.0
425,0.0
450,0.0
451,0.0
452,-0.7459435114913656
453,0.0
490,0.0
515,0.0
516,0.0
542,10801940.45304148
592,0.0
632,0.0
686,1.0
687,1.0
688,2.0
2,21, 1,21, 0, 5,10.00,20.00,Monday
250,29.00044465442894
251,0.0
336,2397122.3852529377
385,19.35
386,20.69
387,0.04336605314025849
388,0.0
425,0.0
450,0.0
451,0.0
452,-0.7261154502144119
453,0.0
490,0.0
515,0.0
516,0.0
542,10801940.453041486
592,0.0
632,0.0
686,1.0
687,1.0
688,2.0
2,21, 1,21, 0, 5,20.00,30.00,Monday
250,29.012853618667343
251,0.0
336,2396121.8318124
385,19.35
386,20.69
387,0.04470349401535665
388,0.0
425,0.0
450,0.0
451,0.0
452,-0.7073264318184455
453,0.0
490,0.0
515,0.0
516,0.0
542,10801940.45304148
592,0.0
632,0.0
686,1.0
687,1.0
688,2.0
2,21, 1,21, 0, 5,30.00,40.00,Monday
250,29.02494245271241
251,0.0
336,2394233.933029744
385,19.35
386,20.69
387,0.045506642838079134
388,0.0
425,0.0
450,0.0
451,0.0
452,-0.689226113421357
453,0.0
490,0.0
515,0.0
516,0.0
542,10801940.453041496
592,0.0
632,0.0
686,1.0
687,1.0
688,2.0
2,21, 1,21, 0, 5,40.00,50.00,Monday
250,29.035375248029126
251,0.0
336,2391630.821468264
385,19.35
386,20.69
387,0.04592439785743879
388,0.0
425,0.0
450,0.0
451,0.0
452,-0.6718634604560872
453,0.0
490,0.0
515,0.0
516,0.0
542,10801940.453041486
592,0.0
632,0.0
686,1.0
687,1.0
688,2.0
2,21, 1,21, 0, 5,50.00,60.00,Monday
250,29.044718575873812
251,0.0
336,2389527.95267294
385,19.35
386,20.69
387,0.04606751489338006
388,0.0
425,0.0
450,0.0
451,0.0
452,-0.6552800370856509
453,0.0
490,0.0
515,0.0
516,0.0
542,10801940.45304148
592,0.0
632,0.0
686,1.0
687,1.0
688,2.0
2,21, 1,21, 0, 6, 0.00,10.00,Monday
250,29.060983207013294
251,0.0
336,2392042.481287383
385,19.35
386,20.69
387,0.04593635322237406
388,0.0
425,0.0
450,0.0
451,0.0
452,-0.6400108229125657
453,0.0
490,0.0
515,0.0
516,0.0
542,10801940.45304148
592,0.0
632,0.0
686,1.0
687,1.0
688,2.0
2,21, 1,21, 0, 6,10.00,20.00,Monday
250,29.07878102545556
251,0.0
336,2390778.017314121
385,19.35
386,20.69
387,0.04550167132891317
388,0.0
425,0.0
450,0.0
451,0.0
452,-0.6269169124628288
453,0.0
490,0.0
515,0.0
516,0.0
542,10801940.453041486
592,0.0
632,0.0
686,1.0
687,1.0
688,2.0
2,21, 1,21, 0, 6,20.00,30.00,Monday
250,29.093796334696986
251,0.0
336,2386925.479493343
385,19.35
386,20.69
387,0.044758292691552626
388,0.0
425,0.0
450,0.0
451,0.0
452,-0.6163199356349611
453,0.0
490,0.0
515,0.0
516,0.0
542,10801940.453041486
592,0.0
632,0.0
686,1.0
687,1.0
688,2.0
2,21, 1,21, 0, 6,30.00,40.00,Monday
250,29.107437968682643
251,0.0
336,2384168.0980880405
385,19.35
386,20.69
387,0.043719910680935246
388,0.0
425,0.0
450,0.0
451,0.0
452,-0.6078908393942809
453,0.0
490,0.0
515,0.0
516,0.0
542,10801940.453041486
592,0.0
632,0.0
686,1.0
687,1.0
688,2.0
2,21, 1,21, 0, 6,40.00,50.00,Monday
250,29.121206210655554
251,0.0
336,2382404.0217790464
385,19.35
386,20.69
387,0.04240741733598237
388,0.0
425,0.0
450,0.0
451,0.0
452,-0.6010906978571106
453,0.0
490,0.0
515,0.0
516,0.0
542,10801940.45304148
592,0.0
632,0.0
686,1.0
687,1.0
688,2.0
2,21, 1,21, 0, 6,50.00,60.00,Monday
250,29.134682626470795
251,0.0
336,2380392.329119289
385,19.35
386,20.69
387,0.04084554543080292
388,0.0
425,0.0
450,0.0
451,0.0
452,-0.5954872605090451
453,0.0
490,0.0
515,0.0
516,0.0
542,10801940.45304148
592,0.0
632,0.0
686,1.0
687,1.0
688,2.0
2,21, 1,21, 0, 7, 0.00,10.00,Monday
250,23.399992569893374
251,0.0
336,1808276.8421045893
385,19.35
386,20.89
387,0.035818879973722004
388,0.0
425,0.0
450,0.0
451,0.0
452,-0.5997859683816978
453,0.0
490,0.0
515,0.0
516,0.0
542,8616770.065770997
592,0.0
632,0.0
686,0.7999999999999999
687,0.7999999999999999
688,1.5999999999999999
2,21, 1,21, 0, 7,10.00,20.00,Monday
250,20.639466646023763
251,0.0
336,0.0
385,19.35
386,22.689999999999998
387,0.022314050991105318
388,0.0
425,0.0
450,0.0
451,0.0
452,-0.6236184945166678
453,0.0
490,0.0
515,0.0
516,0.0
542,0.0
592,0.0
632,0.0
686,0.0
687,0.0
688,0.0
2,21, 1,21, 0, 7,20.00,30.00,Monday
250,20.101750976271507
251,0.0
336,0.0
385,19.349999999999994
386,22.68999999999999
387,0.0044745335017574595
388,0.0
425,0.0
450,0.0
451,0.0
452,-0.6669312260801411
453,0.0
490,0.0
515,0.0
516,0.0
542,0.0
592,0.0
632,0.0
686,0.0
687,0.0
688,0.0
2,21, 1,21, 0, 7,30.00,40.00,Monday
250,20.04394357615325
251,0.0
336,0.0
385,19.349999999999994
386,22.689999999999994
387,-0.025205657013558532
388,0.0
425,0.0
450,0.0
451,0.0
452,-0.740144067824666
453,0.0
490,0.0
515,0.0
516,0.0
542,0.0
592,0.0
632,0.0
686,0.0
687,0.0
688,0.0
2,21, 1,21, 0, 7,40.00,50.00,Monday
250,19.746524405899905
251,0.0
336,0.0
385,19.35
386,22.69
387,-0.06515570096583617
388,0.0
425,0.0
450,0.0
451,0.0
452,-0.8358976248078367
453,0.0
490,0.0
515,0.0
516,0.0
542,0.0
592,0.0
632,0.0
686,0.0
687,0.0
688,0.0
2,21, 1,21, 0, 7,50.00,60.00,Monday
250,19.417682409669602
251,143568.92339673513
336,0.0
385,19.35
386,22.69
387,-0.1028683423678825
388,0.0
425,0.0
450,0.0
451,0.0
452,-0.9285952788984696
453,0.0
490,0.0
515,0.0
516,0.0
542,0.0
592,132556.0018809466
632,0.0
686,0.03640533524032396
687,0.0
688,0.5
2,21, 1,21, 0, 8, 0.00,10.00,Monday
250,23.033087781372753
251,883257.1830764983
336,5518377.965808696
385,19.79444444444444
386,21.134444444444448
387,-0.1295486619074515
388,0.0
425,0.0
450,0.0
451,0.0
452,-1.0059779067695298
453,0.0
490,0.0
515,0.0
516,0.0
542,7832747.783965627
592,545683.7124423184
632,419407.2715711232
686,0.9999999999999998
687,0.905731003266645
688,1.9999999999999996
2,21, 1,21, 0, 8,10.00,20.00,Monday
250,22.790378105973694
251,0.0
336,5925369.122096002
385,19.349999999999998
386,20.689999999999998
387,-0.14727270442683155
388,0.0
425,0.0
450,0.0
451,0.0
452,-1.031183348336917
453,0.0
490,0.0
515,0.0
516,0.0
542,9122331.485118028
592,0.0
632,0.0
686,0.9999999999999998
687,0.9999999999999998
688,1.9999999999999996
2,21, 1,21, 0, 8,20.00,30.00,Monday
250,22.53498111396863
251,0.0
336,5456377.99773276
385,19.35
386,20.69
387,-0.152845377934549
388,0.0
425,0.0
450,0.0
451,0.0
452,-0.9673458638676856
453,0.0
490,0.0
515,0.0
516,0.0
542,9285901.429260518
592,0.0
632,0.0
686,1.0
687,1.0
688,2.0
2,21, 1,21, 0, 8,30.00,40.00,Monday
250,22.971844953135317
251,0.0
336,5394075.672147032
385,19.349999999999994
386,20.689999999999994
387,-0.14072092591336155
388,0.0
425,0.0
450,0.0
451,0.0
452,-0.8159727732075133
453,0.0
490,0.0
515,0.0
516,0.0
542,9441910.979340587
592,0.0
632,0.0
686,0.9999999999999997
687,0.9999999999999997
688,1.9999999999999993
2,21, 1,21, 0, 8,40.00,50.00,Monday
250,23.3789995216913
251,0.0
336,5333711.681110868
385,19.35
386,20.69
387,-0.10501270744510471
388,0.0
425,0.0
450,0.0
451,0.0
452,-0.5267445617577001
453,0.0
490,0.0
515,0.0
516,0.0
542,9593848.605316825
592,0.0
632,0.0
686,1.0
687,1.0
688,2.0
2,21, 1,21, 0, 8,50.00,60.00,Monday
250,23.543540017953266
251,0.0
336,5189659.939707789
385,19.35
386,20.69
387,-0.0499656011340675
388,0.0
425,0.0
450,0.0
451,0.0
452,-0.15468632803275736
453,0.0
490,0.0
515,0.0
516,0.0
542,9737095.81760496
592,0.0
632,0.0
686,1.0
687,1.0
688,2.0
2,21, 1,21, 0, 9, 0.00,10.00,Monday
250,29.47674065033794
251,0.0
336,6268823.712507612
385,19.35
386,20.69
387,0.005034479924858394
388,0.0
425,0.0
450,0.0
451,0.0
452,0.20204720294279072
453,0.0
490,0.0
515,0.0
516,0.0
542,10589040.869760003
592,0.0
632,0.0
686,0.9999999999999999
687,0.9999999999999999
688,1.9999999999999998
2,21, 1,21, 0, 9,10.00,20.00,Monday
250,26.53057329655805
251,0.0
336,3400146.6034019766
385,19.35
386,20.69
387,0.07757843658435615
388,0.0
425,0.0
450,0.0
451,0.0
452,0.6609704683362972
453,0.0
490,0.0
515,0.0
516,0.0
542,10801940.453041485
592,0.0
632,0.0
686,1.0
687,1.0
688,2.0
2,21, 1,21, 0, 9,20.00,30.00,Monday
250,31.380727712722766
251,0.0
336,4402854.704453147
385,19.35
386,20.69
387,0.15109681346747475
388,0.0
425,0.0
450,0.0
451,0.0
452,1.1871622160949657
453,0.0
490,0.0
515,0.0
516,0.0
542,10801940.453041483
592,0.0
632,0.0
686,0.9999999999999999
687,0.9999999999999999
688,1.9999999999999998
2,21, 1,21, 0, 9,30.00,40.00,Monday
250,27.407861690977754
251,0.0
336,2431382.902117244
385,19.35000000000002
386,20.690000000000015
387,0.24387079053943872
388,0.0
425,0.0
450,0.0
451,0.0
452,1.7718073410777333
453,0.0
490,0.0
515,0.0
516,0.0
542,10801940.453041483
592,0.0
632,0.0
686,1.0000000000000007
687,1.0000000000000007
688,2.0000000000000013
2,21, 1,21, 0, 9,40.00,50.00,Monday
250,32.19658357997571
251,0.0
336,4162358.558805023
385,19.349999999999998
386,20.69
387,0.3590463665820759
388,0.0
425,0.0
450,0.0
451,0.0
452,2.3869247688488153
453,0.0
490,0.0
515,0.0
516,0.0
542,10801940.453041485
592,0.0
632,0.0
686,1.0
687,1.0
688,2.0
2,21, 1,21, 0, 9,50.00,60.00,Monday
250,28.572327507914274
251,0.0
336,2326761.218987587
385,19.349999999999998
386,20.69
387,0.5575792305639709
388,0.0
425,0.0
450,0.0
451,0.0
452,3.2288728369255915
453,0.0
490,0.0
515,0.0
516,0.0
542,10801940.453041485
592,0.0
632,0.0
686,1.0
687,1.0
688,2.0
2,21, 1,21, 0,10, 0.00,10.00,Monday
250,33.01682882025397
251,0.0
336,4047616.0674673463
385,19.35
386,20.69
387,0.6985239038573559
388,0.0
425,0.0
450,0.0
451,0.0
452,3.7857741126869735
453,0.0
490,0.0
515,0.0
516,0.0
542,10801940.453041483
592,0.0
632,0.0
686,1.0
687,1.0
688,2.0
2,21, 1,21, 0,10,10.00,20.00,Monday
250,27.737411223113345
251,0.0
336,2268339.855358063
385,19.35
386,20.69
387,0.8629076694535507
388,0.0
425,0.0
450,0.0
451,0.0
452,4.391201280948472
453,0.0
490,0.0
515,0.0
516,0.0
542,10801940.453041486
592,0.0
632,0.0
686,0.9999999999999999
687,0.9999999999999999
688,1.9999999999999998
2,21, 1,21, 0,10,20.00,30.00,Monday
250,33.20869579934558
251,0.0
336,4420957.829841983
385,19.349999999999998
386,20.69
387,1.0544821849552455
388,0.0
425,0.0
450,0.0
451,0.0
452,5.0537536246810335
453,0.0
490,0.0
515,0.0
516,0.0
542,10801940.453041483
592,0.0
632,0.0
686,1.0
687,1.0
688,2.0
2,21, 1,21, 0,10,30.00,40.00,Monday
250,27.803264814609957
251,0.0
336,2356645.242148556
385,19.35
386,20.69
387,1.2658271643523589
388,0.0
425,0.0
450,0.0
451,0.0
452,5.760539542978362
453,0.0
490,0.0
515,0.0
516,0.0
542,10801940.453041483
592,0.0
632,0.0
686,0.9999999999999999
687,0.9999999999999999
688,1.9999999999999998
2,21, 1,21, 0,10,40.00,50.00,Monday
250,33.53867869537653
251,0.0
336,4507840.436243628
385,19.350000000000055
386,20.690000000000065
387,1.4970159916447168
388,0.0
425,0.0
450,0.0
451,0.0
452,6.526451420027228
453,0.0
490,0.0
515,0.0
516,0.0
542,10801940.453041485
592,0.0
632,0.0
686,1.0000000000000027
687,1.0000000000000027
688,2.0000000000000053
2,21, 1,21, 0,10,50.00,60.00,Monday
250,29.49462922249188
251,0.0
336,2385016.0048935553
385,19.350000000000055
386,20.690000000000065
387,1.8572895806033378
388,0.0
425,0.0
450,0.0
451,0.0
452,7.632329517633565
453,0.0
490,0.0
515,0.0
516,0.0
542,10801940.45304148
592,0.0
632,0.0
686,1.0000000000000027
687,1.0000000000000027
688,2.0000000000000053
2,21, 1,21, 0,11, 0.00,10.00,Monday
250,33.986415918999036
251,0.0
336,4101193.8377471557
385,19.35
386,20.689999999999998
387,2.086341612037084
388,0.0
425,0.0
450,0.0
451,0.0
452,8.408654206655397
453,0.0
490,0.0
515,0.0
516,0.0
542,10801940.453041486
592,0.0
632,0.0
686,1.0
687,1.0
688,2.0
2,21, 1,21, 0,11,10.00,20.00,Monday
250,28.891842348072885
251,0.0
336,2184301.179730736
385,19.35
386,20.69
387,2.3227888480440035
388,0.0
425,0.0
450,0.0
451,0.0
452,9.22393468658242
453,0.0
490,0.0
515,0.0
516,0.0
542,10801940.453041479
592,0.0
632,0.0
686,0.9999999999999999
687,0.9999999999999999
688,1.9999999999999998
2,21, 1,21, 0,11,20.00,30.00,Monday
250,33.97728430058506
251,0.0
336,4157055.117393513
385,19.349999999999984
386,20.68999999999998
387,2.5806727370263913
388,0.0
425,0.0
450,0.0
451,0.0
452,10.083849878863676
453,0.0
490,0.0
515,0.0
516,0.0
542,10801940.45304148
592,0.0
632,0.0
686,0.9999999999999989
687,0.9999999999999989
688,1.9999999999999978
2,21, 1,21, 0,11,30.00,40.00,Monday
250,29.205323300418303
251,0.0
336,2130957.973343955
385,19.34999999999999
386,20.68999999999999
387,2.8503556297279418
388,0.0
425,0.0
450,0.0
451,0.0
452,10.93101668147928
453,0.0
490,0.0
515,0.0
516,0.0
542,10801940.453041483
592,0.0
632,0.0
686,0.9999999999999997
687,0.9999999999999997
688,1.9999999999999993
2,21, 1,21, 0,11,40.00,50.00,Monday
250,34.048875505417044
251,0.0
336,4001211.0023178267
385,19.350000000000033
386,20.690000000000033
387,3.1281317536542126
388,0.0
425,0.0
450,0.0
451,0.0
452,11.71695937727572
453,0.0
490,0.0
515,0.0
516,0.0
542,10801940.453041483
592,0.0
632,0.0
686,1.0000000000000013
687,1.0000000000000013
688,2.0000000000000027
2,21, 1,21, 0,11,50.00,60.00,Monday
250,29.457215715999073
251,0.0
336,2087762.5028170552
385,19.349999999999998
386,20.69
387,3.405373118155017
388,0.0
425,0.0
450,0.0
451,0.0
452,12.412147470954078
453,0.0
490,0.0
515,0.0
516,0.0
542,10801940.453041483
592,0.0
632,0.0
686,1.0
687,1.0
688,2.0
2,21, 1,21, 0,12, 0.00,10.00,Monday
250,34.20329388835829
251,0.0
336,3906483.737599546
385,19.35
386,20.69
387,3.681905671308061
388,0.0
425,0.0
450,0.0
451,0.0
452,13.041412944690626
453,0.0
490,0.0
515,0.0
516,0.0
542,10801940.453041483
592,0.0
632,0.0
686,1.0
687,1.0
688,2.0
2,21, 1,21, 0,12,10.00,20.00,Monday
250,30.84224228376802
251,0.0
336,2026564.9489717502
385,19.349999999999994
386,20.689999999999994
387,4.070144630502759
388,0.0
425,0.0
450,0.0
451,0.0
452,13.819675556092488
453,0.0
490,0.0
515,0.0
516,0.0
542,10801940.453041483
592,0.0
632,0.0
686,0.9999999999999996
687,0.9999999999999996
688,1.9999999999999991
2,21, 1,21, 0,12,20.00,30.00,Monday
250,34.54275021932929
251,0.0
336,3503617.487552176
385,19.35
386,20.690000000000005
387,4.307730373281724
388,0.0
425,0.0
450,0.0
451,0.0
452,14.32233328452355
453,0.0
490,0.0
515,0.0
516,0.0
542,10801940.453041483
592,0.0
632,0.0
686,1.0
687,1.0
688,2.0
2,21, 1,21, 0,12,30.00,40.00,Monday
250,30.228864850751535
251,0.0
336,1906888.3197105862
385,19.34999999999999
386,20.68999999999999
387,4.541243055289962
388,0.0
425,0.0
450,0.0
451,0.0
452,14.806867213821745
453,0.0
490,0.0
515,0.0
516,0.0
542,10801940.453041483
592,0.0
632,0.0
686,0.9999999999999997
687,0.9999999999999997
688,1.9999999999999993
2,21, 1,21, 0,12,40.00,50.00,Monday
250,34.52194201372842
251,0.0
336,3629079.4132209634
385,19.349999999999973
386,20.689999999999976
387,4.783724181405054
388,0.0
425,0.0
450,0.0
451,0.0
452,15.266889905044696
453,0.0
490,0.0
515,0.0
516,0.0
542,10801940.453041486
592,0.0
632,0.0
686,0.9999999999999986
687,0.9999999999999986
688,1.9999999999999971
2,21, 1,21, 0,12,50.00,60.00,Monday
250,30.45089485692565
251,0.0
336,1906179.5909184387
385,19.350000000000033
386,20.690000000000033
387,5.0251890305645315
388,0.0
425,0.0
450,0.0
451,0.0
452,15.660557850173502
453,0.0
490,0.0
515,0.0
516,0.0
542,10801940.453041483
592,0.0
632,0.0
686,1.0000000000000013
687,1.0000000000000013
688,2.0000000000000027
2,21, 1,21, 0,13, 0.00,10.00,Monday
250,31.149087292203117
251,0.0
336,2834506.0288505126
385,19.35
386,20.69
387,5.266292592159253
388,0.0
425,0.0
450,0.0
451,0.0
452,15.991884116094269
453,0.0
490,0.0
515,0.0
516,0.0
542,10801940.453041485
592,0.0
632,0.0
686,1.0
687,1.0
688,2.0
2,21, 1,21, 0,13,10.00,20.00,Monday
250,30.133895747412566
251,0.0
336,2456455.8704445744
385,19.35
386,20.69
387,5.510874609973467
388,0.0
425,0.0
450,0.0
451,0.0
452,16.27664649990826
453,0.0
490,0.0
515,0.0
516,0.0
542,10801940.453041483
592,0.0
632,0.0
686,1.0
687,1.0
688,2.0
2,21, 1,21, 0,13,20.00,30.00,Monday
250,30.083829472856404
251,0.0
336,2669982.142581109
385,19.35
386,20.69
387,5.7741808846035445
388,0.0
425,0.0
450,0.0
451,0.0
452,16.52870638998628
453,0.0
490,0.0
515,0.0
516,0.0
542,10801940.453041496
592,0.0
632,0.0
686,1.0
687,1.0
688,2.0
2,21, 1,21, 0,13,30.00,40.00,Monday
250,30.31907036079815
251,0.0
336,2839967.4834390045
385,19.35
386,20.69
387,6.020274760534299
388,0.0
425,0.0
450,0.0
451,0.0
452,16.721394538166756
453,0.0
490,0.0
515,0.0
516,0.0
542,10801940.453041472
592,0.0
632,0.0
686,1.0
687,1.0
688,2.0
2,21, 1,21, 0,13,40.00,50.00,Monday
250,30.33894937141774
251,0.0
336,2907312.969897373
385,19.35
386,20.69
387,6.2296429631093435
388,0.0
425,0.0
450,0.0
451,0.0
452,16.85166470038717
453,0.0
490,0.0
515,0.0
516,0.0
542,10801940.453041486
592,0.0
632,0.0
686,1.0
687,1.0
688,2.0
2,21, 1,21, 0,13,50.00,60.00,Monday
250,30.27523070142453
251,0.0
336,2922028.8870406533
385,19.35
386,20.69
387,6.412089091780486
388,0.0
425,0.0
450,0.0
451,0.0
452,16.938291064884744
453,0.0
490,0.0
515,0.0
516,0.0
542,10801940.45304148
592,0.0
632,0.0
686,1.0
687,1.0
688,2.0
2,21, 1,21, 0,14, 0.00,10.00,Monday
250,33.023019035178855
251,0.0
336,3096895.3065174916
385,19.35
386,20.69
387,6.544693403896363
388,0.0
425,0.0
450,0.0
451,0.0
452,16.968840397143584
453,0.0
490,0.0
515,0.0
516,0.0
542,10801940.453041479
592,0.0
632,0.0
686,1.0
687,1.0
688,2.0
2,21, 1,21, 0,14,10.00,20.00,Monday
250,31.039580174464675
251,0.0
336,1694309.6769107373
385,19.35
386,20.69
387,6.689524039056657
388,0.0
425,0.0
450,0.0
451,0.0
452,16.958541659576163
453,0.0
490,0.0
515,0.0
516,0.0
542,10801940.453041483
592,0.0
632,0.0
686,1.0
687,1.0
688,2.0
2,21, 1,21, 0,14,20.00,30.00,Monday
250,34.04456492811161
251,0.0
336,2850683.691774781
385,19.35
386,20.690000000000005
387,6.838896140261365
388,0.0
425,0.0
450,0.0
451,0.0
452,16.901000888284692
453,0.0
490,0.0
515,0.0
516,0.0
542,10801940.453041483
592,0.0
632,0.0
686,1.0
687,1.0
688,2.0
2,21, 1,21, 0,14,30.00,40.00,Monday
250,31.644080404267616
251,0.0
336,1567135.7244041378
385,19.35
386,20.690000000000005
387,7.039175419161452
388,0.0
425,0.0
450,0.0
451,0.0
452,16.75574032947355
453,0.0
490,0.0
515,0.0
516,0.0
542,10801940.453041486
592,0.0
632,0.0
686,1.0
687,1.0
688,2.0
2,21, 1,21, 0,14,40.00,50.00,Monday
250,33.6735237023825
251,0.0
336,3152355.287859456
385,19.35
386,20.690000000000005
387,7.18883501160343
388,0.0
425,0.0
450,0.0
451,0.0
452,16.51330482765328
453,0.0
490,0.0
515,0.0
516,0.0
542,10801940.45304149
592,0.0
632,0.0
686,1.0
687,1.0
688,2.0
2,21, 1,21, 0,14,50.00,60.00,Monday
250,30.45381007478148
251,0.0
336,1835497.0552057377
385,19.349999999999973
386,20.689999999999976
387,7.2803051715612614
388,0.0
425,0.0
450,0.0
451,0.0
452,16.239250497247227
453,0.0
490,0.0
515,0.0
516,0.0
542,10801940.453041483
592,0.0
632,0.0
686,0.9999999999999986
687,0.9999999999999986
688,1.9999999999999971
2,21, 1,21, 0,15, 0.00,10.00,Monday
250,34.84188143879246
251,0.0
336,3379834.1500896537
385,19.349999999999998
386,20.69
387,7.367385088223816
388,0.0
425,0.0
450,0.0
451,0.0
452,15.90808555611947
453,0.0
490,0.0
515,0.0
516,0.0
542,10801940.453041485
592,0.0
632,0.0
686,1.0
687,1.0
688,2.0
2,21, 1,21, 0,15,10.00,20.00,Monday
250,31.434793535053732
251,0.0
336,1710545.2054130929
385,19.35
386,20.690000000000005
387,7.454424641183737
388,0.0
425,0.0
450,0.0
451,0.0
452,15.550284935907442
453,0.0
490,0.0
515,0.0
516,0.0
542,10801940.453041483
592,0.0
632,0.0
686,1.0
687,1.0
688,2.0
2,21, 1,21, 0,15,20.00,30.00,Monday
250,34.70256204895234
251,0.0
336,3159468.76427212
385,19.35
386,20.69
387,7.539457460626844
388,0.0
425,0.0
450,0.0
451,0.0
452,15.162046904951168
453,0.0
490,0.0
515,0.0
516,0.0
542,10801940.453041485
592,0.0
632,0.0
686,1.0
687,1.0
688,2.0
2,21, 1,21, 0,15,30.00,40.00,Monday
250,31.500513561499588
251,0.0
336,1586254.5949348034
385,19.35
386,20.690000000000005
387,7.623846757864128
388,0.0
425,0.0
450,0.0
451,0.0
452,14.81173560993581
453,0.0
490,0.0
515,0.0
516,0.0
542,10801940.453041488
592,0.0
632,0.0
686,1.0
687,1.0
688,2.0
2,21, 1,21, 0,15,40.00,50.00,Monday
250,33.9073062965424
251,0.0
336,3151335.7827210194
385,19.35
386,20.690000000000005
387,7.745491438850683
388,0.0
425,0.0
450,0.0
451,0.0
452,14.433129638160475
453,0.0
490,0.0
515,0.0
516,0.0
542,10801940.453041483
592,0.0
632,0.0
686,1.0
687,1.0
688,2.0
2,21, 1,21, 0,15,50.00,60.00,Monday
250,32.160042670383646
251,0.0
336,1744860.1868315216
385,19.35
386,20.690000000000005
387,7.8543151033869805
388,0.0
425,0.0
450,0.0
451,0.0
452,14.2510104062191
453,0.0
490,0.0
515,0.0
516,0.0
542,10801940.453041483
592,0.0
632,0.0
686,1.0
687,1.0
688,2.0
2,21, 1,21, 0,16, 0.00,10.00,Monday
250,33.9218186583787
251,0.0
336,2901541.0521093793
385,19.35
386,20.690000000000005
387,7.945528430660827
388,0.0
425,0.0
450,0.0
451,0.0
452,14.149890925047336
453,0.0
490,0.0
515,0.0
516,0.0
542,10801940.453041483
592,0.0
632,0.0
686,1.0
687,1.0
688,2.0
2,21, 1,21, 0,16,10.00,20.00,Monday
250,30.937360523551533
251,0.0
336,1752756.479867767
385,19.35
386,20.690000000000005