Program Version,EnergyPlus, Version 24.2.0-94a887817b, YMD=2025.01.21 23:16
1,5,Environment Title[],Latitude[deg],Longitude[deg],Time Zone[],Elevation[m]
2,8,Day of Simulation[],Month[],Day of Month[],DST Indicator[1=yes 0=no],Hour[],StartMinute[],EndMinute[],DayType
3,5,Cumulative Day of Simulation[],Month[],Day of Month[],DST Indicator[1=yes 0=no],DayType  ! When Daily Report Variables Requested
4,2,Cumulative Days of Simulation[],Month[]  ! When Monthly Report Variables Requested
5,1,Cumulative Days of Simulation[] ! When Run Period Report Variables Requested
6,1,Calendar Year of Simulation[] ! When Annual Report Variables Requested
250,1,LIVING ZONE,Zone Air Temperature [C] !TimeStep,REPORTSCH
251,1,LIVING ZONE,Zone Air System Sensible Heating Energy [J] !TimeStep,REPORTSCH
336,1,LIVING ZONE,Zone Air System Sensible Cooling Energy [J] !TimeStep,REPORTSCH
385,1,LIVING ZONE,Zone Thermostat Heating Setpoint Temperature [C] !TimeStep,REPORTSCH
386,1,LIVING ZONE,Zone Thermostat Cooling Setpoint Temperature [C] !TimeStep,REPORTSCH
387,1,GARAGE ZONE,Zone Air Temperature [C] !TimeStep,REPORTSCH
388,1,GARAGE ZONE,Zone Air System Sensible Heating Energy [J] !TimeStep,REPORTSCH
425,1,GARAGE ZONE,Zone Air System Sensible Cooling Energy [J] !TimeStep,REPORTSCH
450,1,GARAGE ZONE,Zone Thermostat Heating Setpoint Temperature [C] !TimeStep,REPORTSCH
451,1,GARAGE ZONE,Zone Thermostat Cooling Setpoint Temperature [C] !TimeStep,REPORTSCH
452,1,ATTIC ZONE,Zone Air Temperature [C] !TimeStep,REPORTSCH
453,1,ATTIC ZONE,Zone Air System Sensible Heating Energy [J] !TimeStep,REPORTSCH
490,1,ATTIC ZONE,Zone Air System Sensible Cooling Energy [J] !TimeStep,REPORTSCH
515,1,ATTIC ZONE,Zone Thermostat Heating Setpoint Temperature [C] !TimeStep,REPORTSCH
516,1,ATTIC ZONE,Zone Thermostat Cooling Setpoint Temperature [C] !TimeStep,REPORTSCH
542,1,ACDXCOIL 1,Cooling Coil Total Cooling Energy [J] !TimeStep,REPORTSCH
592,1,HEAT PUMP DX HEATING COIL 1,Heating Coil Heating Energy [J] !TimeStep,REPORTSCH
632,1,SUPP HEATING COIL 1,Heating Coil Heating Energy [J] !TimeStep,REPORTSCH
686,1,TWOSPEED HEAT PUMP 1,Unitary System DX Coil Cycling Ratio [] !TimeStep,REPORTSCH
687,1,TWOSPEED HEAT PUMP 1,Unitary System DX Coil Speed Ratio [] !TimeStep,REPORTSCH
688,1,TWOSPEED HEAT PUMP 1,Unitary System DX Coil Speed Level [] !TimeStep,REPORTSCH
End of Data Dictionary
1,CHICAGO_IL_USA ANNUAL HEATING 99% DESIGN CONDITIONS DB,  41.98, -87.92,  -6.00, 201.00
2,1, 1,21, 0, 1, 0.00,10.00,WinterDesignDay
250,-13.119971609691577
251,33258891.42961377
336,0.0
385,18.585506792711477
386,27.29395156701339
387,-18.415951346722863
388,0.0
425,0.0
450,0.0
451,0.0
452,-19.266341141054536
453,0.0
490,0.0
515,0.0
516,0.0
542,0.0
592,0.0
632,33000000.0
686,1.0
687,1.0
688,2.0
2,1, 1,21, 0, 1,10.00,20.00,WinterDesignDay
250,-13.119971611610216
251,33258891.42960012
336,0.0
385,18.585506792711477
386,27.29395156701339
387,-18.41595281753603
388,0.0
425,0.0
450,0.0
451,0.0
452,-19.266341352727434
453,0.0
490,0.0
515,0.0
516,0.0
542,0.0
592,0.0
632,33000000.0
686,1.0
687,1.0
688,2.0
2,1, 1,21, 0, 1,20.00,30.00,WinterDesignDay
250,-13.119971613503719
251,33258891.429586638
336,0.0
385,18.585506792711477
386,27.29395156701339
387,-18.41595426922598
388,0.0
425,0.0
450,0.0
451,0.0
452,-19.266341561647735
453,0.0
490,0.0
515,0.0
516,0.0
542,0.0
592,0.0
632,33000000.0
686,1.0
687,1.0
688,2.0
2,1, 1,21, 0, 1,30.00,40.00,WinterDesignDay
250,-13.119971615372407
251,33258891.42957334
336,0.0
385,18.585506792711477
386,27.29395156701339
387,-18.41595570204133
388,0.0
425,0.0
450,0.0
451,0.0
452,-19.266341767851237
453,0.0
490,0.0
515,0.0
516,0.0
542,0.0
592,0.0
632,33000000.0
686,1.0
687,1.0
688,2.0
2,1, 1,21, 0, 1,40.00,50.00,WinterDesignDay
250,-13.119971617216612
251,33258891.42956021
336,0.0
385,18.585506792711477
386,27.29395156701339
387,-18.415957116227588
388,0.0
425,0.0
450,0.0
451,0.0
452,-19.26634197137327
453,0.0
490,0.0
515,0.0
516,0.0
542,0.0
592,0.0
632,33000000.0
686,1.0
687,1.0
688,2.0
2,1, 1,21, 0, 1,50.00,60.00,WinterDesignDay
250,-13.119971619036663
251,33258891.42954726
336,0.0
385,18.585506792711477
386,27.29395156701339
387,-18.415958512026997
388,0.0
425,0.0
450,0.0
451,0.0
452,-19.266342172248702
453,0.0
490,0.0
515,0.0
516,0.0
542,0.0
592,0.0
632,33000000.0
686,1.0
687,1.0
688,2.0
2,1, 1,21, 0, 2, 0.00,10.00,WinterDesignDay
250,-13.119971620832878
251,33258891.42953448
336,0.0
385,18.585506792711477
386,27.29395156701339
387,-18.415959889678547
388,0.0
425,0.0
450,0.0
451,0.0
452,-19.266342370511964
453,0.0
490,0.0
515,0.0
516,0.0
542,0.0
592,0.0
632,33000000.0
686,1.0
687,1.0
688,2.0
2,1, 1,21, 0, 2,10.00,20.00,WinterDesignDay
250,-13.119971622605565
251,33258891.429521862
336,0.0
385,18.585506792711477
386,27.29395156701339
387,-18.415961249418284
388,0.0
425,0.0
450,0.0
451,0.0
452,-19.26634256619702
453,0.0
490,0.0
515,0.0
516,0.0
542,0.0
592,0.0
632,33000000.0
686,1.0
687,1.0
688,2.0
2,1, 1,21, 0, 2,20.00,30.00,WinterDesignDay
250,-13.119971624355033
251,33258891.429509416
336,0.0
385,18.585506792711477
386,27.29395156701339
387,-18.415962591479037
388,0.0
425,0.0
450,0.0
451,0.0
452,-19.266342759337405
453,0.0
490,0.0
515,0.0
516,0.0
542,0.0
592,0.0
632,33000000.0
686,1.0
687,1.0
688,2.0
2,1, 1,21, 0, 2,30.00,40.00,WinterDesignDay
250,-13.119971626081593
251,33258891.42949713
336,0.0
385,18.585506792711477
386,27.29395156701339
387,-18.41596391609046
388,0.0
425,0.0
450,0.0
451,0.0
452,-19.266342949966212
453,0.0
490,0.0
515,0.0
516,0.0
542,0.0
592,0.0
632,33000000.0
686,1.0
687,1.0
688,2.0
2,1, 1,21, 0, 2,40.00,50.00,WinterDesignDay
250,-13.11997162778554
251,33258891.429485008
336,0.0
385,18.585506792711477
386,27.29395156701339
387,-18.415965223479525
388,0.0
425,0.0
450,0.0
451,0.0
452,-19.266343138116103
453,0.0
490,0.0
515,0.0
516,0.0
542,0.0
592,0.0
632,33000000.0
686,1.0
687,1.0
688,2.0
2,1, 1,21, 0, 2,50.00,60.00,WinterDesignDay
250,-13.119971629467182
251,33258891.42947305
336,0.0
385,18.585506792711477
386,27.29395156701339
387,-18.4159665138702
388,0.0
425,0.0
450,0.0
451,0.0
452,-19.266343323819317
453,0.0
490,0.0
515,0.0
516,0.0
542,0.0
592,0.0
632,33000000.0
686,1.0
687,1.0
688,2.0
2,1, 1,21, 0, 3, 0.00,10.00,WinterDesignDay
250,-13.119971631126804
251,33258891.429461244
336,0.0
385,18.585506792711477
386,27.29395156701339
387,-18.415967787483513
388,0.0
425,0.0
450,0.0
451,0.0
452,-19.266343507107674
453,0.0
490,0.0
515,0.0
516,0.0
542,0.0
592,0.0
632,33000000.0
686,1.0
687,1.0
688,2.0
2,1, 1,21, 0, 3,10.00,20.00,WinterDesignDay
250,-13.119971632764697
251,33258891.429449596
336,0.0
385,18.585506792711477
386,27.29395156701339
387,-18.41596904453757
388,0.0
425,0.0
450,0.0
451,0.0
452,-19.26634368801258
453,0.0
490,0.0
515,0.0
516,0.0
542,0.0
592,0.0
632,33000000.0
686,1.0
687,1.0
688,2.0
2,1, 1,21, 0, 3,20.00,30.00,WinterDesignDay
250,-13.119971634381155
251,33258891.4294381
336,0.0
385,18.585506792711477
386,27.29395156701339
387,-18.415970285247425
388,0.0
425,0.0
450,0.0
451,0.0
452,-19.26634386656503
453,0.0
490,0.0
515,0.0
516,0.0
542,0.0
592,0.0
632,33000000.0
686,1.0
687,1.0
688,2.0
2,1, 1,21, 0, 3,30.00,40.00,WinterDesignDay
250,-13.119971635976446
251,33258891.429426752
336,0.0
385,18.585506792711477
386,27.29395156701339
387,-18.41597150982579
388,0.0
425,0.0
450,0.0
451,0.0
452,-19.26634404279562
453,0.0
490,0.0
515,0.0
516,0.0
542,0.0
592,0.0
632,33000000.0
686,1.0
687,1.0
688,2.0
2,1, 1,21, 0, 3,40.00,50.00,WinterDesignDay
250,-13.11997163755086
251,33258891.429415558
336,0.0
385,18.585506792711477
386,27.29395156701339
387,-18.41597271848243
388,0.0
425,0.0
450,0.0
451,0.0
452,-19.26634421673454
453,0.0
490,0.0
515,0.0
516,0.0
542,0.0
592,0.0
632,33000000.0
686,1.0
687,1.0
688,2.0
2,1, 1,21, 0, 3,50.00,60.00,WinterDesignDay
250,-13.11997163910467
251,33258891.429404516
336,0.0
385,18.585506792711477
386,27.29395156701339
387,-18.41597391142428
388,0.0
425,0.0
450,0.0
451,0.0
452,-19.266344388411607
453,0.0
490,0.0
515,0.0
516,0.0
542,0.0
592,0.0
632,33000000.0
686,1.0
687,1.0
688,2.0
2,1, 1,21, 0, 4, 0.00,10.00,WinterDesignDay
250,-13.119971640638141
251,33258891.42939361
336,0.0
385,18.585506792711477
386,27.29395156701339
387,-18.41597508885575
388,0.0
425,0.0
450,0.0
451,0.0
452,-19.266344557856222
453,0.0
490,0.0
515,0.0
516,0.0
542,0.0
592,0.0
632,33000000.0
686,1.0
687,1.0
688,2.0
2,1, 1,21, 0, 4,10.00,20.00,WinterDesignDay
250,-13.119971642151551
251,33258891.42938285
336,0.0
385,18.585506792711477
386,27.29395156701339
387,-18.41597625097826
388,0.0
425,0.0
450,0.0
451,0.0
452,-19.266344725097422
453,0.0
490,0.0
515,0.0
516,0.0
542,0.0
592,0.0
632,33000000.0
686,1.0
687,1.0
688,2.0
2,1, 1,21, 0, 4,20.00,30.00,WinterDesignDay
250,-13.119971643645151
251,33258891.42937223
336,0.0
385,18.585506792711477
386,27.29395156701339
387,-18.415977397990815
388,0.0
425,0.0
450,0.0
451,0.0
452,-19.266344890163865
453,0.0
490,0.0
515,0.0
516,0.0
542,0.0
592,0.0
632,33000000.0
686,1.0
687,1.0
688,2.0
2,1, 1,21, 0, 4,30.00,40.00,WinterDesignDay
250,-13.11997164511921
251,33258891.42936175
336,0.0
385,18.585506792711477
386,27.29395156701339
387,-18.415978530089994
388,0.0
425,0.0
450,0.0
451,0.0
452,-19.26634505308383
453,0.0
490,0.0
515,0.0
516,0.0
542,0.0
592,0.0
632,33000000.0
686,1.0
687,1.0
688,2.0
2,1, 1,21, 0, 4,40.00,50.00,WinterDesignDay
250,-13.119971646573982
251,33258891.42935141
336,0.0
385,18.585506792711477
386,27.29395156701339
387,-18.415979647469694
388,0.0
425,0.0
450,0.0
451,0.0
452,-19.26634521388523
453,0.0
490,0.0
515,0.0
516,0.0
542,0.0
592,0.0
632,33000000.0
686,1.0
687,1.0
688,2.0
2,1, 1,21, 0, 4,50.00,60.00,WinterDesignDay
250,-13.119971648009722
251,33258891.429341212
336,0.0
385,18.585506792711477
386,27.29395156701339
387,-18.415980750321346
388,0.0
425,0.0
450,0.0
451,0.0
452,-19.266345372595616
453,0.0
490,0.0
515,0.0
516,0.0
542,0.0
592,0.0
632,33000000.0
686,1.0
687,1.0
688,2.0
2,1, 1,21, 0, 5, 0.00,10.00,WinterDesignDay
250,-13.11997164942668
251,33258891.42933114
336,0.0
385,18.585506792711477
386,27.29395156701339
387,-18.415981838833854
388,0.0
425,0.0
450,0.0
451,0.0
452,-19.266345529242184
453,0.0
490,0.0
515,0.0
516,0.0
542,0.0
592,0.0
632,33000000.0
686,1.0
687,1.0
688,2.0
2,1, 1,21, 0, 5,10.00,20.00,WinterDesignDay
250,-13.119971650825104
251,33258891.4293212
336,0.0
385,18.585506792711477
386,27.29395156701339
387,-18.41598291319357
388,0.0
425,0.0
450,0.0
451,0.0
452,-19.266345683851775
453,0.0
490,0.0
515,0.0
516,0.0
542,0.0
592,0.0
632,33000000.0
686,1.0
687,1.0
688,2.0
2,1, 1,21, 0, 5,20.00,30.00,WinterDesignDay
250,-13.11997165220523
251,33258891.429311395
336,0.0
385,18.585506792711477
386,27.29395156701339
387,-18.415983973584474
388,0.0
425,0.0
450,0.0
451,0.0
452,-19.26634583645088
453,0.0
490,0.0
515,0.0
516,0.0
542,0.0
592,0.0
632,33000000.0
686,1.0
687,1.0
688,2.0
2,1, 1,21, 0, 5,30.00,40.00,WinterDesignDay
250,-13.11997165356731
251,33258891.429301716
336,0.0
385,18.585506792711477
386,27.29395156701339
387,-18.415985020188305
388,0.0
425,0.0
450,0.0
451,0.0
452,-19.266345987065638
453,0.0
490,0.0
515,0.0
516,0.0
542,0.0
592,0.0
632,33000000.0
686,1.0
687,1.0
688,2.0
2,1, 1,21, 0, 5,40.00,50.00,WinterDesignDay
250,-13.119971654911579
251,33258891.429292165
336,0.0
385,18.585506792711477
386,27.29395156701339
387,-18.415986053184408
388,0.0
425,0.0
450,0.0
451,0.0
452,-19.26634613572185
453,0.0
490,0.0
515,0.0
516,0.0
542,0.0
592,0.0
632,33000000.0
686,1.0
687,1.0
688,2.0
2,1, 1,21, 0, 5,50.00,60.00,WinterDesignDay
250,-13.119971656238263
251,33258891.429282743
336,0.0
385,18.585506792711477
386,27.29395156701339
387,-18.415987072749438
388,0.0
425,0.0
450,0.0
451,0.0
452,-19.266346282444996
453,0.0
490,0.0
515,0.0
516,0.0
542,0.0
592,0.0
632,33000000.0
686,1.0
687,1.0
688,2.0
2,1, 1,21, 0, 6, 0.00,10.00,WinterDesignDay
250,-13.119971657547598
251,33258891.429273434
336,0.0
385,18.585506792711477
386,27.29395156701339
387,-18.415988079057925
388,0.0
425,0.0
450,0.0
451,0.0
452,-19.266346427260217
453,0.0
490,0.0
515,0.0
516,0.0
542,0.0
592,0.0
632,33000000.0
686,1.0
687,1.0
688,2.0
2,1, 1,21, 0, 6,10.00,20.00,WinterDesignDay
250,-13.11997165883981
251,33258891.429264255
336,0.0
385,18.585506792711477
386,27.29395156701339
387,-18.41598907228242
388,0.0
425,0.0
450,0.0
451,0.0
452,-19.266346570192326
453,0.0
490,0.0
515,0.0
516,0.0
542,0.0
592,0.0
632,33000000.0
686,1.0
687,1.0
688,2.0
2,1, 1,21, 0, 6,20.00,30.00,WinterDesignDay
250,-13.119971660115132
251,33258891.429255195
336,0.0
385,18.585506792711477
386,27.29395156701339
387,-18.415990052592957
388,0.0
425,0.0
450,0.0
451,0.0
452,-19.266346711265808
453,0.0
490,0.0
515,0.0
516,0.0
542,0.0
592,0.0
632,33000000.0
686,1.0
687,1.0
688,2.0
2,1, 1,21, 0, 6,30.00,40.00,WinterDesignDay
250,-13.119971661373777
251,33258891.429246254
336,0.0
385,18.585506792711477
386,27.29395156701339
387,-18.415991020157445
388,0.0
425,0.0
450,0.0
451,0.0
452,-19.266346850504828
453,0.0
490,0.0
515,0.0
516,0.0
542,0.0
592,0.0
632,33000000.0
686,1.0
687,1.0
688,2.0
2,1, 1,21, 0, 6,40.00,50.00,WinterDesignDay
250,-13.119971662615967
251,33258891.429237437
336,0.0
385,18.585506792711477
386,27.29395156701339
387,-18.415991975141775
388,0.0
425,0.0
450,0.0
451,0.0
452,-19.266346987933247
453,0.0
490,0.0
515,0.0
516,0.0
542,0.0
592,0.0
632,33000000.0
686,1.0
687,1.0
688,2.0
2,1, 1,21, 0, 6,50.00,60.00,WinterDesignDay
250,-13.119971663841914
251,33258891.42922873
336,0.0
385,18.585506792711477
386,27.29395156701339
387,-18.415992917709584
388,0.0
425,0.0
450,0.0
451,0.0
452,-19.26634712357461
453,0.0
490,0.0
515,0.0
516,0.0
542,0.0
592,0.0
632,33000000.0
686,1.0
687,1.0
688,2.0
2,1, 1,21, 0, 7, 0.00,10.00,WinterDesignDay
250,-13.119971665051839
251,33258891.429220133
336,0.0
385,18.585506792711477
386,27.29395156701339
387,-18.41599384802203
388,0.0
425,0.0
450,0.0
451,0.0
452,-19.26634725745216
453,0.0
490,0.0
515,0.0
516,0.0
542,0.0
592,0.0
632,33000000.0
686,1.0
687,1.0
688,2.0
2,1, 1,21, 0, 7,10.00,20.00,WinterDesignDay
250,-13.119971666245943
251,33258891.429211654
336,0.0
385,18.585506792711477
386,27.29395156701339
387,-18.415994766238427
388,0.0
425,0.0
450,0.0
451,0.0
452,-19.26634738958883
453,0.0
490,0.0
515,0.0
516,0.0
542,0.0
592,0.0
632,33000000.0
686,1.0
687,1.0
688,2.0
2,1, 1,21, 0, 7,20.00,30.00,WinterDesignDay
250,-13.119971667424437
251,33258891.429203283
336,0.0
385,18.585506792711477
386,27.29395156701339
387,-18.415995672515916
388,0.0
425,0.0
450,0.0
451,0.0
452,-19.266347520007262
453,0.0
490,0.0
515,0.0
516,0.0
542,0.0
592,0.0
632,33000000.0
686,1.0
687,1.0
688,2.0
2,1, 1,21, 0, 7,30.00,40.00,WinterDesignDay
250,-13.119971668587532
251,33258891.429195024
336,0.0
385,18.585506792711477
386,27.29395156701339
387,-18.415996567009906
388,0.0
425,0.0
450,0.0
451,0.0
452,-19.2663476487298
453,0.0
490,0.0
515,0.0
516,0.0
542,0.0
592,0.0
632,33000000.0
686,1.0
687,1.0
688,2.0
2,1, 1,21, 0, 7,40.00,50.00,WinterDesignDay
250,-13.119971669735426
251,33258891.429186873
336,0.0
385,18.585506792711477
386,27.29395156701339
387,-18.415997449873846
388,0.0
425,0.0
450,0.0
451,0.0
452,-19.266347775778495
453,0.0
490,0.0
515,0.0
516,0.0
542,0.0
592,0.0
632,33000000.0
686,1.0
687,1.0
688,2.0
2,1, 1,21, 0, 7,50.00,60.00,WinterDesignDay
250,-13.119971670868319
251,33258891.429178834
336,0.0
385,18.585506792711477
386,27.29395156701339
387,-18.415998321258794
388,0.0
425,0.0
450,0.0
451,0.0
452,-19.266347901175116
453,0.0
490,0.0
515,0.0
516,0.0
542,0.0
592,0.0
632,33000000.0
686,1.0
687,1.0
688,2.0
2,1, 1,21, 0, 8, 0.00,10.00,WinterDesignDay
250,-13.119971671986406
251,33258891.429170895
336,0.0
385,18.585506792711477
386,27.29395156701339
387,-18.415999181313826
388,0.0
425,0.0
450,0.0
451,0.0
452,-19.26634802494115
453,0.0
490,0.0
515,0.0
516,0.0
542,0.0
592,0.0
632,33000000.0
686,1.0
687,1.0
688,2.0
2,1, 1,21, 0, 8,10.00,20.00,WinterDesignDay
250,-13.119971673089886
251,33258891.429163065
336,0.0
385,18.585506792711477
386,27.29395156701339
387,-18.416000030186268
388,0.0
425,0.0
450,0.0
451,0.0
452,-19.266348147097798
453,0.0
490,0.0
515,0.0
516,0.0
542,0.0
592,0.0
632,33000000.0
686,1.0
687,1.0
688,2.0
2,1, 1,21, 0, 8,20.00,30.00,WinterDesignDay
250,-13.119971674178943
251,33258891.429155327
336,0.0
385,18.585506792711477
386,27.29395156701339
387,-18.416000868021534
388,0.0
425,0.0
450,0.0
451,0.0
452,-19.26634826766599
453,0.0
490,0.0
515,0.0
516,0.0
542,0.0
592,0.0
632,33000000.0
686,1.0
687,1.0
688,2.0
2,1, 1,21, 0, 8,30.00,40.00,WinterDesignDay
250,-13.119971675253767
251,33258891.429147698
336,0.0
385,18.585506792711477
386,27.29395156701339
387,-18.416001694963313
388,0.0
425,0.0
450,0.0
451,0.0
452,-19.26634838666638
453,0.0
490,0.0
515,0.0
516,0.0
542,0.0
592,0.0
632,33000000.0
686,1.0
687,1.0
688,2.0
2,1, 1,21, 0, 8,40.00,50.00,WinterDesignDay
250,-13.119971676314549
251,33258891.429140173
336,0.0
385,18.585506792711477
386,27.29395156701339
387,-18.41600251115324
388,0.0
425,0.0
450,0.0
451,0.0
452,-19.266348504119353
453,0.0
490,0.0
515,0.0
516,0.0
542,0.0
592,0.0
632,33000000.0
686,1.0
687,1.0
688,2.0
2,1, 1,21, 0, 8,50.00,60.00,WinterDesignDay
250,-13.119971677361477
251,33258891.42913274
336,0.0
385,18.585506792711477
386,27.29395156701339
387,-18.416003316731004
388,0.0
425,0.0
450,0.0
451,0.0
452,-19.266348620045036
453,0.0
490,0.0
515,0.0
516,0.0
542,0.0
592,0.0
632,33000000.0
686,1.0
687,1.0
688,2.0
2,1, 1,21, 0, 9, 0.00,10.00,WinterDesignDay
250,-13.119971678394721
251,33258891.429125406
336,0.0
385,18.585506792711477
386,27.29395156701339
387,-18.41600411183459
388,0.0
425,0.0
450,0.0
451,0.0
452,-19.266348734463296
453,0.0
490,0.0
515,0.0
516,0.0
542,0.0
592,0.0
632,33000000.0
686,1.0
687,1.0
688,2.0
2,1, 1,21, 0, 9,10.00,20.00,WinterDesignDay
250,-13.119971679414473
251,33258891.429118175
336,0.0
385,18.585506792711477
386,27.29395156701339
387,-18.41600489660008
388,0.0
425,0.0
450,0.0
451,0.0
452,-19.266348847393733
453,0.0
490,0.0
515,0.0
516,0.0
542,0.0
592,0.0
632,33000000.0
686,1.0
687,1.0
688,2.0
2,1, 1,21, 0, 9,20.00,30.00,WinterDesignDay
250,-13.119971680420901
251,33258891.42911103
336,0.0
385,18.585506792711477
386,27.29395156701339
387,-18.41600567116183
388,0.0
425,0.0
450,0.0
451,0.0
452,-19.266348958855698
453,0.0
490,0.0
515,0.0
516,0.0
542,0.0
592,0.0
632,33000000.0
686,1.0
687,1.0
688,2.0
2,1, 1,21, 0, 9,30.00,40.00,WinterDesignDay
250,-13.119971681414187
251,33258891.429103985
336,0.0
385,18.585506792711477
386,27.29395156701339
387,-18.416006435652477
388,0.0
425,0.0
450,0.0
451,0.0
452,-19.26634906886828
453,0.0
490,0.0
515,0.0
516,0.0
542,0.0
592,0.0
632,33000000.0
686,1.0
687,1.0
688,2.0
2,1, 1,21, 0, 9,40.00,50.00,WinterDesignDay
250,-13.119971682394496
251,33258891.429097027
336,0.0
385,18.585506792711477
386,27.29395156701339
387,-18.41600719020318
388,0.0
425,0.0
450,0.0
451,0.0
452,-19.26634917745033
453,0.0
490,0.0
515,0.0
516,0.0
542,0.0
592,0.0
632,33000000.0
686,1.0
687,1.0
688,2.0
2,1, 1,21, 0, 9,50.00,60.00,WinterDesignDay
250,-13.119971683362001
251,33258891.429090165
336,0.0
385,18.585506792711477
386,27.29395156701339
387,-18.41600793494327
388,0.0
425,0.0
450,0.0
451,0.0
452,-19.266349284620446
453,0.0
490,0.0
515,0.0
516,0.0
542,0.0
592,0.0
632,33000000.0
686,1.0
687,1.0
688,2.0
2,1, 1,21, 0,10, 0.00,10.00,WinterDesignDay
250,-13.119971684316875
251,33258891.42908339
336,0.0
385,18.585506792711477
386,27.29395156701339
387,-18.416008670000004
388,0.0
425,0.0
450,0.0
451,0.0
452,-19.266349390396993
453,0.0
490,0.0
515,0.0
516,0.0
542,0.0
592,0.0
632,33000000.0
686,1.0
687,1.0
688,2.0
2,1, 1,21, 0,10,10.00,20.00,WinterDesignDay
250,-13.119971685259268
251,33258891.429076698
336,0.0
385,18.585506792711477
386,27.29395156701339
387,-18.416009395499437
388,0.0
425,0.0
450,0.0
451,0.0
452,-19.266349494798092
453,0.0
490,0.0
515,0.0
516,0.0
542,0.0
592,0.0
632,33000000.0
686,1.0
687,1.0
688,2.0
2,1, 1,21, 0,10,20.00,30.00,WinterDesignDay
250,-13.119971686189357
251,33258891.4290701
336,0.0
385,18.585506792711477
386,27.29395156701339
387,-18.416010111565907
388,0.0
425,0.0
450,0.0
451,0.0
452,-19.266349597841632
453,0.0
490,0.0
515,0.0
516,0.0
542,0.0
592,0.0
632,33000000.0
686,1.0
687,1.0
688,2.0
2,1, 1,21, 0,10,30.00,40.00,WinterDesignDay
250,-13.119971687107304
251,33258891.429063592
336,0.0
385,18.585506792711477
386,27.29395156701339
387,-18.416010818322047
388,0.0
425,0.0
450,0.0
451,0.0
452,-19.266349699545266
453,0.0
490,0.0
515,0.0
516,0.0
542,0.0
592,0.0
632,33000000.0
686,1.0
687,1.0
688,2.0
2,1, 1,21, 0,10,40.00,50.00,WinterDesignDay
250,-13.119971688013266
251,33258891.429057166
336,0.0
385,18.585506792711477
386,27.29395156701339
387,-18.416011515888812
388,0.0
425,0.0
450,0.0
451,0.0
452,-19.266349799926413
453,0.0
490,0.0
515,0.0
516,0.0
542,0.0
592,0.0
632,33000000.0
686,1.0
687,1.0
688,2.0
2,1, 1,21, 0,10,50.00,60.00,WinterDesignDay
250,-13.119971688907388
251,33258891.429050818
336,0.0
385,18.585506792711477
386,27.29395156701339
387,-18.41601220438569
388,0.0
425,0.0
450,0.0
451,0.0
452,-19.26634989900228
453,0.0
490,0.0
515,0.0
516,0.0
542,0.0
592,0.0
632,33000000.0
686,1.0
687,1.0
688,2.0
2,1, 1,21, 0,11, 0.00,10.00,WinterDesignDay
250,-13.119971689789839
251,33258891.42904456
336,0.0
385,18.585506792711477
386,27.29395156701339
387,-18.416012883930563
388,0.0
425,0.0
450,0.0
451,0.0
452,-19.266349996789835
453,0.0
490,0.0
515,0.0
516,0.0
542,0.0
592,0.0
632,33000000.0
686,1.0
687,1.0
688,2.0
2,1, 1,21, 0,11,10.00,20.00,WinterDesignDay
250,-13.119971690660774
251,33258891.429038383
336,0.0
385,18.585506792711477
386,27.29395156701339
387,-18.416013554639914
388,0.0
425,0.0
450,0.0
451,0.0
452,-19.26635009330583
453,0.0
490,0.0
515,0.0
516,0.0
542,0.0
592,0.0
632,33000000.0
686,1.0
687,1.0
688,2.0
2,1, 1,21, 0,11,20.00,30.00,WinterDesignDay
250,-13.119971691520337
251,33258891.42903229
336,0.0
385,18.585506792711477
386,27.29395156701339
387,-18.41601421662848
388,0.0
425,0.0
450,0.0
451,0.0
452,-19.266350188566804
453,0.0
490,0.0
515,0.0
516,0.0
542,0.0
592,0.0
632,33000000.0
686,1.0
687,1.0
688,2.0
2,1, 1,21, 0,11,30.00,40.00,WinterDesignDay
250,-13.119971692368676
251,33258891.429026265
336,0.0
385,18.585506792711477
386,27.29395156701339
387,-18.416014870009803
388,0.0
425,0.0
450,0.0
451,0.0
452,-19.266350282589073
453,0.0
490,0.0
515,0.0
516,0.0
542,0.0
592,0.0
632,33000000.0
686,1.0
687,1.0
688,2.0
2,1, 1,21, 0,11,40.00,50.00,WinterDesignDay
250,-13.11997169320594
251,33258891.429020338
336,0.0
385,18.585506792711477
386,27.29395156701339
387,-18.41601551489574
388,0.0
425,0.0
450,0.0
451,0.0
452,-19.266350375388747
453,0.0
490,0.0
515,0.0
516,0.0
542,0.0
592,0.0
632,33000000.0
686,1.0
687,1.0
688,2.0
2,1, 1,21, 0,11,50.00,60.00,WinterDesignDay
250,-13.119971694032275
251,33258891.42901447
336,0.0
385,18.585506792711477
386,27.29395156701339
387,-18.416016151396683
388,0.0
425,0.0
450,0.0
451,0.0
452,-19.266350466981727
453,0.0
490,0.0
515,0.0
516,0.0
542,0.0
592,0.0
632,33000000.0
686,1.0
687,1.0
688,2.0
2,1, 1,21, 0,12, 0.00,10.00,WinterDesignDay
250,-13.119971694847827
251,33258891.42900869
336,0.0
385,18.585506792711477
386,27.29395156701339
387,-18.41601677962171
388,0.0
425,0.0
450,0.0
451,0.0
452,-19.266350557383706
453,0.0
490,0.0
515,0.0
516,0.0
542,0.0
592,0.0
632,33000000.0
686,1.0
687,1.0
688,2.0
2,1, 1,21, 0,12,10.00,20.00,WinterDesignDay
250,-13.119971695652733
251,33258891.42900298
336,0.0
385,18.585506792711477
386,27.29395156701339
387,-18.416017399678285
388,0.0
425,0.0
450,0.0
451,0.0
452,-19.266350646610164
453,0.0
490,0.0
515,0.0
516,0.0
542,0.0
592,0.0
632,33000000.0
686,1.0
687,1.0
688,2.0
2,1, 1,21, 0,12,20.00,30.00,WinterDesignDay
250,-13.119971696447127
251,33258891.42899735
336,0.0
385,18.585506792711477
386,27.29395156701339
387,-18.41601801167274
388,0.0
425,0.0
450,0.0
451,0.0
452,-19.26635073467639
453,0.0
490,0.0
515,0.0
516,0.0
542,0.0
592,0.0
632,33000000.0
686,1.0
687,1.0
688,2.0
2,1, 1,21, 0,12,30.00,40.00,WinterDesignDay
250,-13.119971697231156
251,33258891.42899179
336,0.0
385,18.585506792711477
386,27.29395156701339
387,-18.416018615710023
388,0.0
425,0.0
450,0.0
451,0.0
452,-19.26635082159747
453,0.0
490,0.0
515,0.0
516,0.0
542,0.0
592,0.0
632,33000000.0
686,1.0
687,1.0
688,2.0
2,1, 1,21, 0,12,40.00,50.00,WinterDesignDay
250,-13.119971698004951
251,33258891.428986304
336,0.0
385,18.585506792711477
386,27.29395156701339
387,-18.41601921189344
388,0.0
425,0.0
450,0.0
451,0.0
452,-19.2663509073883
453,0.0
490,0.0
515,0.0
516,0.0
542,0.0
592,0.0
632,33000000.0
686,1.0
687,1.0
688,2.0
2,1, 1,21, 0,12,50.00,60.00,WinterDesignDay
250,-13.119971698768651
251,33258891.42898089
336,0.0
385,18.585506792711477
386,27.29395156701339
387,-18.416019800325206
388,0.0
425,0.0
450,0.0
451,0.0
452,-19.266350992063575
453,0.0
490,0.0
515,0.0
516,0.0
542,0.0
592,0.0
632,33000000.0
686,1.0
687,1.0
688,2.0
2,1, 1,21, 0,13, 0.00,10.00,WinterDesignDay
250,-13.119971699522386
251,33258891.42897555
336,0.0
385,18.585506792711477
386,27.29395156701339
387,-18.41602038110598
388,0.0
425,0.0
450,0.0
451,0.0
452,-19.2663510756378
453,0.0
490,0.0
515,0.0
516,0.0
542,0.0
592,0.0
632,33000000.0
686,1.0
687,1.0
688,2.0
2,1, 1,21, 0,13,10.00,20.00,WinterDesignDay
250,-13.119971700266278
251,33258891.428970274
336,0.0
385,18.585506792711477
386,27.29395156701339
387,-18.416020954335334
388,0.0
425,0.0
450,0.0
451,0.0
452,-19.2663511581253
453,0.0
490,0.0
515,0.0
516,0.0
542,0.0
592,0.0
632,33000000.0
686,1.0
687,1.0
688,2.0
2,1, 1,21, 0,13,20.00,30.00,WinterDesignDay
250,-13.119971701000463
251,33258891.428965066
336,0.0
385,18.585506792711477
386,27.29395156701339
387,-18.41602152011136
388,0.0
425,0.0
450,0.0
451,0.0
452,-19.266351239540196
453,0.0
490,0.0
515,0.0
516,0.0
542,0.0
592,0.0
632,33000000.0
686,1.0
687,1.0
688,2.0
2,1, 1,21, 0,13,30.00,40.00,WinterDesignDay
250,-13.119971701725072
251,33258891.42895993
336,0.0
385,18.585506792711477
386,27.29395156701339
387,-18.416022078530954
388,0.0
425,0.0
450,0.0
451,0.0
452,-19.26635131989644
453,0.0
490,0.0
515,0.0
516,0.0
542,0.0
592,0.0
632,33000000.0
686,1.0
687,1.0
688,2.0
2,1, 1,21, 0,13,40.00,50.00,WinterDesignDay
250,-13.119971702440223
251,33258891.428954862
336,0.0
385,18.585506792711477
386,27.29395156701339
387,-18.416022629689973
388,0.0
425,0.0
450,0.0
451,0.0
452,-19.2663513992078
453,0.0
490,0.0
515,0.0
516,0.0
542,0.0
592,0.0
632,33000000.0
686,1.0
687,1.0
688,2.0
2,1, 1,21, 0,13,50.00,60.00,WinterDesignDay
250,-13.119971703146046
251,33258891.42894986
336,0.0
385,18.585506792711477
386,27.29395156701339
387,-18.416023173682795
388,0.0
425,0.0
450,0.0
451,0.0
452,-19.26635147748786
453,0.0
490,0.0
515,0.0
516,0.0
542,0.0
592,0.0
632,33000000.0
686,1.0
687,1.0
688,2.0
2,1, 1,21, 0,14, 0.00,10.00,WinterDesignDay
250,-13.11997170384266
251,33258891.42894492
336,0.0
385,18.585506792711477
386,27.29395156701339
387,-18.416023710602442
388,0.0
425,0.0
450,0.0
451,0.0
452,-19.26635155475003
453,0.0
490,0.0
515,0.0
516,0.0
542,0.0
592,0.0
632,33000000.0
686,1.0
687,1.0
688,2.0
2,1, 1,21, 0,14,10.00,20.00,WinterDesignDay
250,-13.119971704530185
251,33258891.428940043
336,0.0
385,18.585506792711477
386,27.29395156701339
387,-18.416024240540796
388,0.0
425,0.0
450,0.0
451,0.0
452,-19.266351631007556
453,0.0
490,0.0
515,0.0
516,0.0
542,0.0
592,0.0
632,33000000.0
686,1.0
687,1.0
688,2.0
2,1, 1,21, 0,14,20.00,30.00,WinterDesignDay
250,-13.119971705208732
251,33258891.428935237
336,0.0
385,18.585506792711477
386,27.29395156701339
387,-18.416024763588744
388,0.0
425,0.0
450,0.0
451,0.0
452,-19.266351706273497
453,0.0
490,0.0
515,0.0
516,0.0
542,0.0
592,0.0
632,33000000.0
686,1.0
687,1.0
688,2.0
2,1, 1,21, 0,14,30.00,40.00,WinterDesignDay
250,-13.119971705878434
251,33258891.42893049
336,0.0
385,18.585506792711477
386,27.29395156701339
387,-18.41602527983596
388,0.0
425,0.0
450,0.0
451,0.0
452,-19.266351780560743
453,0.0
490,0.0
515,0.0
516,0.0
542,0.0
592,0.0
632,33000000.0
686,1.0
687,1.0
688,2.0
2,1, 1,21, 0,14,40.00,50.00,WinterDesignDay
250,-13.119971706539399
251,33258891.42892581
336,0.0
385,18.585506792711477
386,27.29395156701339
387,-18.41602578937084
388,0.0
425,0.0
450,0.0
451,0.0
452,-19.266351853882025
453,0.0
490,0.0
515,0.0
516,0.0
542,0.0
592,0.0
632,33000000.0
686,1.0
687,1.0
688,2.0
2,1, 1,21, 0,14,50.00,60.00,WinterDesignDay
250,-13.119971707191738
251,33258891.428921185
336,0.0
385,18.585506792711477
386,27.29395156701339
387,-18.416026292280613
388,0.0
425,0.0
450,0.0
451,0.0
452,-19.2663519262499
453,0.0
490,0.0
515,0.0
516,0.0
542,0.0
592,0.0
632,33000000.0
686,1.0
687,1.0
688,2.0
2,1, 1,21, 0,15, 0.00,10.00,WinterDesignDay
250,-13.11997170783557
251,33258891.428916622
336,0.0
385,18.585506792711477
386,27.29395156701339
387,-18.41602678865125
388,0.0
425,0.0
450,0.0
451,0.0
452,-19.266351997676768
453,0.0
490,0.0
515,0.0
516,0.0
542,0.0
592,0.0
632,33000000.0
686,1.0
687,1.0
688,2.0
2,1, 1,21, 0,15,10.00,20.00,WinterDesignDay
250,-13.119971708470999
251,33258891.428912114
336,0.0
385,18.585506792711477
386,27.29395156701339
387,-18.41602727856776
388,0.0
425,0.0
450,0.0
451,0.0
452,-19.26635206817487
453,0.0
490,0.0
515,0.0
516,0.0
542,0.0
592,0.0
632,33000000.0
686,1.0
687,1.0
688,2.0
2,1, 1,21, 0,15,20.00,30.00,WinterDesignDay
250,-13.119971709098145
251,33258891.428907674
336,0.0
385,18.585506792711477
386,27.29395156701339
387,-18.41602776211433
388,0.0
425,0.0
450,0.0
451,0.0
452,-19.266352137756275
453,0.0
490,0.0
515,0.0
516,0.0
542,0.0
592,0.0
632,33000000.0
686,1.0
687,1.0
688,2.0
2,1, 1,21, 0,15,30.00,40.00,WinterDesignDay
250,-13.11997170971711
251,33258891.42890329
336,0.0
385,18.585506792711477
386,27.29395156701339
387,-18.416028239373745
388,0.0
425,0.0
450,0.0
451,0.0
452,-19.266352206432902
453,0.0
490,0.0
515,0.0
516,0.0
542,0.0
592,0.0
632,33000000.0
686,1.0
687,1.0
688,2.0
2,1, 1,21, 0,15,40.00,50.00,WinterDesignDay
250,-13.119971710328002
251,33258891.42889896
336,0.0
385,18.585506792711477
386,27.29395156701339
387,-18.416028710427707
388,0.0
425,0.0
450,0.0
451,0.0
452,-19.266352274216526
453,0.0
490,0.0
515,0.0
516,0.0
542,0.0
592,0.0
632,33000000.0
686,1.0
687,1.0