Program Version,EnergyPlus, Version 24.2.0-94a887817b, YMD=2025.01.21 23:16
1,5,Environment Title[],Latitude[deg],Longitude[deg],Time Zone[],Elevation[m]
2,8,Day of Simulation[],Month[],Day of Month[],DST Indicator[1=yes 0=no],Hour[],StartMinute[],EndMinute[],DayType
3,5,Cumulative Day of Simulation[],Month[],Day of Month[],DST Indicator[1=yes 0=no],DayType  ! When Daily Report Variables Requested
4,2,Cumulative Days of Simulation[],Month[]  ! When Monthly Report Variables Requested
5,1,Cumulative Days of Simulation[] ! When Run Period Report Variables Requested
6,1,Calendar Year of Simulation[] ! When Annual Report Variables Requested
250,1,LIVING ZONE,Zone Air Temperature [C] !TimeStep,REPORTSCH
251,1,LIVING ZONE,Zone Air System Sensible Heating Energy [J] !TimeStep,REPORTSCH
336,1,LIVING ZONE,Zone Air System Sensible Cooling Energy [J] !TimeStep,REPORTSCH
385,1,LIVING ZONE,Zone Thermostat Heating Setpoint Temperature [C] !TimeStep,REPORTSCH
386,1,LIVING ZONE,Zone Thermostat Cooling Setpoint Temperature [C] !TimeStep,REPORTSCH
387,1,GARAGE ZONE,Zone Air Temperature [C] !TimeStep,REPORTSCH
388,1,GARAGE ZONE,Zone Air System Sensible Heating Energy [J] !TimeStep,REPORTSCH
425,1,GARAGE ZONE,Zone Air System Sensible Cooling Energy [J] !TimeStep,REPORTSCH
450,1,GARAGE ZONE,Zone Thermostat Heating Setpoint Temperature [C] !TimeStep,REPORTSCH
451,1,GARAGE ZONE,Zone Thermostat Cooling Setpoint Temperature [C] !TimeStep,REPORTSCH
452,1,ATTIC ZONE,Zone Air Temperature [C] !TimeStep,REPORTSCH
453,1,ATTIC ZONE,Zone Air System Sensible Heating Energy [J] !TimeStep,REPORTSCH
490,1,ATTIC ZONE,Zone Air System Sensible Cooling Energy [J] !TimeStep,REPORTSCH
515,1,ATTIC ZONE,Zone Thermostat Heating Setpoint Temperature [C] !TimeStep,REPORTSCH
516,1,ATTIC ZONE,Zone Thermostat Cooling Setpoint Temperature [C] !TimeStep,REPORTSCH
542,1,ACDXCOIL 1,Cooling Coil Total Cooling Energy [J] !TimeStep,REPORTSCH
592,1,HEAT PUMP DX HEATING COIL 1,Heating Coil Heating Energy [J] !TimeStep,REPORTSCH
632,1,SUPP HEATING COIL 1,Heating Coil Heating Energy [J] !TimeStep,REPORTSCH
686,1,TWOSPEED HEAT PUMP 1,Unitary System DX Coil Cycling Ratio [] !TimeStep,REPORTSCH
687,1,TWOSPEED HEAT PUMP 1,Unitary System DX Coil Speed Ratio [] !TimeStep,REPORTSCH
688,1,TWOSPEED HEAT PUMP 1,Unitary System DX Coil Speed Level [] !TimeStep,REPORTSCH
End of Data Dictionary
1,CHICAGO_IL_USA ANNUAL HEATING 99% DESIGN CONDITIONS DB,  41.98, -87.92,  -6.00, 201.00
2,1, 1,21, 0, 1, 0.00,10.00,WinterDesignDay
250,-16.003403326965962
251,33258891.428888857
336,0.0
385,17.95210586697378
386,28.908790864815025
387,-18.476324502465335
388,0.0
425,0.0
450,0.0
451,0.0
452,-19.336172574770004
453,0.0
490,0.0
515,0.0
516,0.0
542,0.0
592,0.0
632,33000000.0
686,1.0
687,1.0
688,2.0
2,1, 1,21, 0, 1,10.00,20.00,WinterDesignDay
250,-16.003403327550192
251,33258891.428884666
336,0.0
385,17.95210586697378
386,28.908790864815025
387,-18.476325985246316
388,0.0
425,0.0
450,0.0
451,0.0
452,-19.336172782675245
453,0.0
490,0.0
515,0.0
516,0.0
542,0.0
592,0.0
632,33000000.0
686,1.0
687,1.0
688,2.0
2,1, 1,21, 0, 1,20.00,30.00,WinterDesignDay
250,-16.0034033281267
251,33258891.428880524
336,0.0
385,17.95210586697378
386,28.908790864815025
387,-18.476327448702477
388,0.0
425,0.0
450,0.0
451,0.0
452,-19.33617298787038
453,0.0
490,0.0
515,0.0
516,0.0
542,0.0
592,0.0
632,33000000.0
686,1.0
687,1.0
688,2.0
2,1, 1,21, 0, 1,30.00,40.00,WinterDesignDay
250,-16.0034033286956
251,33258891.42887644
336,0.0
385,17.95210586697378
386,28.908790864815025
387,-18.476328893085693
388,0.0
425,0.0
450,0.0
451,0.0
452,-19.336173190390745
453,0.0
490,0.0
515,0.0
516,0.0
542,0.0
592,0.0
632,33000000.0
686,1.0
687,1.0
688,2.0
2,1, 1,21, 0, 1,40.00,50.00,WinterDesignDay
250,-16.003403329256994
251,33258891.428872425
336,0.0
385,17.95210586697378
386,28.908790864815025
387,-18.47633031864463
388,0.0
425,0.0
450,0.0
451,0.0
452,-19.336173390271203
453,0.0
490,0.0
515,0.0
516,0.0
542,0.0
592,0.0
632,33000000.0
686,1.0
687,1.0
688,2.0
2,1, 1,21, 0, 1,50.00,60.00,WinterDesignDay
250,-16.003403329810972
251,33258891.428868447
336,0.0
385,17.95210586697378
386,28.908790864815025
387,-18.476331725624632
388,0.0
425,0.0
450,0.0
451,0.0
452,-19.33617358754617
453,0.0
490,0.0
515,0.0
516,0.0
542,0.0
592,0.0
632,33000000.0
686,1.0
687,1.0
688,2.0
2,1, 1,21, 0, 2, 0.00,10.00,WinterDesignDay
250,-16.003403330357635
251,33258891.42886452
336,0.0
385,17.95210586697378
386,28.908790864815025
387,-18.476333114267828
388,0.0
425,0.0
450,0.0
451,0.0
452,-19.336173782249617
453,0.0
490,0.0
515,0.0
516,0.0
542,0.0
592,0.0
632,33000000.0
686,1.0
687,1.0
688,2.0
2,1, 1,21, 0, 2,10.00,20.00,WinterDesignDay
250,-16.00340333089709
251,33258891.428860657
336,0.0
385,17.95210586697378
386,28.908790864815025
387,-18.476334484813265
388,0.0
425,0.0
450,0.0
451,0.0
452,-19.336173974415065
453,0.0
490,0.0
515,0.0
516,0.0
542,0.0
592,0.0
632,33000000.0
686,1.0
687,1.0
688,2.0
2,1, 1,21, 0, 2,20.00,30.00,WinterDesignDay
250,-16.003403331429418
251,33258891.428856842
336,0.0
385,17.95210586697378
386,28.908790864815025
387,-18.476335837496688
388,0.0
425,0.0
450,0.0
451,0.0
452,-19.336174164075604
453,0.0
490,0.0
515,0.0
516,0.0
542,0.0
592,0.0
632,33000000.0
686,1.0
687,1.0
688,2.0
2,1, 1,21, 0, 2,30.00,40.00,WinterDesignDay
250,-16.00340333195473
251,33258891.428853072
336,0.0
385,17.95210586697378
386,28.908790864815025
387,-18.47633717255092
388,0.0
425,0.0
450,0.0
451,0.0
452,-19.336174351263885
453,0.0
490,0.0
515,0.0
516,0.0
542,0.0
592,0.0
632,33000000.0
686,1.0
687,1.0
688,2.0
2,1, 1,21, 0, 2,40.00,50.00,WinterDesignDay
250,-16.00340333247311
251,33258891.428849358
336,0.0
385,17.95210586697378
386,28.908790864815025
387,-18.476338490205713
388,0.0
425,0.0
450,0.0
451,0.0
452,-19.336174536012145
453,0.0
490,0.0
515,0.0
516,0.0
542,0.0
592,0.0
632,33000000.0
686,1.0
687,1.0
688,2.0
2,1, 1,21, 0, 2,50.00,60.00,WinterDesignDay
250,-16.003403332984647
251,33258891.428845692
336,0.0
385,17.95210586697378
386,28.908790864815025
387,-18.476339790687643
388,0.0
425,0.0
450,0.0
451,0.0
452,-19.336174718352193
453,0.0
490,0.0
515,0.0
516,0.0
542,0.0
592,0.0
632,33000000.0
686,1.0
687,1.0
688,2.0
2,1, 1,21, 0, 3, 0.00,10.00,WinterDesignDay
250,-16.003403333489437
251,33258891.42884207
336,0.0
385,17.95210586697378
386,28.908790864815025
387,-18.47634107422053
388,0.0
425,0.0
450,0.0
451,0.0
452,-19.336174898315427
453,0.0
490,0.0
515,0.0
516,0.0
542,0.0
592,0.0
632,33000000.0
686,1.0
687,1.0
688,2.0
2,1, 1,21, 0, 3,10.00,20.00,WinterDesignDay
250,-16.003403333987578
251,33258891.42883851
336,0.0
385,17.95210586697378
386,28.908790864815025
387,-18.47634234102526
388,0.0
425,0.0
450,0.0
451,0.0
452,-19.33617507593283
453,0.0
490,0.0
515,0.0
516,0.0
542,0.0
592,0.0
632,33000000.0
686,1.0
687,1.0
688,2.0
2,1, 1,21, 0, 3,20.00,30.00,WinterDesignDay
250,-16.00340333447914
251,33258891.428834982
336,0.0
385,17.95210586697378
386,28.908790864815025
387,-18.476343591319957
388,0.0
425,0.0
450,0.0
451,0.0
452,-19.336175251234977
453,0.0
490,0.0
515,0.0
516,0.0
542,0.0
592,0.0
632,33000000.0
686,1.0
687,1.0
688,2.0
2,1, 1,21, 0, 3,30.00,40.00,WinterDesignDay
250,-16.003403334964226
251,33258891.428831507
336,0.0
385,17.95210586697378
386,28.908790864815025
387,-18.476344825319877
388,0.0
425,0.0
450,0.0
451,0.0
452,-19.336175424252055
453,0.0
490,0.0
515,0.0
516,0.0
542,0.0
592,0.0
632,33000000.0
686,1.0
687,1.0
688,2.0
2,1, 1,21, 0, 3,40.00,50.00,WinterDesignDay
250,-16.00340333544292
251,33258891.428828076
336,0.0
385,17.95210586697378
386,28.908790864815025
387,-18.47634604323732
388,0.0
425,0.0
450,0.0
451,0.0
452,-19.336175595013856
453,0.0
490,0.0
515,0.0
516,0.0
542,0.0
592,0.0
632,33000000.0
686,1.0
687,1.0
688,2.0
2,1, 1,21, 0, 3,50.00,60.00,WinterDesignDay
250,-16.003403335915294
251,33258891.428824693
336,0.0
385,17.95210586697378
386,28.908790864815025
387,-18.47634724528173
388,0.0
425,0.0
450,0.0
451,0.0
452,-19.336175763549782
453,0.0
490,0.0
515,0.0
516,0.0
542,0.0
592,0.0
632,33000000.0
686,1.0
687,1.0
688,2.0
2,1, 1,21, 0, 4, 0.00,10.00,WinterDesignDay
250,-16.003403336381442
251,33258891.428821355
336,0.0
385,17.95210586697378
386,28.908790864815025
387,-18.476348431659964
388,0.0
425,0.0
450,0.0
451,0.0
452,-19.336175929888846
453,0.0
490,0.0
515,0.0
516,0.0
542,0.0
592,0.0
632,33000000.0
686,1.0
687,1.0
688,2.0
2,1, 1,21, 0, 4,10.00,20.00,WinterDesignDay
250,-16.003403336841455
251,33258891.428818062
336,0.0
385,17.95210586697378
386,28.908790864815025
387,-18.476349602576242
388,0.0
425,0.0
450,0.0
451,0.0
452,-19.336176094059685
453,0.0
490,0.0
515,0.0
516,0.0
542,0.0
592,0.0
632,33000000.0
686,1.0
687,1.0
688,2.0
2,1, 1,21, 0, 4,20.00,30.00,WinterDesignDay
250,-16.0034033372954
251,33258891.428814813
336,0.0
385,17.95210586697378
386,28.908790864815025
387,-18.476350758232034
388,0.0
425,0.0
450,0.0
451,0.0
452,-19.336176256090567
453,0.0
490,0.0
515,0.0
516,0.0
542,0.0
592,0.0
632,33000000.0
686,1.0
687,1.0
688,2.0
2,1, 1,21, 0, 4,30.00,40.00,WinterDesignDay
250,-16.003403337743364
251,33258891.42881161
336,0.0
385,17.95210586697378
386,28.908790864815025
387,-18.476351898826294
388,0.0
425,0.0
450,0.0
451,0.0
452,-19.33617641600939
453,0.0
490,0.0
515,0.0
516,0.0
542,0.0
592,0.0
632,33000000.0
686,1.0
687,1.0
688,2.0
2,1, 1,21, 0, 4,40.00,50.00,WinterDesignDay
250,-16.00340333818543
251,33258891.42880844
336,0.0
385,17.95210586697378
386,28.908790864815025
387,-18.476353024555433
388,0.0
425,0.0
450,0.0
451,0.0
452,-19.336176573843687
453,0.0
490,0.0
515,0.0
516,0.0
542,0.0
592,0.0
632,33000000.0
686,1.0
687,1.0
688,2.0
2,1, 1,21, 0, 4,50.00,60.00,WinterDesignDay
250,-16.003403338621666
251,33258891.428805318
336,0.0
385,17.95210586697378
386,28.908790864815025
387,-18.47635413561308
388,0.0
425,0.0
450,0.0
451,0.0
452,-19.336176729620632
453,0.0
490,0.0
515,0.0
516,0.0
542,0.0
592,0.0
632,33000000.0
686,1.0
687,1.0
688,2.0
2,1, 1,21, 0, 5, 0.00,10.00,WinterDesignDay
250,-16.003403339052156
251,33258891.428802237
336,0.0
385,17.95210586697378
386,28.908790864815025
387,-18.47635523219043
388,0.0
425,0.0
450,0.0
451,0.0
452,-19.336176883367045
453,0.0
490,0.0
515,0.0
516,0.0
542,0.0
592,0.0
632,33000000.0
686,1.0
687,1.0
688,2.0
2,1, 1,21, 0, 5,10.00,20.00,WinterDesignDay
250,-16.00340333947698
251,33258891.428799197
336,0.0
385,17.95210586697378
386,28.908790864815025
387,-18.476356314476153
388,0.0
425,0.0
450,0.0
451,0.0
452,-19.336177035109397
453,0.0
490,0.0
515,0.0
516,0.0
542,0.0
592,0.0
632,33000000.0
686,1.0
687,1.0
688,2.0
2,1, 1,21, 0, 5,20.00,30.00,WinterDesignDay
250,-16.003403339896202
251,33258891.428796194
336,0.0
385,17.95210586697378
386,28.908790864815025
387,-18.476357382656644
388,0.0
425,0.0
450,0.0
451,0.0
452,-19.336177184873815
453,0.0
490,0.0
515,0.0
516,0.0
542,0.0
592,0.0
632,33000000.0
686,1.0
687,1.0
688,2.0
2,1, 1,21, 0, 5,30.00,40.00,WinterDesignDay
250,-16.00340334030991
251,33258891.428793237
336,0.0
385,17.95210586697378
386,28.908790864815025
387,-18.47635843691557
388,0.0
425,0.0
450,0.0
451,0.0
452,-19.33617733268608
453,0.0
490,0.0
515,0.0
516,0.0
542,0.0
592,0.0
632,33000000.0
686,1.0
687,1.0
688,2.0
2,1, 1,21, 0, 5,40.00,50.00,WinterDesignDay
250,-16.003403340718165
251,33258891.428790316
336,0.0
385,17.95210586697378
386,28.908790864815025
387,-18.476359477434354
388,0.0
425,0.0
450,0.0
451,0.0
452,-19.33617747857164
453,0.0
490,0.0
515,0.0
516,0.0
542,0.0
592,0.0
632,33000000.0
686,1.0
687,1.0
688,2.0
2,1, 1,21, 0, 5,50.00,60.00,WinterDesignDay
250,-16.003403341121047
251,33258891.428787433
336,0.0
385,17.95210586697378
386,28.908790864815025
387,-18.47636050439215
388,0.0
425,0.0
450,0.0
451,0.0
452,-19.336177622555606
453,0.0
490,0.0
515,0.0
516,0.0
542,0.0
592,0.0
632,33000000.0
686,1.0
687,1.0
688,2.0
2,1, 1,21, 0, 6, 0.00,10.00,WinterDesignDay
250,-16.003403341518627
251,33258891.42878459
336,0.0
385,17.95210586697378
386,28.908790864815025
387,-18.476361517965813
388,0.0
425,0.0
450,0.0
451,0.0
452,-19.336177764662782
453,0.0
490,0.0
515,0.0
516,0.0
542,0.0
592,0.0
632,33000000.0
686,1.0
687,1.0
688,2.0
2,1, 1,21, 0, 6,10.00,20.00,WinterDesignDay
250,-16.00340334191097
251,33258891.428781785
336,0.0
385,17.95210586697378
386,28.908790864815025
387,-18.476362518329477
388,0.0
425,0.0
450,0.0
451,0.0
452,-19.33617790491763
453,0.0
490,0.0
515,0.0
516,0.0
542,0.0
592,0.0
632,33000000.0
686,1.0
687,1.0
688,2.0
2,1, 1,21, 0, 6,20.00,30.00,WinterDesignDay
250,-16.00340334229815
251,33258891.428779013
336,0.0
385,17.95210586697378
386,28.908790864815025
387,-18.476363505655335
388,0.0
425,0.0
450,0.0
451,0.0
452,-19.336178043344294
453,0.0
490,0.0
515,0.0
516,0.0
542,0.0
592,0.0
632,33000000.0
686,1.0
687,1.0
688,2.0
2,1, 1,21, 0, 6,30.00,40.00,WinterDesignDay
250,-16.00340334268024
251,33258891.428776287
336,0.0
385,17.95210586697378
386,28.908790864815025
387,-18.47636448011344
388,0.0
425,0.0
450,0.0
451,0.0
452,-19.33617817996661
453,0.0
490,0.0
515,0.0
516,0.0
542,0.0
592,0.0
632,33000000.0
686,1.0
687,1.0
688,2.0
2,1, 1,21, 0, 6,40.00,50.00,WinterDesignDay
250,-16.003403343057293
251,33258891.42877359
336,0.0
385,17.95210586697378
386,28.908790864815025
387,-18.476365441871465
388,0.0
425,0.0
450,0.0
451,0.0
452,-19.336178314808087
453,0.0
490,0.0
515,0.0
516,0.0
542,0.0
592,0.0
632,33000000.0
686,1.0
687,1.0
688,2.0
2,1, 1,21, 0, 6,50.00,60.00,WinterDesignDay
250,-16.00340334342939
251,33258891.42877093
336,0.0
385,17.95210586697378
386,28.908790864815025
387,-18.476366391094828
388,0.0
425,0.0
450,0.0
451,0.0
452,-19.33617844789195
453,0.0
490,0.0
515,0.0
516,0.0
542,0.0
592,0.0
632,33000000.0
686,1.0
687,1.0
688,2.0
2,1, 1,21, 0, 7, 0.00,10.00,WinterDesignDay
250,-16.003403343796585
251,33258891.4287683
336,0.0
385,17.95210586697378
386,28.908790864815025
387,-18.476367327947074
388,0.0
425,0.0
450,0.0
451,0.0
452,-19.33617857924111
453,0.0
490,0.0
515,0.0
516,0.0
542,0.0
592,0.0
632,33000000.0
686,1.0
687,1.0
688,2.0
2,1, 1,21, 0, 7,10.00,20.00,WinterDesignDay
250,-16.003403344158954
251,33258891.428765714
336,0.0
385,17.95210586697378
386,28.908790864815025
387,-18.47636825258934
388,0.0
425,0.0
450,0.0
451,0.0
452,-19.33617870887818
453,0.0
490,0.0
515,0.0
516,0.0
542,0.0
592,0.0
632,33000000.0
686,1.0
687,1.0
688,2.0
2,1, 1,21, 0, 7,20.00,30.00,WinterDesignDay
250,-16.003403344516556
251,33258891.428763155
336,0.0
385,17.95210586697378
386,28.908790864815025
387,-18.476369165180834
388,0.0
425,0.0
450,0.0
451,0.0
452,-19.336178836825475
453,0.0
490,0.0
515,0.0
516,0.0
542,0.0
592,0.0
632,33000000.0
686,1.0
687,1.0
688,2.0
2,1, 1,21, 0, 7,30.00,40.00,WinterDesignDay
250,-16.00340334486945
251,33258891.428760633
336,0.0
385,17.95210586697378
386,28.908790864815025
387,-18.476370065878488
388,0.0
425,0.0
450,0.0
451,0.0
452,-19.336178963105024
453,0.0
490,0.0
515,0.0
516,0.0
542,0.0
592,0.0
632,33000000.0
686,1.0
687,1.0
688,2.0
2,1, 1,21, 0, 7,40.00,50.00,WinterDesignDay
250,-16.00340334521771
251,33258891.428758148
336,0.0
385,17.95210586697378
386,28.908790864815025
387,-18.476370954837307
388,0.0
425,0.0
450,0.0
451,0.0
452,-19.336179087738564
453,0.0
490,0.0
515,0.0
516,0.0
542,0.0
592,0.0
632,33000000.0
686,1.0
687,1.0
688,2.0
2,1, 1,21, 0, 7,50.00,60.00,WinterDesignDay
250,-16.00340334556138
251,33258891.42875569
336,0.0
385,17.95210586697378
386,28.908790864815025
387,-18.47637183221025
388,0.0
425,0.0
450,0.0
451,0.0
452,-19.336179210747556
453,0.0
490,0.0
515,0.0
516,0.0
542,0.0
592,0.0
632,33000000.0
686,1.0
687,1.0
688,2.0
2,1, 1,21, 0, 8, 0.00,10.00,WinterDesignDay
250,-16.003403345900537
251,33258891.428753268
336,0.0
385,17.95210586697378
386,28.908790864815025
387,-18.476372698148325
388,0.0
425,0.0
450,0.0
451,0.0
452,-19.336179332153176
453,0.0
490,0.0
515,0.0
516,0.0
542,0.0
592,0.0
632,33000000.0
686,1.0
687,1.0
688,2.0
2,1, 1,21, 0, 8,10.00,20.00,WinterDesignDay
250,-16.00340334623523
251,33258891.428750873
336,0.0
385,17.95210586697378
386,28.908790864815025
387,-18.476373552800748
388,0.0
425,0.0
450,0.0
451,0.0
452,-19.336179451976328
453,0.0
490,0.0
515,0.0
516,0.0
542,0.0
592,0.0
632,33000000.0
686,1.0
687,1.0
688,2.0
2,1, 1,21, 0, 8,20.00,30.00,WinterDesignDay
250,-16.003403346565523
251,33258891.428748515
336,0.0
385,17.95210586697378
386,28.908790864815025
387,-18.476374396314633
388,0.0
425,0.0
450,0.0
451,0.0
452,-19.336179570237636
453,0.0
490,0.0
515,0.0
516,0.0
542,0.0
592,0.0
632,33000000.0
686,1.0
687,1.0
688,2.0
2,1, 1,21, 0, 8,30.00,40.00,WinterDesignDay
250,-16.003403346891474
251,33258891.428746186
336,0.0
385,17.95210586697378
386,28.908790864815025
387,-18.476375228835042
388,0.0
425,0.0
450,0.0
451,0.0
452,-19.336179686957458
453,0.0
490,0.0
515,0.0
516,0.0
542,0.0
592,0.0
632,33000000.0
686,1.0
687,1.0
688,2.0
2,1, 1,21, 0, 8,40.00,50.00,WinterDesignDay
250,-16.00340334721314
251,33258891.42874389
336,0.0
385,17.95210586697378
386,28.908790864815025
387,-18.476376050505127
388,0.0
425,0.0
450,0.0
451,0.0
452,-19.336179802155893
453,0.0
490,0.0
515,0.0
516,0.0
542,0.0
592,0.0
632,33000000.0
686,1.0
687,1.0
688,2.0
2,1, 1,21, 0, 8,50.00,60.00,WinterDesignDay
250,-16.003403347530586
251,33258891.428741626
336,0.0
385,17.95210586697378
386,28.908790864815025
387,-18.476376861466246
388,0.0
425,0.0
450,0.0
451,0.0
452,-19.336179915852778
453,0.0
490,0.0
515,0.0
516,0.0
542,0.0
592,0.0
632,33000000.0
686,1.0
687,1.0
688,2.0
2,1, 1,21, 0, 9, 0.00,10.00,WinterDesignDay
250,-16.003403347843847
251,33258891.428739384
336,0.0
385,17.95210586697378
386,28.908790864815025
387,-18.47637766185789
388,0.0
425,0.0
450,0.0
451,0.0
452,-19.336180028067684
453,0.0
490,0.0
515,0.0
516,0.0
542,0.0
592,0.0
632,33000000.0
686,1.0
687,1.0
688,2.0
2,1, 1,21, 0, 9,10.00,20.00,WinterDesignDay
250,-16.003403348152997
251,33258891.428737182
336,0.0
385,17.95210586697378
386,28.908790864815025
387,-18.47637845181789
388,0.0
425,0.0
450,0.0
451,0.0
452,-19.336180138819927
453,0.0
490,0.0
515,0.0
516,0.0
542,0.0
592,0.0
632,33000000.0
686,1.0
687,1.0
688,2.0
2,1, 1,21, 0, 9,20.00,30.00,WinterDesignDay
250,-16.003403348458086
251,33258891.428735003
336,0.0
385,17.95210586697378
386,28.908790864815025
387,-18.476379231482483
388,0.0
425,0.0
450,0.0
451,0.0
452,-19.336180248128567
453,0.0
490,0.0
515,0.0
516,0.0
542,0.0
592,0.0
632,33000000.0
686,1.0
687,1.0
688,2.0
2,1, 1,21, 0, 9,30.00,40.00,WinterDesignDay
250,-16.00340334875916
251,33258891.428732846
336,0.0
385,17.95210586697378
386,28.908790864815025
387,-18.476380000985706
388,0.0
425,0.0
450,0.0
451,0.0
452,-19.336180356012424
453,0.0
490,0.0
515,0.0
516,0.0
542,0.0
592,0.0
632,33000000.0
686,1.0
687,1.0
688,2.0
2,1, 1,21, 0, 9,40.00,50.00,WinterDesignDay
250,-16.003403349056278
251,33258891.428730734
336,0.0
385,17.95210586697378
386,28.908790864815025
387,-18.47638076045994
388,0.0
425,0.0
450,0.0
451,0.0
452,-19.336180462490073
453,0.0
490,0.0
515,0.0
516,0.0
542,0.0
592,0.0
632,33000000.0
686,1.0
687,1.0
688,2.0
2,1, 1,21, 0, 9,50.00,60.00,WinterDesignDay
250,-16.003403349349497
251,33258891.42872864
336,0.0
385,17.95210586697378
386,28.908790864815025
387,-18.476381510035974
388,0.0
425,0.0
450,0.0
451,0.0
452,-19.336180567579845
453,0.0
490,0.0
515,0.0
516,0.0
542,0.0
592,0.0
632,33000000.0
686,1.0
687,1.0
688,2.0
2,1, 1,21, 0,10, 0.00,10.00,WinterDesignDay
250,-16.00340334963886
251,33258891.42872657
336,0.0
385,17.95210586697378
386,28.908790864815025
387,-18.476382249842867
388,0.0
425,0.0
450,0.0
451,0.0
452,-19.336180671299832
453,0.0
490,0.0
515,0.0
516,0.0
542,0.0
592,0.0
632,33000000.0
686,1.0
687,1.0
688,2.0
2,1, 1,21, 0,10,10.00,20.00,WinterDesignDay
250,-16.003403349924422
251,33258891.42872453
336,0.0
385,17.95210586697378
386,28.908790864815025
387,-18.47638298000769
388,0.0
425,0.0
450,0.0
451,0.0
452,-19.33618077366789
453,0.0
490,0.0
515,0.0
516,0.0
542,0.0
592,0.0
632,33000000.0
686,1.0
687,1.0
688,2.0
2,1, 1,21, 0,10,20.00,30.00,WinterDesignDay
250,-16.003403350206234
251,33258891.42872252
336,0.0
385,17.95210586697378
386,28.908790864815025
387,-18.476383700656132
388,0.0
425,0.0
450,0.0
451,0.0
452,-19.336180874701643
453,0.0
490,0.0
515,0.0
516,0.0
542,0.0
592,0.0
632,33000000.0
686,1.0
687,1.0
688,2.0
2,1, 1,21, 0,10,30.00,40.00,WinterDesignDay
250,-16.003403350484348
251,33258891.428720538
336,0.0
385,17.95210586697378
386,28.908790864815025
387,-18.476384411912232
388,0.0
425,0.0
450,0.0
451,0.0
452,-19.336180974418482
453,0.0
490,0.0
515,0.0
516,0.0
542,0.0
592,0.0
632,33000000.0
686,1.0
687,1.0
688,2.0
2,1, 1,21, 0,10,40.00,50.00,WinterDesignDay
250,-16.003403350758802
251,33258891.428718578
336,0.0
385,17.95210586697378
386,28.908790864815025
387,-18.476385113898477
388,0.0
425,0.0
450,0.0
451,0.0
452,-19.336181072835576
453,0.0
490,0.0
515,0.0
516,0.0
542,0.0
592,0.0
632,33000000.0
686,1.0
687,1.0
688,2.0
2,1, 1,21, 0,10,50.00,60.00,WinterDesignDay
250,-16.003403351029657
251,33258891.428716645
336,0.0
385,17.95210586697378
386,28.908790864815025
387,-18.476385806735617
388,0.0
425,0.0
450,0.0
451,0.0
452,-19.336181169969862
453,0.0
490,0.0
515,0.0
516,0.0
542,0.0
592,0.0
632,33000000.0
686,1.0
687,1.0
688,2.0
2,1, 1,21, 0,11, 0.00,10.00,WinterDesignDay
250,-16.003403351296953
251,33258891.42871474
336,0.0
385,17.95210586697378
386,28.908790864815025
387,-18.47638649054286
388,0.0
425,0.0
450,0.0
451,0.0
452,-19.336181265838064
453,0.0
490,0.0
515,0.0
516,0.0
542,0.0
592,0.0
632,33000000.0
686,1.0
687,1.0
688,2.0
2,1, 1,21, 0,11,10.00,20.00,WinterDesignDay
250,-16.00340335156074
251,33258891.42871286
336,0.0
385,17.95210586697378
386,28.908790864815025
387,-18.476387165438087
388,0.0
425,0.0
450,0.0
451,0.0
452,-19.33618136045669
453,0.0
490,0.0
515,0.0
516,0.0
542,0.0
592,0.0
632,33000000.0
686,1.0
687,1.0
688,2.0
2,1, 1,21, 0,11,20.00,30.00,WinterDesignDay
250,-16.00340335182106
251,33258891.428711
336,0.0
385,17.95210586697378
386,28.908790864815025
387,-18.47638783153751
388,0.0
425,0.0
450,0.0
451,0.0
452,-19.33618145384202
453,0.0
490,0.0
515,0.0
516,0.0
542,0.0
592,0.0
632,33000000.0
686,1.0
687,1.0
688,2.0
2,1, 1,21, 0,11,30.00,40.00,WinterDesignDay
250,-16.003403352077967
251,33258891.42870917
336,0.0
385,17.95210586697378
386,28.908790864815025
387,-18.476388488955777
388,0.0
425,0.0
450,0.0
451,0.0
452,-19.33618154601013
453,0.0
490,0.0
515,0.0
516,0.0
542,0.0
592,0.0
632,33000000.0
686,1.0
687,1.0
688,2.0
2,1, 1,21, 0,11,40.00,50.00,WinterDesignDay
250,-16.003403352331496
251,33258891.42870736
336,0.0
385,17.95210586697378
386,28.908790864815025
387,-18.47638913780582
388,0.0
425,0.0
450,0.0
451,0.0
452,-19.336181636976896
453,0.0
490,0.0
515,0.0
516,0.0
542,0.0
592,0.0
632,33000000.0
686,1.0
687,1.0
688,2.0
2,1, 1,21, 0,11,50.00,60.00,WinterDesignDay
250,-16.0034033525817
251,33258891.428705573
336,0.0
385,17.95210586697378
386,28.908790864815025
387,-18.476389778199103
388,0.0
425,0.0
450,0.0
451,0.0
452,-19.336181726757975
453,0.0
490,0.0
515,0.0
516,0.0
542,0.0
592,0.0
632,33000000.0
686,1.0
687,1.0
688,2.0
2,1, 1,21, 0,12, 0.00,10.00,WinterDesignDay
250,-16.00340335282862
251,33258891.428703815
336,0.0
385,17.95210586697378
386,28.908790864815025
387,-18.47639041024593
388,0.0
425,0.0
450,0.0
451,0.0
452,-19.336181815368818
453,0.0
490,0.0
515,0.0
516,0.0
542,0.0
592,0.0
632,33000000.0
686,1.0
687,1.0
688,2.0
2,1, 1,21, 0,12,10.00,20.00,WinterDesignDay
250,-16.003403353072297
251,33258891.42870208
336,0.0
385,17.95210586697378
386,28.908790864815025
387,-18.47639103405521
388,0.0
425,0.0
450,0.0
451,0.0
452,-19.336181902824688
453,0.0
490,0.0
515,0.0
516,0.0
542,0.0
592,0.0
632,33000000.0
686,1.0
687,1.0
688,2.0
2,1, 1,21, 0,12,20.00,30.00,WinterDesignDay
250,-16.003403353312777
251,33258891.42870036
336,0.0
385,17.95210586697378
386,28.908790864815025
387,-18.476391649734413
388,0.0
425,0.0
450,0.0
451,0.0
452,-19.33618198914063
453,0.0
490,0.0
515,0.0
516,0.0
542,0.0
592,0.0
632,33000000.0
686,1.0
687,1.0
688,2.0
2,1, 1,21, 0,12,30.00,40.00,WinterDesignDay
250,-16.0034033535501
251,33258891.428698666
336,0.0
385,17.95210586697378
386,28.908790864815025
387,-18.476392257389456
388,0.0
425,0.0
450,0.0
451,0.0
452,-19.33618207433151
453,0.0
490,0.0
515,0.0
516,0.0
542,0.0
592,0.0
632,33000000.0
686,1.0
687,1.0
688,2.0
2,1, 1,21, 0,12,40.00,50.00,WinterDesignDay
250,-16.003403353784307
251,33258891.428697
336,0.0
385,17.95210586697378
386,28.908790864815025
387,-18.47639285712475
388,0.0
425,0.0
450,0.0
451,0.0
452,-19.33618215841199
453,0.0
490,0.0
515,0.0
516,0.0
542,0.0
592,0.0
632,33000000.0
686,1.0
687,1.0
688,2.0
2,1, 1,21, 0,12,50.00,60.00,WinterDesignDay
250,-16.003403354015447
251,33258891.428695355
336,0.0
385,17.95210586697378
386,28.908790864815025
387,-18.476393449043492
388,0.0
425,0.0
450,0.0
451,0.0
452,-19.33618224139654
453,0.0
490,0.0
515,0.0
516,0.0
542,0.0
592,0.0
632,33000000.0
686,1.0
687,1.0
688,2.0
2,1, 1,21, 0,13, 0.00,10.00,WinterDesignDay
250,-16.003403354243552
251,33258891.428693727
336,0.0
385,17.95210586697378
386,28.908790864815025
387,-18.47639403324768
388,0.0
425,0.0
450,0.0
451,0.0
452,-19.33618232329945
453,0.0
490,0.0
515,0.0
516,0.0
542,0.0
592,0.0
632,33000000.0
686,1.0
687,1.0
688,2.0
2,1, 1,21, 0,13,10.00,20.00,WinterDesignDay
250,-16.00340335446866
251,33258891.42869212
336,0.0
385,17.95210586697378
386,28.908790864815025
387,-18.476394609838053
388,0.0
425,0.0
450,0.0
451,0.0
452,-19.33618240413482
453,0.0
490,0.0
515,0.0
516,0.0
542,0.0
592,0.0
632,33000000.0
686,1.0
687,1.0
688,2.0
2,1, 1,21, 0,13,20.00,30.00,WinterDesignDay
250,-16.003403354690814
251,33258891.428690534
336,0.0
385,17.95210586697378
386,28.908790864815025
387,-18.47639517891371
388,0.0
425,0.0
450,0.0
451,0.0
452,-19.336182483916566
453,0.0
490,0.0
515,0.0
516,0.0
542,0.0
592,0.0
632,33000000.0
686,1.0
687,1.0
688,2.0
2,1, 1,21, 0,13,30.00,40.00,WinterDesignDay
250,-16.00340335491006
251,33258891.42868898
336,0.0
385,17.95210586697378
386,28.908790864815025
387,-18.476395740572556
388,0.0
425,0.0
450,0.0
451,0.0
452,-19.33618256265842
453,0.0
490,0.0
515,0.0
516,0.0
542,0.0
592,0.0
632,33000000.0
686,1.0
687,1.0
688,2.0
2,1, 1,21, 0,13,40.00,50.00,WinterDesignDay
250,-16.003403355126427
251,33258891.428687435
336,0.0
385,17.95210586697378
386,28.908790864815025
387,-18.476396294911005
388,0.0
425,0.0
450,0.0
451,0.0
452,-19.336182640373934
453,0.0
490,0.0
515,0.0
516,0.0
542,0.0
592,0.0
632,33000000.0
686,1.0
687,1.0
688,2.0
2,1, 1,21, 0,13,50.00,60.00,WinterDesignDay
250,-16.003403355339955
251,33258891.42868591
336,0.0
385,17.95210586697378
386,28.908790864815025
387,-18.47639684202452
388,0.0
425,0.0
450,0.0
451,0.0
452,-19.336182717076493
453,0.0
490,0.0
515,0.0
516,0.0
542,0.0
592,0.0
632,33000000.0
686,1.0
687,1.0
688,2.0
2,1, 1,21, 0,14, 0.00,10.00,WinterDesignDay
250,-16.003403355550684
251,33258891.42868441
336,0.0
385,17.95210586697378
386,28.908790864815025
387,-18.47639738200762
388,0.0
425,0.0
450,0.0
451,0.0
452,-19.336182792779294
453,0.0
490,0.0
515,0.0
516,0.0
542,0.0
592,0.0
632,33000000.0
686,1.0
687,1.0
688,2.0
2,1, 1,21, 0,14,10.00,20.00,WinterDesignDay
250,-16.00340335575865
251,33258891.42868293
336,0.0
385,17.95210586697378
386,28.908790864815025
387,-18.476397914953182
388,0.0
425,0.0
450,0.0
451,0.0
452,-19.336182867495374
453,0.0
490,0.0
515,0.0
516,0.0
542,0.0
592,0.0
632,33000000.0
686,1.0
687,1.0
688,2.0
2,1, 1,21, 0,14,20.00,30.00,WinterDesignDay
250,-16.003403355963883
251,33258891.428681463
336,0.0
385,17.95210586697378
386,28.908790864815025
387,-18.476398440952796
388,0.0
425,0.0
450,0.0
451,0.0
452,-19.336182941237595
453,0.0
490,0.0
515,0.0
516,0.0
542,0.0
592,0.0
632,33000000.0
686,1.0
687,1.0
688,2.0
2,1, 1,21, 0,14,30.00,40.00,WinterDesignDay
250,-16.00340335616643
251,33258891.42868002
336,0.0
385,17.95210586697378
386,28.908790864815025
387,-18.476398960096834
388,0.0
425,0.0
450,0.0
451,0.0
452,-19.336183014018648
453,0.0
490,0.0
515,0.0
516,0.0
542,0.0
592,0.0
632,33000000.0
686,1.0
687,1.0
688,2.0
2,1, 1,21, 0,14,40.00,50.00,WinterDesignDay
250,-16.00340335636632
251,33258891.4286786
336,0.0
385,17.95210586697378
386,28.908790864815025
387,-18.476399472474725
388,0.0
425,0.0
450,0.0
451,0.0
452,-19.336183085851058
453,0.0
490,0.0
515,0.0
516,0.0
542,0.0
592,0.0
632,33000000.0
686,1.0
687,1.0
688,2.0
2,1, 1,21, 0,14,50.00,60.00,WinterDesignDay
250,-16.003403356563588
251,33258891.428677198
336,0.0
385,17.95210586697378
386,28.908790864815025
387,-18.476399978174726
388,0.0
425,0.0
450,0.0
451,0.0
452,-19.336183156747197
453,0.0
490,0.0
515,0.0
516,0.0
542,0.0
592,0.0
632,33000000.0
686,1.0
687,1.0
688,2.0
2,1, 1,21, 0,15, 0.00,10.00,WinterDesignDay
250,-16.00340335675827
251,33258891.428675808
336,0.0
385,17.95210586697378
386,28.908790864815025
387,-18.476400477283775
388,0.0
425,0.0
450,0.0
451,0.0
452,-19.336183226719267
453,0.0
490,0.0
515,0.0
516,0.0
542,0.0
592,0.0
632,33000000.0
686,1.0
687,1.0
688,2.0
2,1, 1,21, 0,15,10.00,20.00,WinterDesignDay
250,-16.003403356950397
251,33258891.428674445
336,0.0
385,17.95210586697378
386,28.908790864815025
387,-18.47640096988774
388,0.0
425,0.0
450,0.0
451,0.0
452,-19.336183295779314
453,0.0
490,0.0
515,0.0
516,0.0
542,0.0
592,0.0
632,33000000.0
686,1.0
687,1.0
688,2.0
2,1, 1,21, 0,15,20.00,30.00,WinterDesignDay
250,-16.00340335714001
251,33258891.42867309
336,0.0
385,17.95210586697378
386,28.908790864815025
387,-18.47640145607158
388,0.0
425,0.0
450,0.0
451,0.0
452,-19.336183363939224
453,0.0
490,0.0
515,0.0
516,0.0
542,0.0
592,0.0
632,33000000.0
686,1.0
687,1.0
688,2.0
2,1, 1,21, 0,15,30.00,40.00,WinterDesignDay
250,-16.003403357327134
251,33258891.428671755
336,0.0
385,17.95210586697378
386,28.908790864815025
387,-18.4764019359192
388,0.0
425,0.0
450,0.0
451,0.0
452,-19.336183431210735
453,0.0
490,0.0
515,0.0
516,0.0
542,0.0
592,0.0
632,33000000.0
686,1.0
687,1.0
688,2.0
2,1, 1,21, 0,15,40.00,50.00,WinterDesignDay
250,-16.003403357511807
251,33258891.42867044
336,0.0
385,17.95210586697378
386,28.908790864815025
387,-18.476402409512936
388,0.0
425,0.0
450,0.0
451,0.0
452,-19.33618349760542
453,0.0
490,0.0
515,0.0
516,0.0
542,0.0
592,0.0
632,33000000.0
686,1.0
687,1.0
688,2.0