Program Version,EnergyPlus, Version 24.2.0-94a887817b, YMD=2025.01.30 20:37
1,5,Environment Title[],Latitude[deg],Longitude[deg],Time Zone[],Elevation[m]
2,8,Day of Simulation[],Month[],Day of Month[],DST Indicator[1=yes 0=no],Hour[],StartMinute[],EndMinute[],DayType
3,5,Cumulative Day of Simulation[],Month[],Day of Month[],DST Indicator[1=yes 0=no],DayType  ! When Daily Meters Requested
4,2,Cumulative Days of Simulation[],Month[]  ! When Monthly Meters Requested
5,1,Cumulative Days of Simulation[] ! When Run Period Meters Requested
6,1,Calendar Year of Simulation[] ! When Annual Meters Requested
11,9,Electricity:Facility [J] !Monthly [Value,Min,Day,Hour,Minute,Max,Day,Hour,Minute]
23,9,Electricity:Building [J] !Monthly [Value,Min,Day,Hour,Minute,Max,Day,Hour,Minute]
59,9,InteriorLights:Electricity [J] !Monthly [Value,Min,Day,Hour,Minute,Max,Day,Hour,Minute]
521,9,Electricity:HVAC [J] !Monthly [Value,Min,Day,Hour,Minute,Max,Day,Hour,Minute]
637,9,NaturalGas:Facility [J] !Monthly [Value,Min,Day,Hour,Minute,Max,Day,Hour,Minute]
649,9,NaturalGas:HVAC [J] !Monthly [Value,Min,Day,Hour,Minute,Max,Day,Hour,Minute]
13,11,Electricity:Facility [J] !RunPeriod [Value,Min,Month,Day,Hour,Minute,Max,Month,Day,Hour,Minute]
25,11,Electricity:Building [J] !RunPeriod [Value,Min,Month,Day,Hour,Minute,Max,Month,Day,Hour,Minute]
61,11,InteriorLights:Electricity [J] !RunPeriod [Value,Min,Month,Day,Hour,Minute,Max,Month,Day,Hour,Minute]
523,11,Electricity:HVAC [J] !RunPeriod [Value,Min,Month,Day,Hour,Minute,Max,Month,Day,Hour,Minute]
639,11,NaturalGas:Facility [J] !RunPeriod [Value,Min,Month,Day,Hour,Minute,Max,Month,Day,Hour,Minute]
651,11,NaturalGas:HVAC [J] !RunPeriod [Value,Min,Month,Day,Hour,Minute,Max,Month,Day,Hour,Minute]
End of Data Dictionary
1,RUN PERIOD 1,  41.98, -87.92,  -6.00, 201.00
4,31, 1
11,9403266918.934336,528803.5069947898,14,24,50,3500894.9588429597, 9,12,50
23,1870257897.0242112,130527.67750134098,17,19,10,991177.9503018303, 7, 9,10
59,970200000.0,30000.0, 1, 1,10,600000.0, 1, 8,10
521,7533009021.91022,0.0,17,12,60,2587264.888111684,12, 5,10
637,31007640670.35524,0.0, 9,13,60,26513625.345370404,27, 7,50
649,31007640670.35524,0.0, 9,13,60,26513625.345370404,27, 7,50
4,59, 2
11,8408455407.695308,121096.81047580102,23,14,50,3505314.2444457756,25, 9,40
23,1631801575.2492871,116761.9492406024,23,14,60,-99999999999999.0, 7, 9,10
59,848160000.0,99999999999999.0, 1, 1,10,-99999999999999.0, 1, 8,10
521,6776653832.446013,99999999999999.0,17,12,60,2591601.2081883727,17,15,10
637,21032858276.18435,99999999999999.0, 9,13,60,-99999999999999.0,27, 7,50
649,21032858276.18435,99999999999999.0, 9,13,60,-99999999999999.0,27, 7,50
4,90, 3
11,7680951145.900802,97227.05677237902,27,19,60,-99999999999999.0,25, 9,40
23,1684866752.310281,97227.05677237902,27,19,60,-99999999999999.0, 7, 9,10
59,897480000.0,99999999999999.0, 1, 1,10,-99999999999999.0, 1, 8,10
521,5996084393.5905285,99999999999999.0,17,12,60,-99999999999999.0,17,15,10
637,10004902042.407385,99999999999999.0, 9,13,60,-99999999999999.0,27, 7,50
649,10004902042.407385,99999999999999.0, 9,13,60,-99999999999999.0,27, 7,50
4,120, 4
11,5270612188.703984,95234.36075405733,17,20,10,-99999999999999.0,25, 9,40
23,1637751651.9638128,30000.0,18,19,30,-99999999999999.0, 7, 9,10
59,929520000.0,99999999999999.0, 1, 1,10,-99999999999999.0, 1, 8,10
521,3632860536.740163,99999999999999.0,17,12,60,-99999999999999.0,17,15,10
637,5696672488.812439,99999999999999.0, 9,13,60,-99999999999999.0,27, 7,50
649,5696672488.812439,99999999999999.0, 9,13,60,-99999999999999.0,27, 7,50
4,151, 5
11,2887538209.045567,30000.0, 4,10,60,-99999999999999.0,25, 9,40
23,1640265111.6184168,99999999999999.0,18,19,30,-99999999999999.0, 7, 9,10
59,970200000.0,99999999999999.0, 1, 1,10,-99999999999999.0, 1, 8,10
521,1247273097.4271603,99999999999999.0,17,12,60,-99999999999999.0,17,15,10
637,1374892336.33852,99999999999999.0, 9,13,60,-99999999999999.0,27, 7,50
649,1374892336.33852,99999999999999.0, 9,13,60,-99999999999999.0,27, 7,50
4,181, 6
11,2241128102.4227896,99999999999999.0, 4,10,60,-99999999999999.0,25, 9,40
23,1423505907.353629,99999999999999.0,18,19,30,-99999999999999.0, 7, 9,10
59,856800000.0,99999999999999.0, 1, 1,10,-99999999999999.0, 1, 8,10
521,817622195.0691655,99999999999999.0,17,12,60,-99999999999999.0,17,15,10
637,136066076.2197958,99999999999999.0, 9,13,60,-99999999999999.0,27, 7,50
649,136066076.2197958,99999999999999.0, 9,13,60,-99999999999999.0,27, 7,50
4,212, 7
11,2778772125.5144095,99999999999999.0, 4,10,60,-99999999999999.0,25, 9,40
23,1535279582.7127585,99999999999999.0,18,19,30,-99999999999999.0, 7, 9,10
59,970200000.0,99999999999999.0, 1, 1,10,-99999999999999.0, 1, 8,10
521,1243492542.8016436,99999999999999.0,17,12,60,-99999999999999.0,17,15,10
637,8656101.476542726,99999999999999.0, 9,13,60,-99999999999999.0,27, 7,50
649,8656101.476542726,99999999999999.0, 9,13,60,-99999999999999.0,27, 7,50
4,243, 8
11,2211159429.672611,99999999999999.0, 4,10,60,-99999999999999.0,25, 9,40
23,1532559795.4754627,99999999999999.0,18,19,30,-99999999999999.0, 7, 9,10
59,933840000.0,99999999999999.0, 1, 1,10,-99999999999999.0, 1, 8,10
521,678599634.1971414,99999999999999.0,17,12,60,-99999999999999.0,17,15,10
637,27336948.5788132,99999999999999.0, 9,13,60,-99999999999999.0,27, 7,50
649,27336948.5788132,99999999999999.0, 9,13,60,-99999999999999.0,27, 7,50
4,273, 9
11,2244056962.495522,99999999999999.0, 4,10,60,-99999999999999.0,25, 9,40
23,1493994296.0548964,99999999999999.0,18,19,30,-99999999999999.0, 7, 9,10
59,893160000.0,99999999999999.0, 1, 1,10,-99999999999999.0, 1, 8,10
521,750062666.4406307,99999999999999.0,17,12,60,-99999999999999.0,17,15,10
637,454960781.0366899,99999999999999.0, 9,13,60,-99999999999999.0,27, 7,50
649,454960781.0366899,99999999999999.0, 9,13,60,-99999999999999.0,27, 7,50
4,304,10
11,4171848802.0342636,99999999999999.0, 4,10,60,-99999999999999.0,25, 9,40
23,1694553069.2375116,99999999999999.0,18,19,30,-99999999999999.0, 7, 9,10
59,970200000.0,99999999999999.0, 1, 1,10,-99999999999999.0, 1, 8,10
521,2477295732.796745,99999999999999.0,17,12,60,-99999999999999.0,17,15,10
637,3790923384.847337,99999999999999.0, 9,13,60,-99999999999999.0,27, 7,50
649,3790923384.847337,99999999999999.0, 9,13,60,-99999999999999.0,27, 7,50
4,334,11
11,6991920756.187903,99999999999999.0, 4,10,60,-99999999999999.0,25, 9,40
23,1650549035.8653677,99999999999999.0,18,19,30,-99999999999999.0, 7, 9,10
59,893160000.0,99999999999999.0, 1, 1,10,-99999999999999.0, 1, 8,10
521,5341371720.322534,99999999999999.0,17,12,60,-99999999999999.0,17,15,10
637,11825176176.559116,99999999999999.0, 9,13,60,-99999999999999.0,27, 7,50
649,11825176176.559116,99999999999999.0, 9,13,60,-99999999999999.0,27, 7,50
4,365,12
11,10110756950.410236,99999999999999.0, 4,10,60,-99999999999999.0,25, 9,40
23,1799839248.346611,99999999999999.0,18,19,30,-99999999999999.0, 7, 9,10
59,933840000.0,99999999999999.0, 1, 1,10,-99999999999999.0, 1, 8,10
521,8310917702.063701,99999999999999.0,17,12,60,-99999999999999.0,17,15,10
637,25401427068.47065,99999999999999.0, 9,13,60,-99999999999999.0,27, 7,50
649,25401427068.47065,99999999999999.0, 9,13,60,-99999999999999.0,27, 7,50
5,365
13,64400466999.01801,30000.0, 5, 4,10,60,3505314.2444457756, 2,25, 9,40
25,19595223923.211544,30000.0, 4,18,19,30,991177.9503018303, 1, 7, 9,10
61,11066760000.0,30000.0, 1, 1, 1,10,600000.0, 1, 1, 8,10
523,44805243075.80609,0.0, 1,17,12,60,2591601.2081883727, 2,17,15,10
639,110761512351.2868,0.0, 1, 9,13,60,26513625.345370404, 1,27, 7,50
651,110761512351.2868,0.0, 1, 9,13,60,26513625.345370404, 1,27, 7,50
1,RUN PERIOD 2,  41.98, -87.92,  -6.00, 201.00
4,1, 7
11,84542477.08569652,99999999999999.0, 4,10,60,-99999999999999.0,25, 9,40
23,63443707.43354825,99999999999999.0,18,19,30,-99999999999999.0, 7, 9,10
59,40680000.0,99999999999999.0, 1, 1,10,-99999999999999.0, 1, 8,10
521,21098769.6521483,99999999999999.0,17,12,60,-99999999999999.0,17,15,10
637,0.0,99999999999999.0, 9,13,60,-99999999999999.0,27, 7,50
649,0.0,99999999999999.0, 9,13,60,-99999999999999.0,27, 7,50
5,1
13,84542477.08569652,99999999999999.0, 5, 4,10,60,-99999999999999.0, 2,25, 9,40
25,63443707.43354825,99999999999999.0, 4,18,19,30,-99999999999999.0, 1, 7, 9,10
61,40680000.0,99999999999999.0, 1, 1, 1,10,-99999999999999.0, 1, 1, 8,10
523,21098769.6521483,99999999999999.0, 1,17,12,60,-99999999999999.0, 2,17,15,10
639,0.0,99999999999999.0, 1, 9,13,60,-99999999999999.0, 1,27, 7,50
651,0.0,99999999999999.0, 1, 9,13,60,-99999999999999.0, 1,27, 7,50
End of Data
 Number of Records Written=          90
