Program Version,EnergyPlus, Version 24.2.0-94a887817b, YMD=2025.01.22 00:04
1,5,Environment Title[],Latitude[deg],Longitude[deg],Time Zone[],Elevation[m]
2,8,Day of Simulation[],Month[],Day of Month[],DST Indicator[1=yes 0=no],Hour[],StartMinute[],EndMinute[],DayType
3,5,Cumulative Day of Simulation[],Month[],Day of Month[],DST Indicator[1=yes 0=no],DayType  ! When Daily Meters Requested
4,2,Cumulative Days of Simulation[],Month[]  ! When Monthly Meters Requested
5,1,Cumulative Days of Simulation[] ! When Run Period Meters Requested
6,1,Calendar Year of Simulation[] ! When Annual Meters Requested
11,9,Electricity:Facility [J] !Monthly [Value,Min,Day,Hour,Minute,Max,Day,Hour,Minute]
23,9,Electricity:Building [J] !Monthly [Value,Min,Day,Hour,Minute,Max,Day,Hour,Minute]
59,9,InteriorLights:Electricity [J] !Monthly [Value,Min,Day,Hour,Minute,Max,Day,Hour,Minute]
521,9,Electricity:HVAC [J] !Monthly [Value,Min,Day,Hour,Minute,Max,Day,Hour,Minute]
637,9,NaturalGas:Facility [J] !Monthly [Value,Min,Day,Hour,Minute,Max,Day,Hour,Minute]
649,9,NaturalGas:HVAC [J] !Monthly [Value,Min,Day,Hour,Minute,Max,Day,Hour,Minute]
13,11,Electricity:Facility [J] !RunPeriod [Value,Min,Month,Day,Hour,Minute,Max,Month,Day,Hour,Minute]
25,11,Electricity:Building [J] !RunPeriod [Value,Min,Month,Day,Hour,Minute,Max,Month,Day,Hour,Minute]
61,11,InteriorLights:Electricity [J] !RunPeriod [Value,Min,Month,Day,Hour,Minute,Max,Month,Day,Hour,Minute]
523,11,Electricity:HVAC [J] !RunPeriod [Value,Min,Month,Day,Hour,Minute,Max,Month,Day,Hour,Minute]
639,11,NaturalGas:Facility [J] !RunPeriod [Value,Min,Month,Day,Hour,Minute,Max,Month,Day,Hour,Minute]
651,11,NaturalGas:HVAC [J] !RunPeriod [Value,Min,Month,Day,Hour,Minute,Max,Month,Day,Hour,Minute]
End of Data Dictionary
1,RUN PERIOD 1,  41.98, -87.92,  -6.00, 201.00
4,31, 1
11,9821952445.716047,408891.4285714286, 5, 6,50,2978677.837234348,16,13,60
23,982902344.4850094,30000.0, 1, 1,10,609204.5974529231, 1, 9,10
59,970200000.0,30000.0, 1, 1,10,600000.0, 1, 8,10
521,8839050101.230986,378891.4285714286, 5, 6,50,2369473.239781425,16,13,60
637,179188805758.6818,28342132.893905297,21,16,10,41250000.0, 1, 1,10
649,179188805758.6818,28342132.893905297,21,16,10,41250000.0, 1, 1,10
4,59, 2
11,9355581638.007372,99999999999999.0, 5, 6,50,3020139.27749747,22,15,30
23,859205516.9434906,99999999999999.0, 1, 1,10,-99999999999999.0, 1, 9,10
59,848160000.0,99999999999999.0, 1, 1,10,-99999999999999.0, 1, 8,10
521,8496376121.063895,99999999999999.0, 5, 6,50,2410934.680044547,22,15,30
637,158617797108.56476,26650489.49417362,23,12,10,-99999999999999.0, 1, 1,10
649,158617797108.56476,26650489.49417362,23,12,10,-99999999999999.0, 1, 1,10
4,90, 3
11,10994964768.699326,99999999999999.0, 5, 6,50,3257096.216701176,27,15,60
23,909077792.7906634,99999999999999.0, 1, 1,10,-99999999999999.0, 1, 9,10
59,897480000.0,99999999999999.0, 1, 1,10,-99999999999999.0, 1, 8,10
521,10085886975.908598,0.0,27,16,10,2647891.6192482533,27,15,60
637,163114205238.96988,0.0,27,16,10,-99999999999999.0, 1, 1,10
649,163114205238.96988,0.0,27,16,10,-99999999999999.0, 1, 1,10
4,120, 4
11,9624040123.616484,30000.0,11,19,10,3257127.3075885233,11,12,60
23,941670068.6378367,99999999999999.0, 1, 1,10,-99999999999999.0, 1, 9,10
59,929520000.0,99999999999999.0, 1, 1,10,-99999999999999.0, 1, 8,10
521,8682370054.978598,99999999999999.0,27,16,10,2650819.538872512,17, 8,50
637,122671670245.12833,99999999999999.0,27,16,10,-99999999999999.0, 1, 1,10
649,122671670245.12833,99999999999999.0,27,16,10,-99999999999999.0, 1, 1,10
4,151, 5
11,9130245946.686602,99999999999999.0,11,19,10,3257549.9818121577,27,10,10
23,983218359.3976662,99999999999999.0, 1, 1,10,625135.7005153948,28,13,10
59,970200000.0,99999999999999.0, 1, 1,10,-99999999999999.0, 1, 8,10
521,8147027587.288941,99999999999999.0,27,16,10,-99999999999999.0,17, 8,50
637,96658018427.57378,99999999999999.0,27,16,10,-99999999999999.0, 1, 1,10
649,96658018427.57378,99999999999999.0,27,16,10,-99999999999999.0, 1, 1,10
4,181, 6
11,6554355851.042935,99999999999999.0,11,19,10,-99999999999999.0,27,10,10
23,867931809.2677883,99999999999999.0, 1, 1,10,-99999999999999.0,28,13,10
59,856800000.0,99999999999999.0, 1, 1,10,-99999999999999.0, 1, 8,10
521,5686424041.775077,99999999999999.0,27,16,10,-99999999999999.0,17, 8,50
637,45951383357.713234,99999999999999.0,27,16,10,-99999999999999.0, 1, 1,10
649,45951383357.713234,99999999999999.0,27,16,10,-99999999999999.0, 1, 1,10
4,212, 7
11,5487995037.297668,99999999999999.0,11,19,10,-99999999999999.0,27,10,10
23,983180031.2313365,99999999999999.0, 1, 1,10,-99999999999999.0,28,13,10
59,970200000.0,99999999999999.0, 1, 1,10,-99999999999999.0, 1, 8,10
521,4504815006.066274,99999999999999.0,27,16,10,2651736.1538988436, 6,24,60
637,19521169494.06669,99999999999999.0,27,16,10,-99999999999999.0, 1, 1,10
649,19521169494.06669,99999999999999.0,27,16,10,-99999999999999.0, 1, 1,10
4,243, 8
11,4994231405.985092,99999999999999.0,11,19,10,-99999999999999.0,27,10,10
23,946268406.7142891,99999999999999.0, 1, 1,10,625234.4498840931,12,14,10
59,933840000.0,99999999999999.0, 1, 1,10,-99999999999999.0, 1, 8,10
521,4047962999.2706513,99999999999999.0,27,16,10,-99999999999999.0, 6,24,60
637,32946664494.731167,99999999999999.0,27,16,10,-99999999999999.0, 1, 1,10
649,32946664494.731167,99999999999999.0,27,16,10,-99999999999999.0, 1, 1,10
4,273, 9
11,7770993084.126718,99999999999999.0,11,19,10,-99999999999999.0,27,10,10
23,904757792.7906637,99999999999999.0, 1, 1,10,-99999999999999.0,12,14,10
59,893160000.0,99999999999999.0, 1, 1,10,-99999999999999.0, 1, 8,10
521,6866235291.335989,99999999999999.0,27,16,10,-99999999999999.0, 6,24,60
637,71916999808.46649,99999999999999.0,27,16,10,-99999999999999.0, 1, 1,10
649,71916999808.46649,99999999999999.0,27,16,10,-99999999999999.0, 1, 1,10
4,304,10
11,10730019668.46933,99999999999999.0,11,19,10,3259233.2507658955, 9,13,50
23,982920134.4046648,99999999999999.0, 1, 1,10,626994.517108156,22,16,40
59,970200000.0,99999999999999.0, 1, 1,10,-99999999999999.0, 1, 8,10
521,9747099534.064604,99999999999999.0,27,16,10,-99999999999999.0, 6,24,60
637,130420264773.5991,99999999999999.0,27,16,10,-99999999999999.0, 1, 1,10
649,130420264773.5991,99999999999999.0,27,16,10,-99999999999999.0, 1, 1,10
4,334,11
11,10503389108.07736,99999999999999.0,11,19,10,-99999999999999.0, 9,13,50
23,904757792.7906634,99999999999999.0, 1, 1,10,-99999999999999.0,22,16,40
59,893160000.0,99999999999999.0, 1, 1,10,-99999999999999.0, 1, 8,10
521,9598631315.286678,99999999999999.0,27,16,10,-99999999999999.0, 6,24,60
637,148404522219.1535,99999999999999.0,27,16,10,-99999999999999.0, 1, 1,10
649,148404522219.1535,99999999999999.0,27,16,10,-99999999999999.0, 1, 1,10
4,365,12
11,10434940689.02169,99999999999999.0,11,19,10,-99999999999999.0, 9,13,50
23,945990068.6378365,99999999999999.0, 1, 1,10,-99999999999999.0,22,16,40
59,933840000.0,99999999999999.0, 1, 1,10,-99999999999999.0, 1, 8,10
521,9488950620.383821,99999999999999.0,27,16,10,-99999999999999.0, 6,24,60
637,180043306623.04977,99999999999999.0,27,16,10,-99999999999999.0, 1, 1,10
649,180043306623.04977,99999999999999.0,27,16,10,-99999999999999.0, 1, 1,10
5,365
13,105402709766.74417,30000.0, 4,11,19,10,3259233.2507658955,10, 9,13,50
25,11211880118.091028,30000.0, 1, 1, 1,10,626994.517108156,10,22,16,40
61,11066760000.0,30000.0, 1, 1, 1,10,600000.0, 1, 1, 8,10
523,94190829648.65892,0.0, 3,27,16,10,2651736.1538988436, 7, 6,24,60
639,1349454807549.6907,0.0, 3,27,16,10,41250000.0, 1, 1, 1,10
651,1349454807549.6907,0.0, 3,27,16,10,41250000.0, 1, 1, 1,10
1,RUN PERIOD 2,  41.98, -87.92,  -6.00, 201.00
4,1, 7
11,88379796.7979703,99999999999999.0,11,19,10,-99999999999999.0, 9,13,50
23,41232275.84717541,99999999999999.0, 1, 1,10,-99999999999999.0,22,16,40
59,40680000.0,99999999999999.0, 1, 1,10,-99999999999999.0, 1, 8,10
521,47147520.95079489,99999999999999.0,27,16,10,-99999999999999.0, 6,24,60
637,0.0,99999999999999.0,27,16,10,-99999999999999.0, 1, 1,10
649,0.0,99999999999999.0,27,16,10,-99999999999999.0, 1, 1,10
5,1
13,88379796.7979703,99999999999999.0, 4,11,19,10,-99999999999999.0,10, 9,13,50
25,41232275.84717541,99999999999999.0, 1, 1, 1,10,-99999999999999.0,10,22,16,40
61,40680000.0,99999999999999.0, 1, 1, 1,10,-99999999999999.0, 1, 1, 8,10
523,47147520.95079489,99999999999999.0, 3,27,16,10,-99999999999999.0, 7, 6,24,60
639,0.0,99999999999999.0, 3,27,16,10,-99999999999999.0, 1, 1, 1,10
651,0.0,99999999999999.0, 3,27,16,10,-99999999999999.0, 1, 1, 1,10
End of Data
 Number of Records Written=          90
