Program Version,EnergyPlus, Version 24.2.0-94a887817b, YMD=2025.01.22 00:06
1,5,Environment Title[],Latitude[deg],Longitude[deg],Time Zone[],Elevation[m]
2,8,Day of Simulation[],Month[],Day of Month[],DST Indicator[1=yes 0=no],Hour[],StartMinute[],EndMinute[],DayType
3,5,Cumulative Day of Simulation[],Month[],Day of Month[],DST Indicator[1=yes 0=no],DayType  ! When Daily Report Variables Requested
4,2,Cumulative Days of Simulation[],Month[]  ! When Monthly Report Variables Requested
5,1,Cumulative Days of Simulation[] ! When Run Period Report Variables Requested
6,1,Calendar Year of Simulation[] ! When Annual Report Variables Requested
250,1,LIVING ZONE,Zone Air Temperature [C] !TimeStep,REPORTSCH
251,1,LIVING ZONE,Zone Air System Sensible Heating Energy [J] !TimeStep,REPORTSCH
336,1,LIVING ZONE,Zone Air System Sensible Cooling Energy [J] !TimeStep,REPORTSCH
385,1,LIVING ZONE,Zone Thermostat Heating Setpoint Temperature [C] !TimeStep,REPORTSCH
386,1,LIVING ZONE,Zone Thermostat Cooling Setpoint Temperature [C] !TimeStep,REPORTSCH
387,1,GARAGE ZONE,Zone Air Temperature [C] !TimeStep,REPORTSCH
388,1,GARAGE ZONE,Zone Air System Sensible Heating Energy [J] !TimeStep,REPORTSCH
425,1,GARAGE ZONE,Zone Air System Sensible Cooling Energy [J] !TimeStep,REPORTSCH
450,1,GARAGE ZONE,Zone Thermostat Heating Setpoint Temperature [C] !TimeStep,REPORTSCH
451,1,GARAGE ZONE,Zone Thermostat Cooling Setpoint Temperature [C] !TimeStep,REPORTSCH
452,1,ATTIC ZONE,Zone Air Temperature [C] !TimeStep,REPORTSCH
453,1,ATTIC ZONE,Zone Air System Sensible Heating Energy [J] !TimeStep,REPORTSCH
490,1,ATTIC ZONE,Zone Air System Sensible Cooling Energy [J] !TimeStep,REPORTSCH
515,1,ATTIC ZONE,Zone Thermostat Heating Setpoint Temperature [C] !TimeStep,REPORTSCH
516,1,ATTIC ZONE,Zone Thermostat Cooling Setpoint Temperature [C] !TimeStep,REPORTSCH
542,1,ACDXCOIL 1,Cooling Coil Total Cooling Energy [J] !TimeStep,REPORTSCH
592,1,HEAT PUMP DX HEATING COIL 1,Heating Coil Heating Energy [J] !TimeStep,REPORTSCH
632,1,SUPP HEATING COIL 1,Heating Coil Heating Energy [J] !TimeStep,REPORTSCH
686,1,TWOSPEED HEAT PUMP 1,Unitary System DX Coil Cycling Ratio [] !TimeStep,REPORTSCH
687,1,TWOSPEED HEAT PUMP 1,Unitary System DX Coil Speed Ratio [] !TimeStep,REPORTSCH
688,1,TWOSPEED HEAT PUMP 1,Unitary System DX Coil Speed Level [] !TimeStep,REPORTSCH
End of Data Dictionary
1,RUN PERIOD 1,  41.98, -87.92,  -6.00, 201.00
2,21, 1,21, 0, 1, 0.00,10.00,Monday
250,-0.8734230493906361
251,38098190.72460044
336,0.0
385,19.598595981798972
386,28.618791254100433
387,-0.9484967858332883
388,0.0
425,0.0
450,0.0
451,0.0
452,-1.9759528805254918
453,0.0
490,0.0
515,0.0
516,0.0
542,0.0
592,4839743.985079642
632,33000000.0
686,1.0
687,1.0
688,2.0
2,21, 1,21, 0, 1,10.00,20.00,Monday
250,-0.8735547324649185
251,38082763.991342895
336,0.0
385,19.598595981798972
386,28.618791254100433
387,-0.9568550162058685
388,0.0
425,0.0
450,0.0
451,0.0
452,-1.957803048824234
453,0.0
490,0.0
515,0.0
516,0.0
542,0.0
592,4823801.676011795
632,33000000.0
686,1.0
687,1.0
688,2.0
2,21, 1,21, 0, 1,20.00,30.00,Monday
250,-0.8737174244774466
251,38066837.174579225
336,0.0
385,19.598595981798972
386,28.618791254100433
387,-0.966449602524282
388,0.0
425,0.0
450,0.0
451,0.0
452,-1.9547253760879564
453,0.0
490,0.0
515,0.0
516,0.0
542,0.0
592,4807858.162905221
632,33000000.0
686,1.0
687,1.0
688,2.0
2,21, 1,21, 0, 1,30.00,40.00,Monday
250,-0.8738770034893449
251,38050890.78518093
336,0.0
385,19.598595981798972
386,28.618791254100433
387,-0.9774852563261219
388,0.0
425,0.0
450,0.0
451,0.0
452,-1.9676022948926357
453,0.0
490,0.0
515,0.0
516,0.0
542,0.0
592,4791913.445623511
632,33000000.0
686,1.0
687,1.0
688,2.0
2,21, 1,21, 0, 1,40.00,50.00,Monday
250,-0.874037816376251
251,38034945.53161587
336,0.0
385,19.598595981798972
386,28.618791254100433
387,-0.9901192244929189
388,0.0
425,0.0
450,0.0
451,0.0
452,-1.9948121237947312
453,0.0
490,0.0
515,0.0
516,0.0
542,0.0
592,4775967.524030239
632,33000000.0
686,1.0
687,1.0
688,2.0
2,21, 1,21, 0, 1,50.00,60.00,Monday
250,-0.8741991311087117
251,38018998.67953124
336,0.0
385,19.598595981798972
386,28.618791254100433
387,-1.0045402608975373
388,0.0
425,0.0
450,0.0
451,0.0
452,-2.0348263874565644
453,0.0
490,0.0
515,0.0
516,0.0
542,0.0
592,4760020.397988958
632,33000000.0
686,1.0
687,1.0
688,2.0
2,21, 1,21, 0, 2, 0.00,10.00,Monday
250,-0.8742655483986391
251,38018947.58764278
336,0.0
385,19.598595981798972
386,28.618791254100433
387,-1.020065297364081
388,0.0
425,0.0
450,0.0
451,0.0
452,-2.0815986543773275
453,0.0
490,0.0
515,0.0
516,0.0
542,0.0
592,4760020.397988958
632,33000000.0
686,1.0
687,1.0
688,2.0
2,21, 1,21, 0, 2,10.00,20.00,Monday
250,-0.8743299258782217
251,38018946.48936086
336,0.0
385,19.598595981798972
386,28.618791254100433
387,-1.0357506978620132
388,0.0
425,0.0
450,0.0
451,0.0
452,-2.1243363617745423
453,0.0
490,0.0
515,0.0
516,0.0
542,0.0
592,4760020.397988958
632,33000000.0
686,1.0
687,1.0
688,2.0
2,21, 1,21, 0, 2,20.00,30.00,Monday
250,-0.8743940625213042
251,38018946.35968152
336,0.0
385,19.598595981798972
386,28.618791254100433
387,-1.05104241134046
388,0.0
425,0.0
450,0.0
451,0.0
452,-2.1558091242533024
453,0.0
490,0.0
515,0.0
516,0.0
542,0.0
592,4760020.397988958
632,33000000.0
686,1.0
687,1.0
688,2.0
2,21, 1,21, 0, 2,30.00,40.00,Monday
250,-0.8744569750277997
251,38018945.7005706
336,0.0
385,19.598595981798972
386,28.618791254100433
387,-1.0656190093202296
388,0.0
425,0.0
450,0.0
451,0.0
452,-2.1751928337684685
453,0.0
490,0.0
515,0.0
516,0.0
542,0.0
592,4760020.397988958
632,33000000.0
686,1.0
687,1.0
688,2.0
2,21, 1,21, 0, 2,40.00,50.00,Monday
250,-0.8745189511123782
251,38018945.19637257
336,0.0
385,19.598595981798972
386,28.618791254100433
387,-1.0793401002054765
388,0.0
425,0.0
450,0.0
451,0.0
452,-2.1853332506383447
453,0.0
490,0.0
515,0.0
516,0.0
542,0.0
592,4760020.397988958
632,33000000.0
686,1.0
687,1.0
688,2.0
2,21, 1,21, 0, 2,50.00,60.00,Monday
250,-0.8745798287761924
251,38018944.604949355
336,0.0
385,19.598595981798972
386,28.618791254100433
387,-1.0921683689975834
388,0.0
425,0.0
450,0.0
451,0.0
452,-2.189379225014023
453,0.0
490,0.0
515,0.0
516,0.0
542,0.0
592,4760020.397988958
632,33000000.0
686,1.0
687,1.0
688,2.0
2,21, 1,21, 0, 3, 0.00,10.00,Monday
250,-0.7921116826467416
251,37977046.96024217
336,0.0
385,19.598595981798972
386,28.618791254100433
387,-1.0937135744656608
388,0.0
425,0.0
450,0.0
451,0.0
452,-2.181897237022123
453,0.0
490,0.0
515,0.0
516,0.0
542,0.0
592,4762558.894114006
632,33000000.0
686,1.0
687,1.0
688,2.0
2,21, 1,21, 0, 3,10.00,20.00,Monday
250,-0.7085838667179097
251,37978904.10666495
336,0.0
385,19.598595981798972
386,28.618791254100433
387,-1.082660664782761
388,0.0
425,0.0
450,0.0
451,0.0
452,-2.156911492112866
453,0.0
490,0.0
515,0.0
516,0.0
542,0.0
592,4764988.4357309695
632,33000000.0
686,1.0
687,1.0
688,2.0
2,21, 1,21, 0, 3,20.00,30.00,Monday
250,-0.6254301481673165
251,37981423.49098501
336,0.0
385,19.598595981798972
386,28.618791254100433
387,-1.0634158659961532
388,0.0
425,0.0
450,0.0
451,0.0
452,-2.1129748221002194
453,0.0
490,0.0
515,0.0
516,0.0
542,0.0
592,4767308.250738334
632,33000000.0
686,1.0
687,1.0
688,2.0
2,21, 1,21, 0, 3,30.00,40.00,Monday
250,-0.5421811580859912
251,37983579.758490816
336,0.0
385,19.598595981798972
386,28.618791254100433
387,-1.0397735109924988
388,0.0
425,0.0
450,0.0
451,0.0
452,-2.053221094977058
453,0.0
490,0.0
515,0.0
516,0.0
542,0.0
592,4769517.689516207
632,33000000.0
686,1.0
687,1.0
688,2.0
2,21, 1,21, 0, 3,40.00,50.00,Monday
250,-0.45915731186547876
251,37943663.26283794
336,0.0
385,19.598595981798972
386,28.618791254100433
387,-1.0130365293368355
388,0.0
425,0.0
450,0.0
451,0.0
452,-1.982135380990295
453,0.0
490,0.0
515,0.0
516,0.0
542,0.0
592,4771616.115684973
632,32957865.71773513
686,1.0
687,1.0
688,2.0
2,21, 1,21, 0, 3,50.00,60.00,Monday
250,-0.3761421398144218
251,37900561.16560752
336,0.0
385,19.598595981798972
386,28.618791254100433
387,-0.982935639749364
388,0.0
425,0.0
450,0.0
451,0.0
452,-1.9033356570403244
453,0.0
490,0.0
515,0.0
516,0.0
542,0.0
592,4773602.736238396
632,32912774.219896805
686,1.0
687,1.0
688,2.0
2,21, 1,21, 0, 4, 0.00,10.00,Monday
250,-0.3756245044287298
251,37901896.12111236
336,0.0
385,19.598595981798972
386,28.618791254100433
387,-0.9602036827438639
388,0.0
425,0.0
450,0.0
451,0.0
452,-1.82711104522753
453,0.0
490,0.0
515,0.0
516,0.0
542,0.0
592,4773428.982371631
632,32869854.49082319
686,1.0
687,1.0
688,2.0
2,21, 1,21, 0, 4,10.00,20.00,Monday
250,-0.37591050275400095
251,37902103.29285573
336,0.0
385,19.598595981798972
386,28.618791254100433
387,-0.94763375948593
388,0.0
425,0.0
450,0.0
451,0.0
452,-1.7625023976718817
453,0.0
490,0.0
515,0.0
516,0.0
542,0.0
592,4773255.169447958
632,32869802.665737636
686,1.0
687,1.0
688,2.0
2,21, 1,21, 0, 4,20.00,30.00,Monday
250,-0.37580159466840973
251,37902077.38036268
336,0.0
385,19.598595981798972
386,28.618791254100433
387,-0.9416736052168718
388,0.0
425,0.0
450,0.0
451,0.0
452,-1.7131133949351767
453,0.0
490,0.0
515,0.0
516,0.0
542,0.0
592,4773081.29743726
632,32870163.30864416
686,1.0
687,1.0
688,2.0
2,21, 1,21, 0, 4,30.00,40.00,Monday
250,-0.3757774746522544
251,37902104.65494398
336,0.0
385,19.598595981798972
386,28.618791254100433
387,-0.9384373969877798
388,0.0
425,0.0
450,0.0
451,0.0
452,-1.6772828991895583
453,0.0
490,0.0
515,0.0
516,0.0
542,0.0
592,4772907.3663094025
632,32870318.850319307
686,1.0
687,1.0
688,2.0
2,21, 1,21, 0, 4,40.00,50.00,Monday
250,-0.37575787820907197
251,37902132.85295218
336,0.0
385,19.598595981798972
386,28.618791254100433
387,-0.9361443449914106
388,0.0
425,0.0
450,0.0
451,0.0
452,-1.6513396966853986
453,0.0
490,0.0
515,0.0
516,0.0
542,0.0
592,4772733.376034234
632,32870518.602364205
686,1.0
687,1.0
688,2.0
2,21, 1,21, 0, 4,50.00,60.00,Monday
250,-0.37573801884433494
251,37902160.842594646
336,0.0
385,19.598595981798972
386,28.618791254100433
387,-0.9346249123835738
388,0.0
425,0.0
450,0.0
451,0.0
452,-1.632226299980852
453,0.0
490,0.0
515,0.0
516,0.0
542,0.0
592,4772559.326581573
632,32870720.78307138
686,1.0
687,1.0
688,2.0
2,21, 1,21, 0, 5, 0.00,10.00,Monday
250,-0.37571938392672477
251,37902189.519642904
336,0.0
385,19.598595981798972
386,28.618791254100433
387,-0.9339394052905605
388,0.0
425,0.0
450,0.0
451,0.0
452,-1.617327574891898
453,0.0
490,0.0
515,0.0
516,0.0
542,0.0
592,4759720.858689582
632,32883587.268573143
686,1.0
687,1.0
688,2.0
2,21, 1,21, 0, 5,10.00,20.00,Monday
250,-0.3756936219851033
251,37903492.23869872
336,0.0
385,19.598595981798972
386,28.618791254100433
387,-0.9339524993297136
388,0.0
425,0.0
450,0.0
451,0.0
452,-1.6043325501866572
453,0.0
490,0.0
515,0.0
516,0.0
542,0.0
592,4746877.262331868
632,32897737.422863703
686,1.0
687,1.0
688,2.0
2,21, 1,21, 0, 5,20.00,30.00,Monday
250,-0.3756678531171275
251,37904812.163661115
336,0.0
385,19.598595981798972
386,28.618791254100433
387,-0.9344336956613096
388,0.0
425,0.0
450,0.0
451,0.0
452,-1.5918397604013408
453,0.0
490,0.0
515,0.0
516,0.0
542,0.0
592,4734028.534436011
632,32911906.0799408
686,1.0
687,1.0
688,2.0
2,21, 1,21, 0, 5,30.00,40.00,Monday
250,-0.37564222293999994
251,37906126.5535857
336,0.0
385,19.598595981798972
386,28.618791254100433
387,-0.9351786006101227
388,0.0
425,0.0
450,0.0
451,0.0
452,-1.5794164953239127
453,0.0
490,0.0
515,0.0
516,0.0
542,0.0
592,4721174.671927155
632,32926074.258158118
686,1.0
687,1.0
688,2.0
2,21, 1,21, 0, 5,40.00,50.00,Monday
250,-0.37561655803063965
251,37907442.70306565
336,0.0
385,19.598595981798972
386,28.618791254100433
387,-0.93605107473724
388,0.0
425,0.0
450,0.0
451,0.0
452,-1.5671321850984334
453,0.0
490,0.0
515,0.0
516,0.0
542,0.0
592,4708315.671727969
632,32940249.427029945
686,1.0
687,1.0
688,2.0
2,21, 1,21, 0, 5,50.00,60.00,Monday
250,-0.375590796143615
251,37908759.394966744
336,0.0
385,19.598595981798972
386,28.618791254100433
387,-0.9369720777093301
388,0.0
425,0.0
450,0.0
451,0.0
452,-1.5551380944662803
453,0.0
490,0.0
515,0.0
516,0.0
542,0.0
592,4695451.530758674
632,32954430.312623896
686,1.0
687,1.0
688,2.0
2,21, 1,21, 0, 6, 0.00,10.00,Monday
250,-0.3755638773712746
251,37910075.98119402
336,0.0
385,19.598595981798972
386,28.618791254100433
387,-0.938028541841473
388,0.0
425,0.0
450,0.0
451,0.0
452,-1.5441317285419012
453,0.0
490,0.0
515,0.0
516,0.0
542,0.0
592,4695264.08225586
632,32955934.97103498
686,1.0
687,1.0
688,2.0
2,21, 1,21, 0, 6,10.00,20.00,Monday
250,-0.3755443214869612
251,37910117.440150425
336,0.0
385,19.598595981798972
386,28.618791254100433
387,-0.9393038294350621
388,0.0
425,0.0
450,0.0
451,0.0
452,-1.5349274860468127
453,0.0
490,0.0
515,0.0
516,0.0
542,0.0
592,4695076.569900009
632,32956159.976103667
686,1.0
687,1.0
688,2.0
2,21, 1,21, 0, 6,20.00,30.00,Monday
250,-0.37552481251452546
251,37910142.22935921
336,0.0
385,19.598595981798972
386,28.618791254100433
387,-0.9407919106161192
388,0.0
425,0.0
450,0.0
451,0.0
452,-1.5278495803291259
453,0.0
490,0.0
515,0.0
516,0.0
542,0.0
592,4694888.993658494
632,32956372.316293117
686,1.0
687,1.0
688,2.0
2,21, 1,21, 0, 6,30.00,40.00,Monday
250,-0.37550500146920757
251,37910173.0160347
336,0.0
385,19.598595981798972
386,28.618791254100433
387,-0.9424504443112768
388,0.0
425,0.0
450,0.0
451,0.0
452,-1.5226887927302841
453,0.0
490,0.0
515,0.0
516,0.0
542,0.0
592,4694701.353498662
632,32956590.905861817
686,1.0
687,1.0
688,2.0
2,21, 1,21, 0, 6,40.00,50.00,Monday
250,-0.37548493491386903
251,37910202.42783605
336,0.0
385,19.598595981798972
386,28.618791254100433
387,-0.9442473555623595
388,0.0
425,0.0
450,0.0
451,0.0
452,-1.518996618769352
453,0.0
490,0.0
515,0.0
516,0.0
542,0.0
592,4694513.649387832
632,32956808.15942468
686,1.0
687,1.0
688,2.0
2,21, 1,21, 0, 6,50.00,60.00,Monday
250,-0.375464554250333
251,37910231.61866344
336,0.0
385,19.598595981798972
386,28.618791254100433
387,-0.9461654408957588
388,0.0
425,0.0
450,0.0
451,0.0
452,-1.5163540649584413
453,0.0
490,0.0
515,0.0
516,0.0
542,0.0
592,4694325.881293309
632,32957025.287563525
686,1.0
687,1.0
688,2.0
2,21, 1,21, 0, 7, 0.00,10.00,Monday
250,-0.3759786187210628
251,37910548.733359315
336,0.0
385,19.598595981798972
386,28.618791254100433
387,-0.9506253982475825
388,0.0
425,0.0
450,0.0
451,0.0
452,-1.5196293844050306
453,0.0
490,0.0
515,0.0
516,0.0
542,0.0
592,4723573.583255435
632,32927806.80224049
686,1.0
687,1.0
688,2.0
2,21, 1,21, 0, 7,10.00,20.00,Monday
250,-0.37595899613203565
251,37907629.12951295
336,0.0
385,19.598595981798972
386,28.618791254100433
387,-0.9597998519415117
388,0.0
425,0.0
450,0.0
451,0.0
452,-1.5382981445347623
453,0.0
490,0.0
515,0.0
516,0.0
542,0.0
592,4752837.186047653
632,32895911.084495157
686,1.0
687,1.0
688,2.0
2,21, 1,21, 0, 7,20.00,30.00,Monday
250,-0.3759279320839964
251,37904663.27841712
336,0.0
385,19.598595981798972
386,28.618791254100433
387,-0.9739301235148339
388,0.0
425,0.0
450,0.0
451,0.0
452,-1.577728335603228
453,0.0
490,0.0
515,0.0
516,0.0
542,0.0
592,4782116.702651945
632,32863671.878373217
686,1.0
687,1.0
688,2.0
2,21, 1,21, 0, 7,30.00,40.00,Monday
250,-0.3758991034160468
251,37901711.2057722
336,0.0
385,19.598595981798972
386,28.618791254100433
387,-0.9920621371749783
388,0.0
425,0.0
450,0.0
451,0.0
452,-1.6355315045135776
453,0.0
490,0.0
515,0.0
516,0.0
542,0.0
592,4811412.146064444
632,32831423.157131173
686,1.0
687,1.0
688,2.0
2,21, 1,21, 0, 7,40.00,50.00,Monday
250,-0.3758692946547489
251,37898754.13212552
336,0.0
385,19.598595981798972
386,28.618791254100433
387,-1.0131177324238325
388,0.0
425,0.0
450,0.0
451,0.0
452,-1.705452771653094
453,0.0
490,0.0
515,0.0
516,0.0
542,0.0
592,4840723.52929546
632,32799155.226847775
686,1.0
687,1.0
688,2.0
2,21, 1,21, 0, 7,50.00,60.00,Monday
250,-0.37583911218837257
251,37895795.11447083
336,0.0
385,19.598595981798972
386,28.618791254100433
387,-1.0363502409687944
388,0.0
425,0.0
450,0.0
451,0.0
452,-1.7818014072531079
453,0.0
490,0.0
515,0.0
516,0.0
542,0.0
592,4870050.865369482
632,32766869.073104333
686,1.0
687,1.0
688,2.0
2,21, 1,21, 0, 8, 0.00,10.00,Monday
250,-0.1756228949232087
251,37785047.26187156
336,0.0
385,19.598595981798972
386,28.618791254100433
387,-1.0324738881712716
388,0.0
425,0.0
450,0.0
451,0.0
452,-1.8407473298476806
453,0.0
490,0.0
515,0.0
516,0.0
542,0.0
592,4889730.300311495
632,32744229.053924747
686,1.0
687,1.0
688,2.0
2,21, 1,21, 0, 8,10.00,20.00,Monday
250,0.02466485049356811
251,37679531.91586351
336,0.0
385,19.598595981798972
386,28.618791254100433
387,-0.9909758702223332
388,0.0
425,0.0
450,0.0
451,0.0
452,-1.8318795295984767
453,0.0
490,0.0
515,0.0
516,0.0
542,0.0
592,4909380.719869504
632,32619108.46124682
686,1.0
687,1.0
688,2.0
2,21, 1,21, 0, 8,20.00,30.00,Monday
250,0.22388832791714705
251,37574657.451506406
336,0.0
385,19.598595981798972
386,28.618791254100433
387,-0.9199894494294804
388,0.0
425,0.0
450,0.0
451,0.0
452,-1.7244303079936998
453,0.0
490,0.0
515,0.0
516,0.0
542,0.0
592,4929009.6156952735
632,32494038.881729953
686,1.0
687,1.0
688,2.0
2,21, 1,21, 0, 8,30.00,40.00,Monday
250,0.4233816063207878
251,37469611.393128134
336,0.0
385,19.598595981798972
386,28.618791254100433
387,-0.8297570256478193
388,0.0
425,0.0
450,0.0
451,0.0
452,-1.5287606726416636
453,0.0
490,0.0
515,0.0
516,0.0
542,0.0
592,4952863.646772657
632,32365290.90989128
686,1.0
687,1.0
688,2.0
2,21, 1,21, 0, 8,40.00,50.00,Monday
250,0.6229407867470753
251,37364120.29291189
336,0.0
385,19.598595981798972
386,28.618791254100433
387,-0.7282222385262935
388,0.0
425,0.0
450,0.0
451,0.0
452,-1.2533340675165594
453,0.0
490,0.0
515,0.0
516,0.0
542,0.0
592,4977062.298687916
632,32235642.340895236
686,1.0
687,1.0
688,2.0
2,21, 1,21, 0, 8,50.00,60.00,Monday
250,0.822920858878435
251,37259339.7221635
336,0.0
385,19.598595981798972
386,28.618791254100433
387,-0.632379620707079
388,0.0
425,0.0
450,0.0
451,0.0
452,-0.9404570116802816
453,0.0
490,0.0
515,0.0
516,0.0
542,0.0
592,5001395.306277513
632,32053333.39838844
686,1.0
687,1.0
688,2.0
2,21, 1,21, 0, 9, 0.00,10.00,Monday
250,1.0889929739166366
251,37120009.43614912
336,0.0
385,19.598595981798972
386,28.618791254100433
387,-0.4940363228081672
388,0.0
425,0.0
450,0.0
451,0.0
452,-0.4611041346038026
453,0.0
490,0.0
515,0.0
516,0.0
542,0.0
592,5029363.153609448
632,31902658.944345437
686,1.0
687,1.0
688,2.0
2,21, 1,21, 0, 9,10.00,20.00,Monday
250,1.354933218500638
251,36979789.30430147
336,0.0
385,19.598595981798972
386,28.618791254100433
387,-0.34329568654111964
388,0.0
425,0.0
450,0.0
451,0.0
452,0.06312167165509905
453,0.0
490,0.0
515,0.0
516,0.0
542,0.0
592,5057356.862312016
632,31734416.449843317
686,1.0
687,1.0
688,2.0
2,21, 1,21, 0, 9,20.00,30.00,Monday
250,1.6209568937753813
251,36839520.3821301
336,0.0
385,19.598595981798972
386,28.618791254100433
387,-0.1833884884167487
388,0.0
425,0.0
450,0.0
451,0.0
452,0.6278309379773981
453,0.0
490,0.0
515,0.0
516,0.0
542,0.0
592,5085392.284952975
632,31566135.343377527
686,1.0
687,1.0
688,2.0
2,21, 1,21, 0, 9,30.00,40.00,Monday
250,1.8869382751742076
251,36699272.02932807
336,0.0
385,19.598595981798972
386,28.618791254100433
387,-0.013614550020964573
388,0.0
425,0.0
450,0.0
451,0.0
452,1.22247034811104
453,0.0
490,0.0
515,0.0
516,0.0
542,0.0
592,5113485.892141593
632,31397783.279760517
686,1.0
687,1.0
688,2.0
2,21, 1,21, 0, 9,40.00,50.00,Monday
250,2.153078550295688
251,36557937.16992182
336,0.0
385,19.598595981798987
386,28.618791254100454
387,0.1315885431499005
388,0.0
425,0.0
450,0.0
451,0.0
452,1.7241382049130896
453,0.0
490,0.0
515,0.0
516,0.0
542,0.0
592,5141654.529350725
632,31205189.089028947
686,1.0000000000000009
687,1.0000000000000009
688,2.0000000000000018
2,21, 1,21, 0, 9,50.00,60.00,Monday
250,2.419329736764989
251,36417011.27803388
336,0.0
385,19.598595981798972
386,28.618791254100433
387,0.2837604761452147
388,0.0
425,0.0
450,0.0
451,0.0
452,2.2646112757546994
453,0.0
490,0.0
515,0.0
516,0.0
542,0.0
592,5169915.672059793
632,31060506.264811024
686,1.0
687,1.0
688,2.0
2,21, 1,21, 0,10, 0.00,10.00,Monday
250,2.883569927568039
251,36170682.22194585
336,0.0
385,19.598595981798972
386,28.618791254100437
387,0.47425894480226694
388,0.0
425,0.0
450,0.0
451,0.0
452,2.8238781665489157
453,0.0
490,0.0
515,0.0
516,0.0
542,0.0
592,5241404.10703412
632,30753798.29471179
686,1.0
687,1.0
688,2.0
2,21, 1,21, 0,10,10.00,20.00,Monday
250,3.3484649674390927
251,35924628.534080565
336,0.0
385,19.598595981798972
386,28.618791254100433
387,0.7653117975920598
388,0.0
425,0.0
450,0.0
451,0.0
452,3.578775246009654
453,0.0
490,0.0
515,0.0
516,0.0
542,0.0
592,5315291.857316207
632,30432900.81052097
686,1.0
687,1.0
688,2.0
2,21, 1,21, 0,10,20.00,30.00,Monday
250,3.8135273580298725
251,35677212.71834315
336,0.0
385,19.598595981798965
386,28.618791254100422
387,1.0456865918647544
388,0.0
425,0.0
450,0.0
451,0.0
452,4.2676502956896085
453,0.0
490,0.0
515,0.0
516,0.0
542,0.0
592,5391793.298050373
632,30109055.98801365
686,0.9999999999999996
687,0.9999999999999996
688,1.9999999999999991
2,21, 1,21, 0,10,30.00,40.00,Monday
250,4.278693741619817
251,35429606.8597078
336,0.0
385,19.59859598179898
386,28.618791254100444
387,1.3274415919128413
388,0.0
425,0.0
450,0.0
451,0.0
452,4.96962987323657
453,0.0
490,0.0
515,0.0
516,0.0
542,0.0
592,5471132.199313744
632,29782174.555876464
686,1.0000000000000004
687,1.0000000000000004
688,2.000000000000001
2,21, 1,21, 0,10,40.00,50.00,Monday
250,4.744009152895327
251,35181779.80166673
336,0.0
385,19.598595981798987
386,28.618791254100454
387,1.6175696684382554
388,0.0
425,0.0
450,0.0
451,0.0
452,5.733755484269842
453,0.0
490,0.0
515,0.0
516,0.0
542,0.0
592,5553542.3757593315
632,29452010.982680432
686,1.0000000000000009
687,1.0000000000000009
688,2.0000000000000018
2,21, 1,21, 0,10,50.00,60.00,Monday
250,5.209332383224249
251,34933800.87622467
336,0.0
385,19.598595981798987
386,28.618791254100454
387,1.9177838746748685
388,0.0
425,0.0
450,0.0
451,0.0
452,6.562798087630011
453,0.0
490,0.0
515,0.0
516,0.0
542,0.0
592,5639267.778995938
632,29118357.18984824
686,1.0000000000000009
687,1.0000000000000009
688,2.0000000000000018
2,21, 1,21, 0,11, 0.00,10.00,Monday
250,5.492780560482288
251,34782969.94752828
336,0.0
385,19.598595981798972
386,28.618791254100437
387,2.20428381978452
388,0.0
425,0.0
450,0.0
451,0.0
452,7.418016541353046
453,0.0
490,0.0
515,0.0
516,0.0
542,0.0
592,5689519.861596227
632,28884872.1142428
686,1.0
687,1.0
688,2.0
2,21, 1,21, 0,11,10.00,20.00,Monday
250,5.775738562846122
251,34632347.052991256
336,0.0
385,19.598595981798972
386,28.618791254100433
387,2.474049153563257
388,0.0
425,0.0
450,0.0
451,0.0
452,8.26853167265416
453,0.0
490,0.0
515,0.0
516,0.0
542,0.0
592,5740969.350869595
632,28682728.011806972
686,1.0
687,1.0
688,2.0
2,21, 1,21, 0,11,20.00,30.00,Monday
250,6.058738920792457
251,34481651.52740617
336,0.0
385,19.598595981798965
386,28.618791254100422
387,2.746208629905629
388,0.0
425,0.0
450,0.0
451,0.0
452,9.115127884667888
453,0.0
490,0.0
515,0.0
516,0.0
542,0.0
592,5793671.095282218
632,28479355.063007712
686,0.9999999999999996
687,0.9999999999999996
688,1.9999999999999991
2,21, 1,21, 0,11,30.00,40.00,Monday
250,6.34156649553966
251,34330996.3256293
336,0.0
385,19.59859598179898
386,28.618791254100444
387,3.0235438834464547
388,0.0
425,0.0
450,0.0
451,0.0
452,9.936931658861125
453,0.0
490,0.0
515,0.0
516,0.0
542,0.0
592,5847681.4279665835
632,28274675.94439788
686,1.0000000000000004
687,1.0000000000000004
688,2.000000000000001
2,21, 1,21, 0,11,40.00,50.00,Monday
250,6.624319974388335
251,34180327.068041734
336,0.0
385,19.598595981798987
386,28.618791254100454
387,3.3026535818838303
388,0.0
425,0.0
450,0.0
451,0.0
452,10.682487864407046
453,0.0
490,0.0
515,0.0
516,0.0
542,0.0
592,5903058.082199926
632,28068634.68111293
686,1.0000000000000009
687,1.0000000000000009
688,2.0000000000000018
2,21, 1,21, 0,11,50.00,60.00,Monday
250,6.906973153065777
251,34029656.40407882
336,0.0
385,19.598595981798987
386,28.618791254100454
387,3.5796855463886468
388,0.0
425,0.0
450,0.0
451,0.0
452,11.318331441539751
453,0.0
490,0.0
515,0.0
516,0.0
542,0.0
592,5959860.237244541
632,27861162.29141478
686,1.0000000000000009
687,1.0000000000000009
688,2.0000000000000018
2,21, 1,21, 0,12, 0.00,10.00,Monday
250,7.173650641319018
251,33887540.126331806
336,0.0
385,19.598595981798972
386,28.618791254100433
387,3.81969635755362
388,0.0
425,0.0
450,0.0
451,0.0
452,11.817437948451994
453,0.0
490,0.0
515,0.0
516,0.0
542,0.0
592,5991096.197635708
632,27710030.924886048
686,1.0
687,1.0
688,2.0
2,21, 1,21, 0,12,10.00,20.00,Monday
250,7.439284595630152
251,33749465.61190472
336,0.0
385,19.598595981798972
386,28.618791254100433
387,4.11209384938144
388,0.0
425,0.0
450,0.0
451,0.0
452,12.381431678013623
453,0.0
490,0.0
515,0.0
516,0.0
542,0.0
592,7572016.881221028
632,25989227.701807737
686,1.0
687,1.0
688,2.0
2,21, 1,21, 0,12,20.00,30.00,Monday
250,7.705434740782706
251,33609388.614483096
336,0.0
385,19.598595981798972
386,28.618791254100433
387,4.381221151784143
388,0.0
425,0.0
450,0.0
451,0.0
452,12.896348866245726
453,0.0
490,0.0
515,0.0
516,0.0
542,0.0
592,7609409.155487608
632,25811892.043520123
686,1.0
687,1.0
688,2.0
2,21, 1,21, 0,12,30.00,40.00,Monday
250,7.9715247802002605
251,33469345.09026035
336,0.0
385,19.598595981798972
386,28.618791254100433
387,4.640046260487918
388,0.0
425,0.0
450,0.0
451,0.0
452,13.388226433467267
453,0.0
490,0.0
515,0.0
516,0.0
542,0.0
592,7646583.592010484
632,25634657.779496446
686,1.0
687,1.0
688,2.0
2,21, 1,21, 0,12,40.00,50.00,Monday
250,8.237592631600648
251,33329313.23863361
336,0.0
385,19.598595981798972
386,28.618791254100433
387,4.894482029123992
388,0.0
425,0.0
450,0.0
451,0.0
452,13.830340196536225
453,0.0
490,0.0
515,0.0
516,0.0
542,0.0
592,7683540.190789654
632,25457663.53090369
686,1.0
687,1.0
688,2.0
2,21, 1,21, 0,12,50.00,60.00,Monday
250,8.503654071951715
251,33189284.063904665
336,0.0
385,19.598595981798972
386,28.618791254100433
387,5.143437077745097
388,0.0
425,0.0
450,0.0
451,0.0
452,14.198114671006348
453,0.0
490,0.0
515,0.0
516,0.0
542,0.0
592,7720278.951825121
632,25280894.33692003
686,1.0
687,1.0
688,2.0
2,21, 1,21, 0,13, 0.00,10.00,Monday
250,8.686705511100838
251,33090559.53723147
336,0.0
385,19.598595981798972
386,28.618791254100433
387,5.3758343677758695
388,0.0
425,0.0
450,0.0
451,0.0
452,14.489349659842784
453,0.0
490,0.0
515,0.0
516,0.0
542,0.0
592,7745410.487127085
632,25183523.18735167
686,1.0
687,1.0
688,2.0
2,21, 1,21, 0,13,10.00,20.00,Monday
250,8.869457348992713
251,32996010.736275505
336,0.0
385,19.598595981798972
386,28.618791254100433
387,5.594634855345704
388,0.0
425,0.0
450,0.0
451,0.0
452,14.718618558508336
453,0.0
490,0.0
515,0.0
516,0.0
542,0.0
592,7770439.060057996
632,25065322.944793064
686,1.0
687,1.0
688,2.0
2,21, 1,21, 0,13,20.00,30.00,Monday
250,9.052600213918426
251,32901340.305364545
336,0.0
385,19.598595981798972
386,28.618791254100433
387,5.799550695363699
388,0.0
425,0.0
450,0.0
451,0.0
452,14.901815074591061
453,0.0
490,0.0
515,0.0
516,0.0
542,0.0
592,7795364.6706178645
632,24945950.535904974
686,1.0
687,1.0
688,2.0
2,21, 1,21, 0,13,30.00,40.00,Monday
250,9.235631734882325
251,32806760.34709917
336,0.0
385,19.598595981798972
386,28.618791254100433
387,5.994601767180332
388,0.0
425,0.0
450,0.0
451,0.0
452,15.050692682995502
453,0.0
490,0.0
515,0.0
516,0.0
542,0.0
592,7820187.318806678
632,24826500.552598655
686,1.0
687,1.0
688,2.0
2,21, 1,21, 0,13,40.00,50.00,Monday
250,9.418665807950871
251,32712212.472707957
336,0.0
385,19.598595981798972
386,28.618791254100433
387,6.183538634780826
388,0.0
425,0.0
450,0.0
451,0.0
452,15.170037624618608
453,0.0
490,0.0
515,0.0
516,0.0
542,0.0
592,7844907.00462445
632,24707247.27862469
686,1.0
687,1.0
688,2.0
2,21, 1,21, 0,13,50.00,60.00,Monday
250,9.601694620928683
251,32617700.620155316
336,0.0
385,19.598595981798972
386,28.618791254100433
387,6.367661145832709
388,0.0
425,0.0
450,0.0
451,0.0
452,15.263478672780144
453,0.0
490,0.0
515,0.0
516,0.0
542,0.0
592,7869523.728071173
632,24588128.949089073
686,1.0
687,1.0
688,2.0
2,21, 1,21, 0,14, 0.00,10.00,Monday
250,9.801633945226508
251,32514088.48709971
336,0.0
385,19.598595981798972
386,28.618791254100433
387,6.549808414456321
388,0.0
425,0.0
450,0.0
451,0.0
452,15.319610074462565
453,0.0
490,0.0
515,0.0
516,0.0
542,0.0
592,7896260.907308879
632,24466926.538804926
686,1.0
687,1.0
688,2.0
2,21, 1,21, 0,14,10.00,20.00,Monday
250,10.001283294995403
251,32410234.254371572
336,0.0
385,19.598595981798972
386,28.618791254100433
387,6.730112164056389
388,0.0
425,0.0
450,0.0
451,0.0
452,15.320110207959127
453,0.0
490,0.0
515,0.0
516,0.0
542,0.0
592,7922875.552815756
632,24336314.282888908
686,1.0
687,1.0
688,2.0
2,21, 1,21, 0,14,20.00,30.00,Monday
250,10.200843422754945
251,32306443.722316302
336,0.0
385,19.598595981798972
386,28.618791254100433
387,6.9064143450622595
388,0.0
425,0.0
450,0.0
451,0.0
452,15.264511001512277
453,0.0
490,0.0
515,0.0
516,0.0
542,0.0
592,7949367.664591796
632,24205996.819252346
686,1.0
687,1.0
688,2.0
2,21, 1,21, 0,14,30.00,40.00,Monday
250,10.40034281305023
251,32202710.46032931
336,0.0
385,19.598595981798972
386,28.618791254100433
387,7.072762258755137
388,0.0
425,0.0
450,0.0
451,0.0
452,15.142287216794758
453,0.0
490,0.0
515,0.0
516,0.0
542,0.0
592,7975737.242637001
632,24075874.70951536
686,1.0
687,1.0
688,2.0
2,21, 1,21, 0,14,40.00,50.00,Monday
250,10.599788125008791
251,32099028.500718847
336,0.0
385,19.598595981798972
386,28.618791254100433
387,7.225462108993009
388,0.0
425,0.0
450,0.0
451,0.0
452,14.933717758489726
453,0.0
490,0.0
515,0.0
516,0.0
542,0.0
592,8001984.286951375
632,23945930.191215504
686,1.0
687,1.0
688,2.0
2,21, 1,21, 0,14,50.00,60.00,Monday
250,10.799194397571696
251,31995390.14927692
336,0.0
385,19.598595981798972
386,28.618791254100433
387,7.364804189723296
388,0.0
425,0.0
450,0.0
451,0.0
452,14.641840053038107
453,0.0
490,0.0
515,0.0
516,0.0
542,0.0
592,8028108.797534912
632,23816160.103389233
686,1.0
687,1.0
688,2.0
2,21, 1,21, 0,15, 0.00,10.00,Monday
250,11.065120065888955
251,31856548.614195496
336,0.0
385,19.598595981798972
386,28.618791254100433
387,7.485790041628411
388,0.0
425,0.0
450,0.0
451,0.0