Program Version,EnergyPlus, Version 24.1.0-9d7789a3ac, YMD=2024.10.18 13:35
1,5,Environment Title[],Latitude[deg],Longitude[deg],Time Zone[],Elevation[m]
2,8,Day of Simulation[],Month[],Day of Month[],DST Indicator[1=yes 0=no],Hour[],StartMinute[],EndMinute[],DayType
3,5,Cumulative Day of Simulation[],Month[],Day of Month[],DST Indicator[1=yes 0=no],DayType  ! When Daily Report Variables Requested
4,2,Cumulative Days of Simulation[],Month[]  ! When Monthly Report Variables Requested
5,1,Cumulative Days of Simulation[] ! When Run Period Report Variables Requested
6,1,Calendar Year of Simulation[] ! When Annual Report Variables Requested
250,1,LIVING ZONE,Zone Air Temperature [C] !TimeStep,REPORTSCH
251,1,LIVING ZONE,Zone Air System Sensible Heating Energy [J] !TimeStep,REPORTSCH
336,1,LIVING ZONE,Zone Air System Sensible Cooling Energy [J] !TimeStep,REPORTSCH
385,1,LIVING ZONE,Zone Thermostat Heating Setpoint Temperature [C] !TimeStep,REPORTSCH
386,1,LIVING ZONE,Zone Thermostat Cooling Setpoint Temperature [C] !TimeStep,REPORTSCH
387,1,GARAGE ZONE,Zone Air Temperature [C] !TimeStep,REPORTSCH
388,1,GARAGE ZONE,Zone Air System Sensible Heating Energy [J] !TimeStep,REPORTSCH
425,1,GARAGE ZONE,Zone Air System Sensible Cooling Energy [J] !TimeStep,REPORTSCH
450,1,GARAGE ZONE,Zone Thermostat Heating Setpoint Temperature [C] !TimeStep,REPORTSCH
451,1,GARAGE ZONE,Zone Thermostat Cooling Setpoint Temperature [C] !TimeStep,REPORTSCH
452,1,ATTIC ZONE,Zone Air Temperature [C] !TimeStep,REPORTSCH
453,1,ATTIC ZONE,Zone Air System Sensible Heating Energy [J] !TimeStep,REPORTSCH
490,1,ATTIC ZONE,Zone Air System Sensible Cooling Energy [J] !TimeStep,REPORTSCH
515,1,ATTIC ZONE,Zone Thermostat Heating Setpoint Temperature [C] !TimeStep,REPORTSCH
516,1,ATTIC ZONE,Zone Thermostat Cooling Setpoint Temperature [C] !TimeStep,REPORTSCH
542,1,ACDXCOIL 1,Cooling Coil Total Cooling Energy [J] !TimeStep,REPORTSCH
592,1,HEAT PUMP DX HEATING COIL 1,Heating Coil Heating Energy [J] !TimeStep,REPORTSCH
632,1,SUPP HEATING COIL 1,Heating Coil Heating Energy [J] !TimeStep,REPORTSCH
686,1,TWOSPEED HEAT PUMP 1,Unitary System DX Coil Cycling Ratio [] !TimeStep,REPORTSCH
687,1,TWOSPEED HEAT PUMP 1,Unitary System DX Coil Speed Ratio [] !TimeStep,REPORTSCH
688,1,TWOSPEED HEAT PUMP 1,Unitary System DX Coil Speed Level [] !TimeStep
End of Data Dictionary
1,CHICAGO_IL_USA ANNUAL HEATING 99% DESIGN CONDITIONS DB,  41.98, -87.92,  -6.00, 201.00
2,1, 1,21, 0, 1, 0.00,10.00,WinterDesignDay
250,16.97002598961168
251,5823189.962523569
336,0.0
385,17.0162558626886
386,28.678087005766052
387,-17.689088180113018
388,0.0
425,0.0
450,0.0
451,0.0
452,-18.389635718370123
453,0.0
490,0.0
515,0.0
516,0.0
542,0.0
592,0.0
632,5734094.31451739
686,1.0
687,1.0
688,2.0
2,1, 1,21, 0, 1,10.00,20.00,WinterDesignDay
250,17.115988839041712
251,4261854.151979876
336,0.0
385,17.0162558626886
386,28.678087005766052
387,-17.6891142666081
388,0.0
425,0.0
450,0.0
451,0.0
452,-18.389613428462198
453,0.0
490,0.0
515,0.0
516,0.0
542,0.0
592,0.0
632,4214615.220866306
686,0.6666666666666667
687,0.6666666666666667
688,1.3333333333333335
2,1, 1,21, 0, 1,20.00,30.00,WinterDesignDay
250,16.702317197448558
251,4191369.576822827
336,0.0
385,16.482922529355267
386,28.678087005766052
387,-17.68911486824403
388,0.0
425,0.0
450,0.0
451,0.0
452,-18.389665131824994
453,0.0
490,0.0
515,0.0
516,0.0
542,0.0
592,0.0
632,4197148.4791785395
686,0.6000000000000001
687,0.6000000000000001
688,1.2000000000000002
2,1, 1,21, 0, 1,30.00,40.00,WinterDesignDay
250,16.970025989481016
251,5823189.99702594
336,0.0
385,17.016255862688613
386,28.678087005766074
387,-17.689091689944735
388,0.0
425,0.0
450,0.0
451,0.0
452,-18.389636099275446
453,0.0
490,0.0
515,0.0
516,0.0
542,0.0
592,0.0
632,5734094.349553117
686,1.0000000000000009
687,1.0000000000000009
688,2.0000000000000018
2,1, 1,21, 0, 1,40.00,50.00,WinterDesignDay
250,17.1159888361764
251,4261854.174485414
336,0.0
385,17.016255862688613
386,28.678087005766074
387,-17.68911771850623
388,0.0
425,0.0
450,0.0
451,0.0
452,-18.389613803255525
453,0.0
490,0.0
515,0.0
516,0.0
542,0.0
592,0.0
632,4214615.243396006
686,0.6666666666666672
687,0.6666666666666672
688,1.3333333333333344
2,1, 1,21, 0, 1,50.00,60.00,WinterDesignDay
250,16.70231719459196
251,4191369.6017198176
336,0.0
385,16.482922529355267
386,28.678087005766052
387,-17.68911828118597
388,0.0
425,0.0
450,0.0
451,0.0
452,-18.389665502254054
453,0.0
490,0.0
515,0.0
516,0.0
542,0.0
592,0.0
632,4197148.504940444
686,0.6000000000000001
687,0.6000000000000001
688,1.2000000000000002
2,1, 1,21, 0, 2, 0.00,10.00,WinterDesignDay
250,16.970025989355463
251,5823190.030172709
336,0.0
385,17.0162558626886
386,28.678087005766052
387,-17.689095061940186
388,0.0
425,0.0
450,0.0
451,0.0
452,-18.389636465215162
453,0.0
490,0.0
515,0.0
516,0.0
542,0.0
592,0.0
632,5734094.383212286
686,1.0
687,1.0
688,2.0
2,1, 1,21, 0, 2,10.00,20.00,WinterDesignDay
250,17.115988833423614
251,4261854.196106804
336,0.0
385,17.0162558626886
386,28.678087005766052
387,-17.68912103484282
388,0.0
425,0.0
450,0.0
451,0.0
452,-18.38961416332347
453,0.0
490,0.0
515,0.0
516,0.0
542,0.0
592,0.0
632,4214615.265040606
686,0.6666666666666667
687,0.6666666666666667
688,1.3333333333333335
2,1, 1,21, 0, 2,20.00,30.00,WinterDesignDay
250,16.702317191847577
251,4191369.6256387634
336,0.0
385,16.482922529355267
386,28.678087005766052
387,-17.68912156009647
388,0.0
425,0.0
450,0.0
451,0.0
452,-18.389665858129298
453,0.0
490,0.0
515,0.0
516,0.0
542,0.0
592,0.0
632,4197148.529690326
686,0.6000000000000001
687,0.6000000000000001
688,1.2000000000000002
2,1, 1,21, 0, 2,30.00,40.00,WinterDesignDay
250,16.970025989234866
251,5823190.062017249
336,0.0
385,17.016255862688613
386,28.678087005766074
387,-17.689098301512168
388,0.0
425,0.0
450,0.0
451,0.0
452,-18.38963681677754
453,0.0
490,0.0
515,0.0
516,0.0
542,0.0
592,0.0
632,5734094.415549096
686,1.0000000000000009
687,1.0000000000000009
688,2.0000000000000018
2,1, 1,21, 0, 2,40.00,50.00,WinterDesignDay
250,17.11598883077902
251,4261854.216878695
336,0.0
385,17.016255862688613
386,28.678087005766074
387,-17.68912422094164
388,0.0
425,0.0
450,0.0
451,0.0
452,-18.389614509244836
453,0.0
490,0.0
515,0.0
516,0.0
542,0.0
592,0.0
632,4214615.285834799
686,0.6666666666666672
687,0.6666666666666672
688,1.3333333333333344
2,1, 1,21, 0, 2,50.00,60.00,WinterDesignDay
250,16.702317189211016
251,4191369.648617959
336,0.0
385,16.482922529355267
386,28.678087005766052
387,-17.689124710238396
388,0.0
425,0.0
450,0.0
451,0.0
452,-18.38966620002272
453,0.0
490,0.0
515,0.0
516,0.0
542,0.0
592,0.0
632,4197148.553467812
686,0.6000000000000001
687,0.6000000000000001
688,1.2000000000000002
2,1, 1,21, 0, 3, 0.00,10.00,WinterDesignDay
250,16.970025989118984
251,5823190.092610758
336,0.0
385,17.0162558626886
386,28.678087005766052
387,-17.689101413860296
388,0.0
425,0.0
450,0.0
451,0.0
452,-18.389637154527577
453,0.0
490,0.0
515,0.0
516,0.0
542,0.0
592,0.0
632,5734094.446615533
686,1.0
687,1.0
688,2.0
2,1, 1,21, 0, 3,10.00,20.00,WinterDesignDay
250,17.11598882823829
251,4261854.2368345745
336,0.0
385,17.0162558626886
386,28.678087005766052
387,-17.689127281916655
388,0.0
425,0.0
450,0.0
451,0.0
452,-18.389614841575565
453,0.0
490,0.0
515,0.0
516,0.0
542,0.0
592,0.0
632,4214615.305812102
686,0.6666666666666667
687,0.6666666666666667
688,1.3333333333333335
2,1, 1,21, 0, 3,20.00,30.00,WinterDesignDay
250,16.702317186678048
251,4191369.6706943084
336,0.0
385,16.482922529355267
386,28.678087005766052
387,-17.689127736669093
388,0.0
425,0.0
450,0.0
451,0.0
452,-18.389666528483847
453,0.0
490,0.0
515,0.0
516,0.0
542,0.0
592,0.0
632,4197148.576311087
686,0.6000000000000001
687,0.6000000000000001
688,1.2000000000000002
2,1, 1,21, 0, 3,30.00,40.00,WinterDesignDay
250,16.970025989007677
251,5823190.122002317
336,0.0
385,17.016255862688613
386,28.678087005766074
387,-17.68910440398157
388,0.0
425,0.0
450,0.0
451,0.0
452,-18.389637479008194
453,0.0
490,0.0
515,0.0
516,0.0
542,0.0
592,0.0
632,5734094.476461439
686,1.0000000000000009
687,1.0000000000000009
688,2.0000000000000018
2,1, 1,21, 0, 3,40.00,50.00,WinterDesignDay
250,17.115988825797405
251,4261854.256006425
336,0.0
385,17.016255862688613
386,28.678087005766074
387,-17.689130222682095
388,0.0
425,0.0
450,0.0
451,0.0
452,-18.389615160849857
453,0.0
490,0.0
515,0.0
516,0.0
542,0.0
592,0.0
632,4214615.325004535
686,0.6666666666666672
687,0.6666666666666672
688,1.3333333333333344
2,1, 1,21, 0, 3,50.00,60.00,WinterDesignDay
250,16.702317184244585
251,4191369.6919033886
336,0.0
385,16.482922529355267
386,28.678087005766052
387,-17.689130644246173
388,0.0
425,0.0
450,0.0
451,0.0
452,-18.38966684404059
453,0.0
490,0.0
515,0.0
516,0.0
542,0.0
592,0.0
632,4197148.598256963
686,0.6000000000000001
687,0.6000000000000001
688,1.2000000000000002
2,1, 1,21, 0, 4, 0.00,10.00,WinterDesignDay
250,16.97002598890072
251,5823190.150239154
336,0.0
385,17.0162558626886
386,28.678087005766052
387,-17.689107276674747
388,0.0
425,0.0
450,0.0
451,0.0
452,-18.389637790740842
453,0.0
490,0.0
515,0.0
516,0.0
542,0.0
592,0.0
632,5734094.505134777
686,1.0
687,1.0
688,2.0
2,1, 1,21, 0, 4,10.00,20.00,WinterDesignDay
250,17.115988823452383
251,4261854.2744251015
336,0.0
385,17.0162558626886
386,28.678087005766052
387,-17.68913304795749
388,0.0
425,0.0
450,0.0
451,0.0
452,-18.389615467580768
453,0.0
490,0.0
515,0.0
516,0.0
542,0.0
592,0.0
632,4214615.343442984
686,0.6666666666666667
687,0.6666666666666667
688,1.3333333333333335
2,1, 1,21, 0, 4,20.00,30.00,WinterDesignDay
250,16.702317181906718
251,4191369.712279295
336,0.0
385,16.482922529355267
386,28.678087005766052
387,-17.6891334376367
388,0.0
425,0.0
450,0.0
451,0.0
452,-18.389667147200072
453,0.0
490,0.0
515,0.0
516,0.0
542,0.0
592,0.0
632,4197148.619340721
686,0.6000000000000001
687,0.6000000000000001
688,1.2000000000000002
2,1, 1,21, 0, 4,30.00,40.00,WinterDesignDay
250,16.97002598879799
251,5823190.17736685
336,0.0
385,17.016255862688613
386,28.678087005766074
387,-17.68911003655157
388,0.0
425,0.0
450,0.0
451,0.0
452,-18.389638090226548
453,0.0
490,0.0
515,0.0
516,0.0
542,0.0
592,0.0
632,5734094.5326818265
686,1.0000000000000009
687,1.0000000000000009
688,2.0000000000000018
2,1, 1,21, 0, 4,40.00,50.00,WinterDesignDay
250,17.11598882119951
251,4261854.292120229
336,0.0
385,17.016255862688613
386,28.678087005766074
387,-17.689135762278973
388,0.0
425,0.0
450,0.0
451,0.0
452,-18.38961576226131
453,0.0
490,0.0
515,0.0
516,0.0
542,0.0
592,0.0
632,4214615.361157108
686,0.6666666666666672
687,0.6666666666666672
688,1.3333333333333344
2,1, 1,21, 0, 4,50.00,60.00,WinterDesignDay
250,16.702317179660692
251,4191369.7318547945
336,0.0
385,16.482922529355267
386,28.678087005766052
387,-17.689136121325497
388,0.0
425,0.0
450,0.0
451,0.0
452,-18.389667438449518
453,0.0
490,0.0
515,0.0
516,0.0
542,0.0
592,0.0
632,4197148.639596267
686,0.6000000000000001
687,0.6000000000000001
688,1.2000000000000002
2,1, 1,21, 0, 5, 0.00,10.00,WinterDesignDay
250,16.970025988699263
251,5823190.203428749
336,0.0
385,17.0162558626886
386,28.678087005766052
387,-17.689112688042286
388,0.0
425,0.0
450,0.0
451,0.0
452,-18.38963837794656
453,0.0
490,0.0
515,0.0
516,0.0
542,0.0
592,0.0
632,5734094.559146602
686,1.0
687,1.0
688,2.0
2,1, 1,21, 0, 5,10.00,20.00,WinterDesignDay
250,17.11598881903512
251,4261854.309120179
336,0.0
385,17.0162558626886
386,28.678087005766052
387,-17.6891383700029
388,0.0
425,0.0
450,0.0
451,0.0
452,-18.38961604536498
453,0.0
490,0.0
515,0.0
516,0.0
542,0.0
592,0.0
632,4214615.378175309
686,0.6666666666666667
687,0.6666666666666667
688,1.3333333333333335
2,1, 1,21, 0, 5,20.00,30.00,WinterDesignDay
250,16.702317177502906
251,4191369.750661192
336,0.0
385,16.482922529355267
386,28.678087005766052
387,-17.68913869961979
388,0.0
425,0.0
450,0.0
451,0.0
452,-18.389667718256938
453,0.0
490,0.0
515,0.0
516,0.0
542,0.0
592,0.0
632,4197148.659055991
686,0.6000000000000001
687,0.6000000000000001
688,1.2000000000000002
2,1, 1,21, 0, 5,30.00,40.00,WinterDesignDay
250,16.970025988604448
251,5823190.228466749
336,0.0
385,17.016255862688613
386,28.678087005766074
387,-17.689115235403396
388,0.0
425,0.0
450,0.0
451,0.0
452,-18.389638654363285
453,0.0
490,0.0
515,0.0
516,0.0
542,0.0
592,0.0
632,5734094.584571651
686,1.0000000000000009
687,1.0000000000000009
688,2.0000000000000018
2,1, 1,21, 0, 5,40.00,50.00,WinterDesignDay
250,17.115988816955785
251,4261854.325452285
336,0.0
385,17.016255862688613
386,28.678087005766074
387,-17.68914087531622
388,0.0
425,0.0
450,0.0
451,0.0
452,-18.389616317346768
453,0.0
490,0.0
515,0.0
516,0.0
542,0.0
592,0.0
632,4214615.394524946
686,0.6666666666666672
687,0.6666666666666672
688,1.3333333333333344
2,1, 1,21, 0, 5,50.00,60.00,WinterDesignDay
250,16.70231717542989
251,4191369.7687287587
336,0.0
385,16.482922529355267
386,28.678087005766052
387,-17.68914117665883
388,0.0
425,0.0
450,0.0
451,0.0
452,-18.38966798707199
453,0.0
490,0.0
515,0.0
516,0.0
542,0.0
592,0.0
632,4197148.677751219
686,0.6000000000000001
687,0.6000000000000001
688,1.2000000000000002
2,1, 1,21, 0, 6, 0.00,10.00,WinterDesignDay
250,16.97002598851333
251,5823190.25252126
336,0.0
385,17.0162558626886
386,28.678087005766052
387,-17.68911768272352
388,0.0
425,0.0
450,0.0
451,0.0
452,-18.389638919920856
453,0.0
490,0.0
515,0.0
516,0.0
542,0.0
592,0.0
632,5734094.608998008
686,1.0
687,1.0
688,2.0
2,1, 1,21, 0, 6,10.00,20.00,WinterDesignDay
250,17.1159888149581
251,4261854.3411428565
336,0.0
385,17.0162558626886
386,28.678087005766052
387,-17.689143282239463
388,0.0
425,0.0
450,0.0
451,0.0
452,-18.38961657864366
453,0.0
490,0.0
515,0.0
516,0.0
542,0.0
592,0.0
632,4214615.410232362
686,0.6666666666666667
687,0.6666666666666667
688,1.3333333333333335
2,1, 1,21, 0, 6,20.00,30.00,WinterDesignDay
250,16.702317173438306
251,4191369.786086611
336,0.0
385,16.482922529355267
386,28.678087005766052
387,-17.68914355641862
388,0.0
425,0.0
450,0.0
451,0.0
452,-18.389668245326625
453,0.0
490,0.0
515,0.0
516,0.0
542,0.0
592,0.0
632,4197148.695712078
686,0.6000000000000001
687,0.6000000000000001
688,1.2000000000000002
2,1, 1,21, 0, 6,30.00,40.00,WinterDesignDay
250,16.97002598842582
251,5823190.2756307805
336,0.0
385,17.016255862688613
386,28.678087005766074
387,-17.689120033932042
388,0.0
425,0.0
450,0.0
451,0.0
452,-18.389639175046035
453,0.0
490,0.0
515,0.0
516,0.0
542,0.0
592,0.0
632,5734094.6324647665
686,1.0000000000000009
687,1.0000000000000009
688,2.0000000000000018
2,1, 1,21, 0, 6,40.00,50.00,WinterDesignDay
250,17.115988813038925
251,4261854.356216988
336,0.0
385,17.016255862688613
386,28.678087005766074
387,-17.689145594637967
388,0.0
425,0.0
450,0.0
451,0.0
452,-18.389616829675603
453,0.0
490,0.0
515,0.0
516,0.0
542,0.0
592,0.0
632,4214615.425322676
686,0.6666666666666672
687,0.6666666666666672
688,1.3333333333333344
2,1, 1,21, 0, 6,50.00,60.00,WinterDesignDay
250,16.70231717152496
251,4191369.8027625885
336,0.0
385,16.482922529355267
386,28.678087005766052
387,-17.68914584272004
388,0.0
425,0.0
450,0.0
451,0.0
452,-18.389668493435813
453,0.0
490,0.0
515,0.0
516,0.0
542,0.0
592,0.0
632,4197148.7129673725
686,0.6000000000000001
687,0.6000000000000001
688,1.2000000000000002
2,1, 1,21, 0, 7, 0.00,10.00,WinterDesignDay
250,16.970025988341717
251,5823190.297832542
336,0.0
385,17.0162558626886
386,28.678087005766052
387,-17.68912229280307
388,0.0
425,0.0
450,0.0
451,0.0
452,-18.38963942014872
453,0.0
490,0.0
515,0.0
516,0.0
542,0.0
592,0.0
632,5734094.655009731
686,1.0
687,1.0
688,2.0
2,1, 1,21, 0, 7,10.00,20.00,WinterDesignDay
250,17.115988811195116
251,4261854.37069897
336,0.0
385,17.0162558626886
386,28.678087005766052
387,-17.68914781622281
388,0.0
425,0.0
450,0.0
451,0.0
452,-18.389617070845897
453,0.0
490,0.0
515,0.0
516,0.0
542,0.0
592,0.0
632,4214615.439820208
686,0.6666666666666667
687,0.6666666666666667
688,1.3333333333333335
2,1, 1,21, 0, 7,20.00,30.00,WinterDesignDay
250,16.70231716968677
251,4191369.818783516
336,0.0
385,16.482922529355267
386,28.678087005766052
387,-17.68914803923259
388,0.0
425,0.0
450,0.0
451,0.0
452,-18.389668731798245
453,0.0
490,0.0
515,0.0
516,0.0
542,0.0
592,0.0
632,4197148.729544863
686,0.6000000000000001
687,0.6000000000000001
688,1.2000000000000002
2,1, 1,21, 0, 7,30.00,40.00,WinterDesignDay
250,16.970025988260947
251,5823190.319162131
336,0.0
385,17.016255862688613
386,28.678087005766074
387,-17.68912446296215
388,0.0
425,0.0
450,0.0
451,0.0
452,-18.389639655622826
453,0.0
490,0.0
515,0.0
516,0.0
542,0.0
592,0.0
632,5734094.676669043
686,1.0000000000000009
687,1.0000000000000009
688,2.0000000000000018
2,1, 1,21, 0, 7,40.00,50.00,WinterDesignDay
250,17.11598880942375
251,4261854.384612123
336,0.0
385,17.016255862688613
386,28.678087005766074
387,-17.689149950559695
388,0.0
425,0.0
450,0.0
451,0.0
452,-18.389617302542103
453,0.0
490,0.0
515,0.0
516,0.0
542,0.0
592,0.0
632,4214615.453748297
686,0.6666666666666672
687,0.6666666666666672
688,1.3333333333333344
2,1, 1,21, 0, 7,50.00,60.00,WinterDesignDay
250,16.70231716792079
251,4191369.8341750936
336,0.0
385,16.482922529355267
386,28.678087005766052
387,-17.689150149482035
388,0.0
425,0.0
450,0.0
451,0.0
452,-18.389668960796882
453,0.0
490,0.0
515,0.0
516,0.0
542,0.0
592,0.0
632,4197148.7454711385
686,0.6000000000000001
687,0.6000000000000001
688,1.2000000000000002
2,1, 1,21, 0, 8, 0.00,10.00,WinterDesignDay
250,16.970025988183323
251,5823190.339653836
336,0.0
385,17.0162558626886
386,28.678087005766052
387,-17.689126547893697
388,0.0
425,0.0
450,0.0
451,0.0
452,-18.38963988184658
453,0.0
490,0.0
515,0.0
516,0.0
542,0.0
592,0.0
632,5734094.697477519
686,1.0
687,1.0
688,2.0
2,1, 1,21, 0, 8,10.00,20.00,WinterDesignDay
250,17.115988807721948
251,4261854.3979787165
336,0.0
385,17.0162558626886
386,28.678087005766052
387,-17.68915200107634
388,0.0
425,0.0
450,0.0
451,0.0
452,-18.389617525136398
453,0.0
490,0.0
515,0.0
516,0.0
542,0.0
592,0.0
632,4214615.46712924
686,0.6666666666666667
687,0.6666666666666667
688,1.3333333333333335
2,1, 1,21, 0, 8,20.00,30.00,WinterDesignDay
250,16.70231716622418
251,4191369.8489620667
336,0.0
385,16.482922529355267
386,28.678087005766052
387,-17.68915217685706
388,0.0
425,0.0
450,0.0
451,0.0
452,-18.38966918079963
453,0.0
490,0.0
515,0.0
516,0.0
542,0.0
592,0.0
632,4197148.7607718045
686,0.6000000000000001
687,0.6000000000000001
688,1.2000000000000002
2,1, 1,21, 0, 8,30.00,40.00,WinterDesignDay
250,16.970025988108773
251,5823190.359340568
336,0.0
385,17.016255862688613
386,28.678087005766074
387,-17.68912855094468
388,0.0
425,0.0
450,0.0
451,0.0
452,-18.389640099183527
453,0.0
490,0.0
515,0.0
516,0.0
542,0.0
592,0.0
632,5734094.717468577
686,1.0000000000000009
687,1.0000000000000009
688,2.0000000000000018
2,1, 1,21, 0, 8,40.00,50.00,WinterDesignDay
250,17.115988806087017
251,4261854.410820253
336,0.0
385,17.016255862688613
386,28.678087005766074
387,-17.689153971063515
388,0.0
425,0.0
450,0.0
451,0.0
452,-18.389617738986523
453,0.0
490,0.0
515,0.0
516,0.0
542,0.0
592,0.0
632,4214615.479984562
686,0.6666666666666672
687,0.6666666666666672
688,1.3333333333333344
2,1, 1,21, 0, 8,50.00,60.00,WinterDesignDay
250,16.702317164594227
251,4191369.8631680934
336,0.0
385,16.482922529355267
386,28.678087005766052
387,-17.689154124611427
388,0.0
425,0.0
450,0.0
451,0.0
452,-18.389669392160013
453,0.0
490,0.0
515,0.0
516,0.0
542,0.0
592,0.0
632,4197148.775471346
686,0.6000000000000001
687,0.6000000000000001
688,1.2000000000000002
2,1, 1,21, 0, 9, 0.00,10.00,WinterDesignDay
250,16.97002598803713
251,5823190.378253868
336,0.0
385,17.0162558626886
386,28.678087005766052
387,-17.689130475330252
388,0.0
425,0.0
450,0.0
451,0.0
452,-18.389640307982816
453,0.0
490,0.0
515,0.0
516,0.0
542,0.0
592,0.0
632,5734094.736674249
686,1.0
687,1.0
688,2.0
2,1, 1,21, 0, 9,10.00,20.00,WinterDesignDay
250,17.115988804516295
251,4261854.423157301
336,0.0
385,17.0162558626886
386,28.678087005766052
387,-17.68915586368403
388,0.0
425,0.0
450,0.0
451,0.0
452,-18.38961794443595
453,0.0
490,0.0
515,0.0
516,0.0
542,0.0
592,0.0
632,4214615.492334856
686,0.6666666666666667
687,0.6666666666666667
688,1.3333333333333335
2,1, 1,21, 0, 9,20.00,30.00,WinterDesignDay
250,16.70231716302829
251,4191369.8768161796
336,0.0
385,16.482922529355267
386,28.678087005766052
387,-17.689155995872365
388,0.0
425,0.0
450,0.0
451,0.0
452,-18.389669595217573
453,0.0
490,0.0
515,0.0
516,0.0
542,0.0
592,0.0
632,4197148.789593562
686,0.6000000000000001
687,0.6000000000000001
688,1.2000000000000002
2,1, 1,21, 0, 9,30.00,40.00,WinterDesignDay
250,16.970025987968324
251,5823190.396424383
336,0.0
385,17.016255862688613
386,28.678087005766074
387,-17.689132324140367
388,0.0
425,0.0
450,0.0
451,0.0
452,-18.38964050857994
453,0.0
490,0.0
515,0.0
516,0.0
542,0.0
592,0.0
632,5734094.755125651
686,1.0000000000000009
687,1.0000000000000009
688,2.0000000000000018
2,1, 1,21, 0, 9,40.00,50.00,WinterDesignDay
250,17.115988803007298
251,4261854.435009718
336,0.0
385,17.016255862688613
386,28.678087005766074
387,-17.68915768197649
388,0.0
425,0.0
450,0.0
451,0.0
452,-18.38961814181485
453,0.0
490,0.0
515,0.0
516,0.0
542,0.0
592,0.0
632,4214615.504199998
686,0.6666666666666672
687,0.6666666666666672
688,1.3333333333333344
2,1, 1,21, 0, 9,50.00,60.00,WinterDesignDay
250,16.702317161523876
251,4191369.889928095
336,0.0
385,16.482922529355267
386,28.678087005766052
387,-17.689157793643634
388,0.0
425,0.0
450,0.0
451,0.0
452,-18.389669790298516
453,0.0
490,0.0
515,0.0
516,0.0
542,0.0
592,0.0
632,4197148.8031609785
686,0.6000000000000001
687,0.6000000000000001
688,1.2000000000000002
2,1, 1,21, 0,10, 0.00,10.00,WinterDesignDay
250,16.970025987902194
251,5823190.413881039
336,0.0
385,17.0162558626886
386,28.678087005766052
387,-17.689134100342038
388,0.0
425,0.0
450,0.0
451,0.0
452,-18.389640701297104
453,0.0
490,0.0
515,0.0
516,0.0
542,0.0
592,0.0
632,5734094.772852161
686,1.0
687,1.0
688,2.0
2,1, 1,21, 0,10,10.00,20.00,WinterDesignDay
250,17.11598880155755
251,4261854.446396588
336,0.0
385,17.0162558626886
386,28.678087005766052
387,-17.689159428858805
388,0.0
425,0.0
450,0.0
451,0.0
452,-18.389618331440236
453,0.0
490,0.0
515,0.0
516,0.0
542,0.0
592,0.0
632,4214615.515599093
686,0.6666666666666667
687,0.6666666666666667
688,1.3333333333333335
2,1, 1,21, 0,10,20.00,30.00,WinterDesignDay
250,16.70231716007855
251,4191369.902524978
336,0.0
385,16.482922529355267
386,28.678087005766052
387,-17.689159520811042
388,0.0
425,0.0
450,0.0
451,0.0
452,-18.389669977716284
453,0.0
490,0.0
515,0.0
516,0.0
542,0.0
592,0.0
632,4197148.816195474
686,0.6000000000000001
687,0.6000000000000001
688,1.2000000000000002
2,1, 1,21, 0,10,30.00,40.00,WinterDesignDay
250,16.97002598783869
251,5823190.430652025
336,0.0
385,17.016255862688613
386,28.678087005766074
387,-17.68913580678729
388,0.0
425,0.0
450,0.0
451,0.0
452,-18.389640886443985
453,0.0
490,0.0
515,0.0
516,0.0
542,0.0
592,0.0
632,5734094.789882399
686,1.0000000000000009
687,1.0000000000000009
688,2.0000000000000018
2,1, 1,21, 0,10,40.00,50.00,WinterDesignDay
250,17.11598880016477
251,4261854.457336164
336,0.0
385,17.016255862688613
386,28.678087005766074
387,-17.68916110713649
388,0.0
425,0.0
450,0.0
451,0.0
452,-18.389618513616814
453,0.0
490,0.0
515,0.0
516,0.0
542,0.0
592,0.0
632,4214615.526550413
686,0.6666666666666672
687,0.6666666666666672
688,1.3333333333333344
2,1, 1,21, 0,10,50.00,60.00,WinterDesignDay
250,16.70231715869
251,4191369.9146270207
336,0.0
385,16.482922529355267
386,28.678087005766052
387,-17.6891611801481
388,0.0
425,0.0
450,0.0
451,0.0
452,-18.389670157771942
453,0.0
490,0.0
515,0.0
516,0.0
542,0.0
592,0.0
632,4197148.828717937
686,0.6000000000000001
687,0.6000000000000001
688,1.2000000000000002
2,1, 1,21, 0,11, 0.00,10.00,WinterDesignDay
250,16.97002598777765
251,5823190.446764199
336,0.0
385,17.0162558626886
386,28.678087005766052
387,-17.68913744621576
388,0.0
425,0.0
450,0.0
451,0.0
452,-18.389641064317956
453,0.0
490,0.0
515,0.0
516,0.0
542,0.0
592,0.0
632,5734094.806243643
686,1.0
687,1.0
688,2.0
2,1, 1,21, 0,11,10.00,20.00,WinterDesignDay
250,17.115988798826674
251,4261854.46784606
336,0.0
385,17.0162558626886
386,28.678087005766052
387,-17.689162719503045
388,0.0
425,0.0
450,0.0
451,0.0
452,-18.389618688637174
453,0.0
490,0.0
515,0.0
516,0.0
542,0.0
592,0.0
632,4214615.537071591
686,0.6666666666666667
687,0.6666666666666667
688,1.3333333333333335
2,1, 1,21, 0,11,20.00,30.00,WinterDesignDay
250,16.702317157355996
251,4191369.926253692
336,0.0
385,16.482922529355267
386,28.678087005766052
387,-17.689162774317772
388,0.0
425,0.0
450,0.0
451,0.0
452,-18.389670330754758
453,0.0
490,0.0
515,0.0
516,0.0
542,0.0
592,0.0
632,4197148.840748513
686,0.6000000000000001
687,0.6000000000000001
688,1.2000000000000002
2,1, 1,21, 0,11,30.00,40.00,WinterDesignDay
250,16.970025987719037
251,5823190.462243473
336,0.0
385,17.016255862688613
386,28.678087005766074
387,-17.689139021258963
388,0.0
425,0.0
450,0.0
451,0.0
452,-18.38964123520482
453,0.0
490,0.0
515,0.0
516,0.0
542,0.0
592,0.0
632,5734094.821962201
686,1.0000000000000009
687,1.0000000000000009
688,2.0000000000000018
2,1, 1,21, 0,11,40.00,50.00,WinterDesignDay
250,17.11598879754117
251,4261854.477943048
336,0.0
385,17.016255862688613
386,28.678087005766074
387,-17.68916426854736
388,0.0
425,0.0
450,0.0
451,0.0
452,-18.38961885678253
453,0.0
490,0.0
515,0.0
516,0.0
542,0.0
592,0.0
632,4214615.547179418
686,0.6666666666666672
687,0.6666666666666672
688,1.3333333333333344
2,1, 1,21, 0,11,50.00,60.00,WinterDesignDay
250,16.70231715607439
251,4191369.937423677
336,0.0
385,16.482922529355267
386,28.678087005766052
387,-17.689164305879714
388,0.0
425,0.0
450,0.0
451,0.0
452,-18.389670496942575
453,0.0
490,0.0
515,0.0
516,0.0
542,0.0
592,0.0
632,4197148.852306539
686,0.6000000000000001
687,0.6000000000000001
688,1.2000000000000002
2,1, 1,21, 0,12, 0.00,10.00,WinterDesignDay
250,16.9700259876627
251,5823190.477114795
336,0.0
385,17.0162558626886
386,28.678087005766052
387,-17.689140534445322
388,0.0
425,0.0
450,0.0
451,0.0
452,-18.389641399379023
453,0.0
490,0.0
515,0.0
516,0.0
542,0.0
592,0.0
632,5734094.837063409
686,1.0
687,1.0
688,2.0
2,1, 1,21, 0,12,10.00,20.00,WinterDesignDay
250,17.11598879630613
251,4261854.487643511
336,0.0
385,17.0162558626886
386,28.678087005766052
387,-17.689165756756037
388,0.0
425,0.0
450,0.0
451,0.0
452,-18.389619018322946
453,0.0
490,0.0
515,0.0
516,0.0
542,0.0
592,0.0
632,4214615.556890296
686,0.6666666666666667
687,0.6666666666666667
688,1.3333333333333335
2,1, 1,21, 0,12,20.00,30.00,WinterDesignDay
250,16.702317154843122
251,4191369.9481548965
336,0.0
385,16.482922529355267
386,28.678087005766052
387,-17.689165777292587
388,0.0
425,0.0
450,0.0
451,0.0
452,-18.38967065660239
453,0.0
490,0.0
515,0.0
516,0.0
542,0.0
592,0.0
632,4197148.863410558
686,0.6000000000000001
687,0.6000000000000001
688,1.2000000000000002
2,1, 1,21, 0,12,30.00,40.00,WinterDesignDay
250,16.9700259876086
251,5823190.491401901
336,0.0
385,17.016255862688613
386,28.678087005766074
387,-17.68914198820416
388,0.0
425,0.0
450,0.0
451,0.0
452,-18.389641557104344
453,0.0
490,0.0
515,0.0
516,0.0
542,0.0
592,0.0
632,5734094.851571373
686,1.0000000000000009
687,1.0000000000000009
688,2.0000000000000018
2,1, 1,21, 0,12,40.00,50.00,WinterDesignDay
250,17.11598879511963
251,4261854.496962894
336,0.0
385,17.016255862688613
386,28.678087005766074
387,-17.689167186517803
388,0.0
425,0.0
450,0.0
451,0.0
452,-18.389619173517943
453,0.0
490,0.0
515,0.0
516,0.0
542,0.0
592,0.0
632,4214615.566219684
686,0.6666666666666672
687,0.6666666666666672
688,1.3333333333333344
2,1, 1,21, 0,12,50.00,60.00,WinterDesignDay
250,16.70231715366022
251,4191369.958464608
336,0.0
385,16.482922529355267
386,28.678087005766052
387,-17.689167190918248
388,0.0
425,0.0
450,0.0
451,0.0
452,-18.389670809990644
453,0.0
490,0.0
515,0.0
516,0.0
542,0.0
592,0.0
632,4197148.874078426
686,0.6000000000000001
687,0.6000000000000001
688,1.2000000000000002
2,1, 1,21, 0,13, 0.00,10.00,WinterDesignDay
250,16.970025987556603
251,5823190.5051278435
336,0.0
385,17.0162558626886
386,28.678087005766052
387,-17.6891433848693
388,0.0
425,0.0
450,0.0
451,0.0
452,-18.389641708634088
453,0.0
490,0.0
515,0.0
516,0.0
542,0.0
592,0.0
632,5734094.865509497
686,1.0
687,1.0
688,2.0
2,1, 1,21, 0,13,10.00,20.00,WinterDesignDay
250,17.115988793979707
251,4261854.5059162285
336,0.0
385,17.0162558626886
386,28.678087005766052
387,-17.68916856012867
388,0.0
425,0.0
450,0.0
451,0.0
452,-18.389619322616774
453,0.0
490,0.0
515,0.0
516,0.0
542,0.0
592,0.0
632,4214615.57518263
686,0.6666666666666667
687,0.6666666666666667
688,1.3333333333333335
2,1, 1,21, 0,13,20.00,30.00,WinterDesignDay
250,16.702317152523783
251,4191369.9683693526
336,0.0
385,16.482922529355267
386,28.678087005766052
387,-17.689168549026633
388,0.0
425,0.0
450,0.0
451,0.0
452,-18.389670957353744
453,0.0
490,0.0
515,0.0
516,0.0
542,0.0
592,0.0
632,4197148.884327256
686,0.6000000000000001
687,0.6000000000000001
688,1.2000000000000002
2,1, 1,21, 0,13,30.00,40.00,WinterDesignDay
250,16.970025987506673
251,5823190.518314628
336,0.0
385,17.016255862688613
386,28.678087005766074
387,-17.689144726683338
388,0.0
425,0.0
450,0.0
451,0.0
452,-18.389641854211714
453,0.0
490,0.0
515,0.0
516,0.0
542,0.0
592,0.0
632,5734094.878900132
686,1.0000000000000009
687,1.0000000000000009
688,2.0000000000000018
2,1, 1,21, 0,13,40.00,50.00,WinterDesignDay
250,17.115988792884593
251,4261854.514517873
336,0.0
385,17.016255862688613
386,28.678087005766074
387,-17.689169879793383
388,0.0
425,0.0
450,0.0
451,0.0
452,-18.38961946585898
453,0.0
490,0.0
515,0.0
516,0.0
542,0.0
592,0.0
632,4214615.583793508
686,0.6666666666666672
687,0.6666666666666672
688,1.3333333333333344
2,1, 1,21, 0,13,50.00,60.00,WinterDesignDay
250,16.70231715143199
251,4191369.9778849795
336,0.0
385,16.482922529355267
386,28.678087005766052
387,-17.68916985379757
388,0.0
425,0.0
450,0.0
451,0.0
452,-18.389671098928385
453,0.0
490,0.0
515,0.0
516,0.0
542,0.0
592,0.0
632,4197148.894173454
686,0.6000000000000001
687,0.6000000000000001
688,1.2000000000000002