Program Version,EnergyPlus, Version 24.2.0-94a887817b, YMD=2025.01.30 20:37
1,5,Environment Title[],Latitude[deg],Longitude[deg],Time Zone[],Elevation[m]
2,8,Day of Simulation[],Month[],Day of Month[],DST Indicator[1=yes 0=no],Hour[],StartMinute[],EndMinute[],DayType
3,5,Cumulative Day of Simulation[],Month[],Day of Month[],DST Indicator[1=yes 0=no],DayType  ! When Daily Meters Requested
4,2,Cumulative Days of Simulation[],Month[]  ! When Monthly Meters Requested
5,1,Cumulative Days of Simulation[] ! When Run Period Meters Requested
6,1,Calendar Year of Simulation[] ! When Annual Meters Requested
11,9,Electricity:Facility [J] !Monthly [Value,Min,Day,Hour,Minute,Max,Day,Hour,Minute]
23,9,Electricity:Building [J] !Monthly [Value,Min,Day,Hour,Minute,Max,Day,Hour,Minute]
59,9,InteriorLights:Electricity [J] !Monthly [Value,Min,Day,Hour,Minute,Max,Day,Hour,Minute]
521,9,Electricity:HVAC [J] !Monthly [Value,Min,Day,Hour,Minute,Max,Day,Hour,Minute]
637,9,NaturalGas:Facility [J] !Monthly [Value,Min,Day,Hour,Minute,Max,Day,Hour,Minute]
649,9,NaturalGas:HVAC [J] !Monthly [Value,Min,Day,Hour,Minute,Max,Day,Hour,Minute]
13,11,Electricity:Facility [J] !RunPeriod [Value,Min,Month,Day,Hour,Minute,Max,Month,Day,Hour,Minute]
25,11,Electricity:Building [J] !RunPeriod [Value,Min,Month,Day,Hour,Minute,Max,Month,Day,Hour,Minute]
61,11,InteriorLights:Electricity [J] !RunPeriod [Value,Min,Month,Day,Hour,Minute,Max,Month,Day,Hour,Minute]
523,11,Electricity:HVAC [J] !RunPeriod [Value,Min,Month,Day,Hour,Minute,Max,Month,Day,Hour,Minute]
639,11,NaturalGas:Facility [J] !RunPeriod [Value,Min,Month,Day,Hour,Minute,Max,Month,Day,Hour,Minute]
651,11,NaturalGas:HVAC [J] !RunPeriod [Value,Min,Month,Day,Hour,Minute,Max,Month,Day,Hour,Minute]
End of Data Dictionary
1,RUN PERIOD 1,  41.98, -87.92,  -6.00, 201.00
4,31, 1
11,9981714049.921227,553394.9658057422,15, 4,50,3673165.426645722, 9,14,30
23,2086488011.9126778,136770.16381367893,17,19,10,1133614.203440128, 7, 9,60
59,970200000.0,30000.0, 1, 1,10,600000.0, 1, 8,10
521,7895226038.008598,0.0,17,12,60,2590932.721829255,12, 4,60
637,35701414139.672424,0.0, 9,14,60,28007194.49077653,27, 8,20
649,35701414139.672424,0.0, 9,14,60,28007194.49077653,27, 8,20
4,59, 2
11,9083704979.222677,307760.66442015424,23,15,30,-99999999999999.0, 9,14,30
23,1820837953.210404,124556.90274819604,23,14,60,-99999999999999.0, 7, 9,60
59,848160000.0,99999999999999.0, 1, 1,10,-99999999999999.0, 1, 8,10
521,7262867026.012298,99999999999999.0,17,12,60,2602642.3484675237,17,15,60
637,24484997456.298916,99999999999999.0, 9,14,60,-99999999999999.0,27, 8,20
649,24484997456.298916,99999999999999.0, 9,14,60,-99999999999999.0,27, 8,20
4,90, 3
11,8630128408.684921,104806.51911326178,27,20,20,-99999999999999.0, 9,14,30
23,1884130886.1321797,101917.62414168919,27,19,60,-99999999999999.0, 7, 9,60
59,897480000.0,99999999999999.0, 1, 1,10,-99999999999999.0, 1, 8,10
521,6745997522.5527315,99999999999999.0,17,12,60,-99999999999999.0,17,15,60
637,12603089943.685322,99999999999999.0, 9,14,60,-99999999999999.0,27, 8,20
649,12603089943.685322,99999999999999.0, 9,14,60,-99999999999999.0,27, 8,20
4,120, 4
11,6074709221.793813,98721.79531801434,19, 5,60,-99999999999999.0, 9,14,30
23,1850121803.4244292,98721.79531801434,19, 5,60,-99999999999999.0, 7, 9,60
59,929520000.0,99999999999999.0, 1, 1,10,-99999999999999.0, 1, 8,10
521,4224587418.369375,99999999999999.0,17,12,60,-99999999999999.0,17,15,60
637,6854163954.913583,99999999999999.0, 9,14,60,-99999999999999.0,27, 8,20
649,6854163954.913583,99999999999999.0, 9,14,60,-99999999999999.0,27, 8,20
4,151, 5
11,3379954608.3651786,92285.67609412507,25,10,60,-99999999999999.0, 9,14,30
23,1855973786.609071,87226.56876974665, 4,16,60,-99999999999999.0, 7, 9,60
59,970200000.0,99999999999999.0, 1, 1,10,-99999999999999.0, 1, 8,10
521,1523980821.7561085,99999999999999.0,17,12,60,-99999999999999.0,17,15,60
637,2095866168.332885,99999999999999.0, 9,14,60,-99999999999999.0,27, 8,20
649,2095866168.332885,99999999999999.0, 9,14,60,-99999999999999.0,27, 8,20
4,181, 6
11,2291003126.674406,84669.47745497909, 9,12,60,-99999999999999.0, 9,14,30
23,1633446996.5543275,30000.0, 8,13,50,-99999999999999.0, 7, 9,60
59,856800000.0,99999999999999.0, 1, 1,10,-99999999999999.0, 1, 8,10
521,657556130.1200776,99999999999999.0,17,12,60,-99999999999999.0,17,15,60
637,342984042.22612745,99999999999999.0, 9,14,60,-99999999999999.0,27, 8,20
649,342984042.22612745,99999999999999.0, 9,14,60,-99999999999999.0,27, 8,20
4,212, 7
11,2542226854.3841677,99999999999999.0, 9,12,60,-99999999999999.0, 9,14,30
23,1775021600.9021018,99999999999999.0, 8,13,50,-99999999999999.0, 7, 9,60
59,970200000.0,99999999999999.0, 1, 1,10,-99999999999999.0, 1, 8,10
521,767205253.4820642,99999999999999.0,17,12,60,-99999999999999.0,17,15,60
637,26205407.809139524,99999999999999.0, 9,14,60,-99999999999999.0,27, 8,20
649,26205407.809139524,99999999999999.0, 9,14,60,-99999999999999.0,27, 8,20
4,243, 8
11,2222857311.4776974,99999999999999.0, 9,12,60,-99999999999999.0, 9,14,30
23,1744161618.4544535,99999999999999.0, 8,13,50,-99999999999999.0, 7, 9,60
59,933840000.0,99999999999999.0, 1, 1,10,-99999999999999.0, 1, 8,10
521,478695693.0232426,99999999999999.0,17,12,60,-99999999999999.0,17,15,60
637,105627585.8554319,99999999999999.0, 9,14,60,-99999999999999.0,27, 8,20
649,105627585.8554319,99999999999999.0, 9,14,60,-99999999999999.0,27, 8,20
4,273, 9
11,2579598966.8871527,99999999999999.0, 9,12,60,-99999999999999.0, 9,14,30
23,1690423505.2448037,99999999999999.0, 8,13,50,-99999999999999.0, 7, 9,60
59,893160000.0,99999999999999.0, 1, 1,10,-99999999999999.0, 1, 8,10
521,889175461.6423472,99999999999999.0,17,12,60,-99999999999999.0,17,15,60
637,885661925.2137498,99999999999999.0, 9,14,60,-99999999999999.0,27, 8,20
649,885661925.2137498,99999999999999.0, 9,14,60,-99999999999999.0,27, 8,20
4,304,10
11,5127660943.031398,99999999999999.0, 9,12,60,-99999999999999.0, 9,14,30
23,1908744156.8827527,99999999999999.0, 8,13,50,-99999999999999.0, 7, 9,60
59,970200000.0,99999999999999.0, 1, 1,10,-99999999999999.0, 1, 8,10
521,3218916786.14865,99999999999999.0,17,12,60,-99999999999999.0,17,15,60
637,4699186430.540735,99999999999999.0, 9,14,60,-99999999999999.0,27, 8,20
649,4699186430.540735,99999999999999.0, 9,14,60,-99999999999999.0,27, 8,20
4,334,11
11,7823384506.217255,99999999999999.0, 9,12,60,-99999999999999.0, 9,14,30
23,1849261131.5435956,99999999999999.0, 8,13,50,-99999999999999.0, 7, 9,60
59,893160000.0,99999999999999.0, 1, 1,10,-99999999999999.0, 1, 8,10
521,5974123374.673671,99999999999999.0,17,12,60,-99999999999999.0,17,15,60
637,14295556834.04503,99999999999999.0, 9,14,60,-99999999999999.0,27, 8,20
649,14295556834.04503,99999999999999.0, 9,14,60,-99999999999999.0,27, 8,20
4,365,12
11,10747313160.934925,99999999999999.0, 9,12,60,-99999999999999.0, 9,14,30
23,2008050730.7546978,99999999999999.0, 8,13,50,-99999999999999.0, 7, 9,60
59,933840000.0,99999999999999.0, 1, 1,10,-99999999999999.0, 1, 8,10
521,8739262430.180267,99999999999999.0,17,12,60,-99999999999999.0,17,15,60
637,29986389785.160988,99999999999999.0, 9,14,60,-99999999999999.0,27, 8,20
649,29986389785.160988,99999999999999.0, 9,14,60,-99999999999999.0,27, 8,20
5,365
13,70484256137.59482,84669.47745497909, 6, 9,12,60,3673165.426645722, 1, 9,14,30
25,22106662181.62564,30000.0, 6, 8,13,50,1133614.203440128, 1, 7, 9,60
61,11066760000.0,30000.0, 1, 1, 1,10,600000.0, 1, 1, 8,10
523,48377593955.97005,0.0, 1,17,12,60,2602642.3484675237, 2,17,15,60
639,132081143673.75436,0.0, 1, 9,14,60,28007194.49077653, 1,27, 8,20
651,132081143673.75436,0.0, 1, 9,14,60,28007194.49077653, 1,27, 8,20
1,RUN PERIOD 2,  41.98, -87.92,  -6.00, 201.00
4,1, 7
11,79120730.20231244,99999999999999.0, 9,12,60,-99999999999999.0, 9,14,30
23,72308249.42542082,99999999999999.0, 8,13,50,-99999999999999.0, 7, 9,60
59,40680000.0,99999999999999.0, 1, 1,10,-99999999999999.0, 1, 8,10
521,6812480.776891592,99999999999999.0,17,12,60,-99999999999999.0,17,15,60
637,0.0,99999999999999.0, 9,14,60,-99999999999999.0,27, 8,20
649,0.0,99999999999999.0, 9,14,60,-99999999999999.0,27, 8,20
5,1
13,79120730.20231244,99999999999999.0, 6, 9,12,60,-99999999999999.0, 1, 9,14,30
25,72308249.42542082,99999999999999.0, 6, 8,13,50,-99999999999999.0, 1, 7, 9,60
61,40680000.0,99999999999999.0, 1, 1, 1,10,-99999999999999.0, 1, 1, 8,10
523,6812480.776891592,99999999999999.0, 1,17,12,60,-99999999999999.0, 2,17,15,60
639,0.0,99999999999999.0, 1, 9,14,60,-99999999999999.0, 1,27, 8,20
651,0.0,99999999999999.0, 1, 9,14,60,-99999999999999.0, 1,27, 8,20
End of Data
 Number of Records Written=          90
