Program Version,EnergyPlus, Version 24.2.0-94a887817b, YMD=2025.02.04 15:39
1,5,Environment Title[],Latitude[deg],Longitude[deg],Time Zone[],Elevation[m]
2,8,Day of Simulation[],Month[],Day of Month[],DST Indicator[1=yes 0=no],Hour[],StartMinute[],EndMinute[],DayType
3,5,Cumulative Day of Simulation[],Month[],Day of Month[],DST Indicator[1=yes 0=no],DayType  ! When Daily Report Variables Requested
4,2,Cumulative Days of Simulation[],Month[]  ! When Monthly Report Variables Requested
5,1,Cumulative Days of Simulation[] ! When Run Period Report Variables Requested
6,1,Calendar Year of Simulation[] ! When Annual Report Variables Requested
250,1,LIVING ZONE,Zone Air Temperature [C] !TimeStep,REPORTSCH
251,1,LIVING ZONE,Zone Air System Sensible Heating Energy [J] !TimeStep,REPORTSCH
336,1,LIVING ZONE,Zone Air System Sensible Cooling Energy [J] !TimeStep,REPORTSCH
385,1,LIVING ZONE,Zone Thermostat Heating Setpoint Temperature [C] !TimeStep,REPORTSCH
386,1,LIVING ZONE,Zone Thermostat Cooling Setpoint Temperature [C] !TimeStep,REPORTSCH
387,1,GARAGE ZONE,Zone Air Temperature [C] !TimeStep,REPORTSCH
388,1,GARAGE ZONE,Zone Air System Sensible Heating Energy [J] !TimeStep,REPORTSCH
425,1,GARAGE ZONE,Zone Air System Sensible Cooling Energy [J] !TimeStep,REPORTSCH
450,1,GARAGE ZONE,Zone Thermostat Heating Setpoint Temperature [C] !TimeStep,REPORTSCH
451,1,GARAGE ZONE,Zone Thermostat Cooling Setpoint Temperature [C] !TimeStep,REPORTSCH
452,1,ATTIC ZONE,Zone Air Temperature [C] !TimeStep,REPORTSCH
453,1,ATTIC ZONE,Zone Air System Sensible Heating Energy [J] !TimeStep,REPORTSCH
490,1,ATTIC ZONE,Zone Air System Sensible Cooling Energy [J] !TimeStep,REPORTSCH
515,1,ATTIC ZONE,Zone Thermostat Heating Setpoint Temperature [C] !TimeStep,REPORTSCH
516,1,ATTIC ZONE,Zone Thermostat Cooling Setpoint Temperature [C] !TimeStep,REPORTSCH
542,1,ACDXCOIL 1,Cooling Coil Total Cooling Energy [J] !TimeStep,REPORTSCH
592,1,HEAT PUMP DX HEATING COIL 1,Heating Coil Heating Energy [J] !TimeStep,REPORTSCH
632,1,SUPP HEATING COIL 1,Heating Coil Heating Energy [J] !TimeStep,REPORTSCH
686,1,TWOSPEED HEAT PUMP 1,Unitary System DX Coil Cycling Ratio [] !TimeStep,REPORTSCH
687,1,TWOSPEED HEAT PUMP 1,Unitary System DX Coil Speed Ratio [] !TimeStep,REPORTSCH
688,1,TWOSPEED HEAT PUMP 1,Unitary System DX Coil Speed Level [] !TimeStep,REPORTSCH
End of Data Dictionary
1,RUN PERIOD 1,  41.98, -87.92,  -6.00, 201.00
2,21, 1,21, 0, 1, 0.00,10.00,Monday
250,-0.8486886569878861
251,38098142.39669699
336,0.0
385,17.911125513381094
386,28.544662181717428
387,-0.9479664282944004
388,0.0
425,0.0
450,0.0
451,0.0
452,-1.9753760655486865
453,0.0
490,0.0
515,0.0
516,0.0
542,0.0
592,4839743.985079641
632,33000000.0
686,1.0
687,1.0
688,2.0
2,21, 1,21, 0, 1,10.00,20.00,Monday
250,-0.8488334166483802
251,38082771.03064072
336,0.0
385,17.911125513381094
386,28.544662181717428
387,-0.956326027447287
388,0.0
425,0.0
450,0.0
451,0.0
452,-1.9572288726331066
453,0.0
490,0.0
515,0.0
516,0.0
542,0.0
592,4823801.676011796
632,33000000.0
686,1.0
687,1.0
688,2.0
2,21, 1,21, 0, 1,20.00,30.00,Monday
250,-0.8490145596581377
251,38066847.107428044
336,0.0
385,17.911125513381094
386,28.544662181717428
387,-0.9659215165910163
388,0.0
425,0.0
450,0.0
451,0.0
452,-1.954150791856605
453,0.0
490,0.0
515,0.0
516,0.0
542,0.0
592,4807858.162905219
632,33000000.0
686,1.0
687,1.0
688,2.0
2,21, 1,21, 0, 1,30.00,40.00,Monday
250,-0.8491917290191578
251,38050900.25512158
336,0.0
385,17.911125513381094
386,28.544662181717428
387,-0.97695761002815
388,0.0
425,0.0
450,0.0
451,0.0
452,-1.9670263457937027
453,0.0
490,0.0
515,0.0
516,0.0
542,0.0
592,4791913.445623511
632,33000000.0
686,1.0
687,1.0
688,2.0
2,21, 1,21, 0, 1,40.00,50.00,Monday
250,-0.8493702214917442
251,38034955.050011136
336,0.0
385,17.911125513381094
386,28.544662181717428
387,-0.9895915726748155
388,0.0
425,0.0
450,0.0
451,0.0
452,-1.9942341515281161
453,0.0
490,0.0
515,0.0
516,0.0
542,0.0
592,4775967.524030239
632,33000000.0
686,1.0
687,1.0
688,2.0
2,21, 1,21, 0, 1,50.00,60.00,Monday
250,-0.8495492648476478
251,38019008.22474209
336,0.0
385,17.911125513381094
386,28.544662181717428
387,-1.0040121728220037
388,0.0
425,0.0
450,0.0
451,0.0
452,-2.0342454983551512
453,0.0
490,0.0
515,0.0
516,0.0
542,0.0
592,4760020.397988958
632,33000000.0
686,1.0
687,1.0
688,2.0
2,21, 1,21, 0, 2, 0.00,10.00,Monday
250,-0.8496230556062175
251,38018951.55774061
336,0.0
385,17.911125513381094
386,28.544662181717428
387,-1.0195366142382831
388,0.0
425,0.0
450,0.0
451,0.0
452,-2.0810144489882614
453,0.0
490,0.0
515,0.0
516,0.0
542,0.0
592,4760020.397988958
632,33000000.0
686,1.0
687,1.0
688,2.0
2,21, 1,21, 0, 2,10.00,20.00,Monday
250,-0.849694443347723
251,38018950.263900384
336,0.0
385,17.911125513381094
386,28.544662181717428
387,-1.0352215714309774
388,0.0
425,0.0
450,0.0
451,0.0
452,-2.1237495265427317
453,0.0
490,0.0
515,0.0
516,0.0
542,0.0
592,4760020.397988958
632,33000000.0
686,1.0
687,1.0
688,2.0
2,21, 1,21, 0, 2,20.00,30.00,Monday
250,-0.8497656140806977
251,38018950.14704947
336,0.0
385,17.911125513381094
386,28.544662181717428
387,-1.0505131527691722
388,0.0
425,0.0
450,0.0
451,0.0
452,-2.1552205835384903
453,0.0
490,0.0
515,0.0
516,0.0
542,0.0
592,4760020.397988958
632,33000000.0
686,1.0
687,1.0
688,2.0
2,21, 1,21, 0, 2,30.00,40.00,Monday
250,-0.8498354163694766
251,38018949.41023928
336,0.0
385,17.911125513381094
386,28.544662181717428
387,-1.0650899579784754
388,0.0
425,0.0
450,0.0
451,0.0
452,-2.1746038965323096
453,0.0
490,0.0
515,0.0
516,0.0
542,0.0
592,4760020.397988958
632,33000000.0
686,1.0
687,1.0
688,2.0
2,21, 1,21, 0, 2,40.00,50.00,Monday
250,-0.8499041768264191
251,38018948.84928535
336,0.0
385,17.911125513381094
386,28.544662181717428
387,-1.0788115700534484
388,0.0
425,0.0
450,0.0
451,0.0
452,-2.184744427822337
453,0.0
490,0.0
515,0.0
516,0.0
542,0.0
592,4760020.397988956
632,33000000.0
686,1.0
687,1.0
688,2.0
2,21, 1,21, 0, 2,50.00,60.00,Monday
250,-0.8499717178999675
251,38018948.19273216
336,0.0
385,17.911125513381094
386,28.544662181717428
387,-1.0916406384376605
388,0.0
425,0.0
450,0.0
451,0.0
452,-2.1887909557823244
453,0.0
490,0.0
515,0.0
516,0.0
542,0.0
592,4760020.397988959
632,33000000.0
686,1.0
687,1.0
688,2.0
2,21, 1,21, 0, 3, 0.00,10.00,Monday
250,-0.7675974588162312
251,37977097.51188592
336,0.0
385,17.911125513381094
386,28.544662181717428
387,-1.0931874710725078
388,0.0
425,0.0
450,0.0
451,0.0
452,-2.1813106158146573
453,0.0
490,0.0
515,0.0
516,0.0
542,0.0
592,4762558.894114005
632,33000000.0
686,1.0
687,1.0
688,2.0
2,21, 1,21, 0, 3,10.00,20.00,Monday
250,-0.6840494240066826
251,37978893.2216106
336,0.0
385,17.911125513381094
386,28.544662181717428
387,-1.082138134659345
388,0.0
425,0.0
450,0.0
451,0.0
452,-2.156327513799569
453,0.0
490,0.0
515,0.0
516,0.0
542,0.0
592,4764988.435730969
632,33000000.0
686,1.0
687,1.0
688,2.0
2,21, 1,21, 0, 3,20.00,30.00,Monday
250,-0.6009140631578364
251,37981433.37727419
336,0.0
385,17.911125513381094
386,28.544662181717428
387,-1.062899761331011
388,0.0
425,0.0
450,0.0
451,0.0
452,-2.112393972380146
453,0.0
490,0.0
515,0.0
516,0.0
542,0.0
592,4767308.250738335
632,33000000.0
686,1.0
687,1.0
688,2.0
2,21, 1,21, 0, 3,30.00,40.00,Monday
250,-0.5177380632305028
251,37973613.15035575
336,0.0
385,17.911125513381094
386,28.544662181717428
387,-1.0392672518727772
388,0.0
425,0.0
450,0.0
451,0.0
452,-2.052643322321838
453,0.0
490,0.0
515,0.0
516,0.0
542,0.0
592,4769517.689516205
632,32989994.085542407
686,1.0
687,1.0
688,2.0
2,21, 1,21, 0, 3,40.00,50.00,Monday
250,-0.43476849853821664
251,37930528.26073385
336,0.0
385,17.911125513381094
386,28.544662181717428
387,-1.0125450447521425
388,0.0
425,0.0
450,0.0
451,0.0
452,-1.981560443321431
453,0.0
490,0.0
515,0.0
516,0.0
542,0.0
592,4771616.115684973
632,32944701.482602306
686,1.0
687,1.0
688,2.0
2,21, 1,21, 0, 3,50.00,60.00,Monday
250,-0.3517876625975743
251,37887444.095927216
336,0.0
385,17.911125513381094
386,28.544662181717428
387,-0.9824781050643578
388,0.0
425,0.0
450,0.0
451,0.0
452,-1.9027634639410977
453,0.0
490,0.0
515,0.0
516,0.0
542,0.0
592,4773602.736238396
632,32899638.657405525
686,1.0
687,1.0
688,2.0
2,21, 1,21, 0, 4, 0.00,10.00,Monday
250,-0.3512139022375961
251,37888748.258172624
336,0.0
385,17.911125513381094
386,28.544662181717428
387,-0.9597465764596301
388,0.0
425,0.0
450,0.0
451,0.0
452,-1.82654130382533
453,0.0
490,0.0
515,0.0
516,0.0
542,0.0
592,4773428.982371633
632,32856736.85485905
686,1.0
687,1.0
688,2.0
2,21, 1,21, 0, 4,10.00,20.00,Monday
250,-0.35153041122244544
251,37888973.42235103
336,0.0
385,17.911125513381094
386,28.544662181717428
387,-0.9471602993565982
388,0.0
425,0.0
450,0.0
451,0.0
452,-1.7619344425013423
453,0.0
490,0.0
515,0.0
516,0.0
542,0.0
592,4773255.169447958
632,32856656.363213815
686,1.0
687,1.0
688,2.0
2,21, 1,21, 0, 4,20.00,30.00,Monday
250,-0.3514104214575518
251,37888940.90884618
336,0.0
385,17.911125513381094
386,28.544662181717428
387,-0.9411880193915204
388,0.0
425,0.0
450,0.0
451,0.0
452,-1.712546828578093
453,0.0
490,0.0
515,0.0
516,0.0
542,0.0
592,4773081.29743726
632,32857032.80535301
686,1.0
687,1.0
688,2.0
2,21, 1,21, 0, 4,30.00,40.00,Monday
250,-0.35138338826185883
251,37888966.75615259
336,0.0
385,17.911125513381094
386,28.544662181717428
387,-0.9379494898506425
388,0.0
425,0.0
450,0.0
451,0.0
452,-1.6767179628373274
453,0.0
490,0.0
515,0.0
516,0.0
542,0.0
592,4772907.3663094025
632,32857182.52047164
686,1.0
687,1.0
688,2.0
2,21, 1,21, 0, 4,40.00,50.00,Monday
250,-0.35136177456082807
251,37888993.86911989
336,0.0
385,17.911125513381094
386,28.544662181717428
387,-0.9356599387895916
388,0.0
425,0.0
450,0.0
451,0.0
452,-1.6507768930955167
453,0.0
490,0.0
515,0.0
516,0.0
542,0.0
592,4772733.376034233
632,32857380.704962477
686,1.0
687,1.0
688,2.0
2,21, 1,21, 0, 4,50.00,60.00,Monday
250,-0.3513397696057203
251,37889020.68690663
336,0.0
385,17.911125513381094
386,28.544662181717428
387,-0.9341451207718062
388,0.0
425,0.0
450,0.0
451,0.0
452,-1.6316659016160815
453,0.0
490,0.0
515,0.0
516,0.0
542,0.0
592,4772559.326581574
632,32857581.782930903
686,1.0
687,1.0
688,2.0
2,21, 1,21, 0, 5, 0.00,10.00,Monday
250,-0.3513191150624988
251,37889048.26301808
336,0.0
385,17.911125513381094
386,28.544662181717428
387,-0.9334633642963756
388,0.0
425,0.0
450,0.0
451,0.0
452,-1.6167697422250913
453,0.0
490,0.0
515,0.0
516,0.0
542,0.0
592,4759720.858689582
632,32870447.09965631
686,1.0
687,1.0
688,2.0
2,21, 1,21, 0, 5,10.00,20.00,Monday
250,-0.3512905621839293
251,37890347.73179585
336,0.0
385,17.911125513381094
386,28.544662181717428
387,-0.933479372344861
388,0.0
425,0.0
450,0.0
451,0.0
452,-1.6037774973505856
453,0.0
490,0.0
515,0.0
516,0.0
542,0.0
592,4746877.262331866
632,32884594.419124976
686,1.0
687,1.0
688,2.0
2,21, 1,21, 0, 5,20.00,30.00,Monday
250,-0.3512619718427152
251,37891666.18186995
336,0.0
385,17.911125513381094
386,28.544662181717428
387,-0.9339631496045411
388,0.0
425,0.0
450,0.0
451,0.0
452,-1.59128766983656
453,0.0
490,0.0
515,0.0
516,0.0
542,0.0
592,4734028.534436011
632,32898761.617813922
686,1.0
687,1.0
688,2.0
2,21, 1,21, 0, 5,30.00,40.00,Monday
250,-0.3512335345506148
251,37892978.47129184
336,0.0
385,17.911125513381094
386,28.544662181717428
387,-0.9347105536491483
388,0.0
425,0.0
450,0.0
451,0.0
452,-1.5788674108048635
453,0.0
490,0.0
515,0.0
516,0.0
542,0.0
592,4721174.671927155
632,32912927.687848024
686,1.0
687,1.0
688,2.0
2,21, 1,21, 0, 5,40.00,50.00,Monday
250,-0.3512050486392171
251,37894292.62737659
336,0.0
385,17.911125513381094
386,28.544662181717428
387,-0.9355854343386485
388,0.0
425,0.0
450,0.0
451,0.0
452,-1.5665860255576438
453,0.0
490,0.0
515,0.0
516,0.0
542,0.0
592,4708315.671727969
632,32927100.8708579
686,1.0
687,1.0
688,2.0
2,21, 1,21, 0, 5,50.00,60.00,Monday
250,-0.3511764456552461
251,37895607.329234205
336,0.0
385,17.911125513381094
386,28.544662181717428
387,-0.9365086749700684
388,0.0
425,0.0
450,0.0
451,0.0
452,-1.554594729427169
453,0.0
490,0.0
515,0.0
516,0.0
542,0.0
592,4695451.530758675
632,32941279.777286094
686,1.0
687,1.0
688,2.0
2,21, 1,21, 0, 6, 0.00,10.00,Monday
250,-0.35114654919062793
251,37896921.84902076
336,0.0
385,17.911125513381094
386,28.544662181717428
387,-0.9375671351260887
388,0.0
425,0.0
450,0.0
451,0.0
452,-1.5435907987729123
453,0.0
490,0.0
515,0.0
516,0.0
542,0.0
592,4695264.08225586
632,32942782.44289167
686,1.0
687,1.0
688,2.0
2,21, 1,21, 0, 6,10.00,20.00,Monday
250,-0.35112479143975367
251,37896963.39626944
336,0.0
385,17.911125513381094
386,28.544662181717428
387,-0.9388441956248226
388,0.0
425,0.0
450,0.0
451,0.0
452,-1.5343884774563274
453,0.0
490,0.0
515,0.0
516,0.0
542,0.0
592,4695076.569900009
632,32943007.118331134
686,1.0
687,1.0
688,2.0
2,21, 1,21, 0, 6,20.00,30.00,Monday
250,-0.3511030876384098
251,37896986.482496224
336,0.0
385,17.911125513381094
386,28.544662181717428
387,-0.9403339007617274
388,0.0
425,0.0
450,0.0
451,0.0
452,-1.5273121709271973
453,0.0
490,0.0
515,0.0
516,0.0
542,0.0
592,4694888.993658494
632,32943217.75174845
686,1.0
687,1.0
688,2.0
2,21, 1,21, 0, 6,30.00,40.00,Monday
250,-0.3510810067466399
251,37897016.159644745
336,0.0
385,17.911125513381094
386,28.544662181717428
387,-0.9419939672229101
388,0.0
425,0.0
450,0.0
451,0.0
452,-1.5221532963949076
453,0.0
490,0.0
515,0.0
516,0.0
542,0.0
592,4694701.35349866
632,32943435.27220229
686,1.0
687,1.0
688,2.0
2,21, 1,21, 0, 6,40.00,50.00,Monday
250,-0.35105859914799903
251,37897044.308537416
336,0.0
385,17.911125513381094
386,28.544662181717428
387,-0.9437923435348022
388,0.0
425,0.0
450,0.0
451,0.0
452,-1.518463158696365
453,0.0
490,0.0
515,0.0
516,0.0
542,0.0
592,4694513.649387832
632,32943651.301210433
686,1.0
687,1.0
688,2.0
2,21, 1,21, 0, 6,50.00,60.00,Monday
250,-0.35103601424066083
251,37897072.295652956
336,0.0
385,17.911125513381094
386,28.544662181717428
387,-0.94571183438416
388,0.0
425,0.0
450,0.0
451,0.0
452,-1.51582250929767
453,0.0
490,0.0
515,0.0
516,0.0
542,0.0
592,4694325.88129331
632,32943867.15194688
686,1.0
687,1.0
688,2.0
2,21, 1,21, 0, 7, 0.00,10.00,Monday
250,-0.35160613296663945
251,37897419.59218958
336,0.0
385,17.911125513381094
386,28.544662181717428
387,-0.9501735115922515
388,0.0
425,0.0
450,0.0
451,0.0
452,-1.5190994304362573
453,0.0
490,0.0
515,0.0
516,0.0
542,0.0
592,4723573.583255435
632,32914647.465432957
686,1.0
687,1.0
688,2.0
2,21, 1,21, 0, 7,10.00,20.00,Monday
250,-0.3515852485612006
251,37894503.29484764
336,0.0
385,17.911125513381094
386,28.544662181717428
387,-0.9593501863447228
388,0.0
425,0.0
450,0.0
451,0.0
452,-1.5377689778151327
453,0.0
490,0.0
515,0.0
516,0.0
542,0.0
592,4752837.186047653
632,32882785.929501306
686,1.0
687,1.0
688,2.0
2,21, 1,21, 0, 7,20.00,30.00,Monday
250,-0.3515505837082199
251,37891535.35557091
336,0.0
385,17.911125513381094
386,28.544662181717428
387,-0.9734830033119241
388,0.0
425,0.0
450,0.0
451,0.0
452,-1.5771996543521436
453,0.0
490,0.0
515,0.0
516,0.0
542,0.0
592,4782116.702651944
632,32850545.89493108
686,1.0
687,1.0
688,2.0
2,21, 1,21, 0, 7,30.00,40.00,Monday
250,-0.35151872686300284
251,37888582.964695126
336,0.0
385,17.911125513381094
386,28.544662181717428
387,-0.9916176349957623
388,0.0
425,0.0
450,0.0
451,0.0
452,-1.6350042470932942
453,0.0
490,0.0
515,0.0
516,0.0
542,0.0
592,4811412.146064445
632,32818296.546913076
686,1.0
687,1.0
688,2.0
2,21, 1,21, 0, 7,40.00,50.00,Monday
250,-0.35148571425486663
251,37885625.213976905
336,0.0
385,17.911125513381094
386,28.544662181717428
387,-1.0126757655441692
388,0.0
425,0.0
450,0.0
451,0.0
452,-1.7049279030726878
453,0.0
490,0.0
515,0.0
516,0.0
542,0.0
592,4840723.529295459
632,32786028.03403306
686,1.0
687,1.0
688,2.0
2,21, 1,21, 0, 7,50.00,60.00,Monday
250,-0.3514522628208526
251,37882665.45162353
336,0.0
385,17.911125513381094
386,28.544662181717428
387,-1.0359106524179211
388,0.0
425,0.0
450,0.0
451,0.0
452,-1.7812793182036317
453,0.0
490,0.0
515,0.0
516,0.0
542,0.0
592,4870050.865369482
632,32753741.170523047
686,1.0
687,1.0
688,2.0
2,21, 1,21, 0, 8, 0.00,10.00,Monday
250,-0.1512118765249608
251,37771905.60164948
336,0.0
385,17.911125513381094
386,28.544662181717428
387,-1.0320318904476238
388,0.0
425,0.0
450,0.0
451,0.0
452,-1.8402265720261006
453,0.0
490,0.0
515,0.0
516,0.0
542,0.0
592,4889730.300311493
632,32731100.41315817
686,1.0
687,1.0
688,2.0
2,21, 1,21, 0, 8,10.00,20.00,Monday
250,0.049109593932737346
251,37666365.96461894
336,0.0
385,17.911125513381094
386,28.544662181717428
387,-0.9905244777486044
388,0.0
425,0.0
450,0.0
451,0.0
452,-1.8313658500216918
453,0.0
490,0.0
515,0.0
516,0.0
542,0.0
592,4909380.719869503
632,32605960.66066032
686,1.0
687,1.0
688,2.0
2,21, 1,21, 0, 8,20.00,30.00,Monday
250,0.24823482592617266
251,37561545.64274119
336,0.0
385,17.911125513381094
386,28.544662181717428
387,-0.9195337237781455
388,0.0
425,0.0
450,0.0
451,0.0
452,-1.7239271443640578
453,0.0
490,0.0
515,0.0
516,0.0
542,0.0
592,4929009.6156952735
632,32480874.1642278
686,1.0
687,1.0
688,2.0
2,21, 1,21, 0, 8,30.00,40.00,Monday
250,0.44768364001822036
251,37456522.17099222
336,0.0
385,17.911125513381094
386,28.544662181717428
387,-0.8292877038227031
388,0.0
425,0.0
450,0.0
451,0.0
452,-1.5282782876152083
453,0.0
490,0.0
515,0.0
516,0.0
542,0.0
592,4952863.646772657
632,32352177.737277254
686,1.0
687,1.0
688,2.0
2,21, 1,21, 0, 8,40.00,50.00,Monday
250,0.6471947472838363
251,37351056.63301056
336,0.0
385,17.911125513381094
386,28.544662181717428
387,-0.7277360991214459
388,0.0
425,0.0
450,0.0
451,0.0
452,-1.2528238858782352
453,0.0
490,0.0
515,0.0
516,0.0
542,0.0
592,4977062.298687916
632,32222552.786678717
686,1.0
687,1.0
688,2.0
2,21, 1,21, 0, 8,50.00,60.00,Monday
250,0.8471697509039051
251,37246277.013826646
336,0.0
385,17.911125513381094
386,28.544662181717428
387,-0.6318842852303792
388,0.0
425,0.0
450,0.0
451,0.0
452,-0.9399264456082783
453,0.0
490,0.0
515,0.0
516,0.0
542,0.0
592,5001395.306277512
632,32040314.89039877
686,1.0
687,1.0
688,2.0
2,21, 1,21, 0, 9, 0.00,10.00,Monday
250,1.113158422433117
251,37106988.45484511
336,0.0
385,17.911125513381094
386,28.544662181717428
387,-0.4935314502122792
388,0.0
425,0.0
450,0.0
451,0.0
452,-0.46056043795922874
453,0.0
490,0.0
515,0.0
516,0.0
542,0.0
592,5029363.153609448
632,31889695.840679448
686,1.0
687,1.0
688,2.0
2,21, 1,21, 0, 9,10.00,20.00,Monday
250,1.3790201990433104
251,36966809.65538794
336,0.0
385,17.911125513381094
386,28.544662181717428
387,-0.34278109760279984
388,0.0
425,0.0
450,0.0
451,0.0
452,0.06366301553657142
453,0.0
490,0.0
515,0.0
516,0.0
542,0.0
592,5057356.862312016
632,31721495.8600028
686,1.0
687,1.0
688,2.0
2,21, 1,21, 0, 9,20.00,30.00,Monday
250,1.644973949648801
251,36826577.26874485
336,0.0
385,17.911125513381094
386,28.544662181717428
387,-0.1828750667266102
388,0.0
425,0.0
450,0.0
451,0.0
452,0.6283676971898323
453,0.0
490,0.0
515,0.0
516,0.0
542,0.0
592,5085392.284952975
632,31553253.494997904
686,1.0
687,1.0
688,2.0
2,21, 1,21, 0, 9,30.00,40.00,Monday
250,1.9108790715004051
251,36686368.91979326
336,0.0
385,17.911125513381094
386,28.544662181717428
387,-0.013106924003409196
388,0.0
425,0.0
450,0.0
451,0.0
452,1.2230048397455244
453,0.0
490,0.0
515,0.0
516,0.0
542,0.0
592,5113485.892141593
632,31384939.686575234
686,1.0
687,1.0
688,2.0
2,21, 1,21, 0, 9,40.00,50.00,Monday
250,2.1769640374713815
251,36545065.391411595
336,0.0
385,17.91112551338111
386,28.54466218171745
387,0.13208936330947132
388,0.0
425,0.0
450,0.0
451,0.0
452,1.7246851964975565
453,0.0
490,0.0
515,0.0
516,0.0
542,0.0
592,5141654.529350725
632,31192310.067313552
686,1.0000000000000009
687,1.0000000000000009
688,2.0000000000000018
2,21, 1,21, 0, 9,50.00,60.00,Monday
250,2.443162001472181
251,36404166.152954616
336,0.0
385,17.911125513381094
386,28.544662181717428
387,0.2842576866567402
388,0.0
425,0.0
450,0.0
451,0.0
452,2.2651692233850014
453,0.0
490,0.0
515,0.0
516,0.0
542,0.0
592,5169915.672059795
632,31047707.358524807
686,1.0
687,1.0
688,2.0
2,21, 1,21, 0,10, 0.00,10.00,Monday
250,2.9071388081696465
251,36157978.85378105
336,0.0
385,17.911125513381094
386,28.544662181717428
387,0.4747512762791358
388,0.0
425,0.0
450,0.0
451,0.0
452,2.8244491234507247
453,0.0
490,0.0
515,0.0
516,0.0
542,0.0
592,5241404.10703412
632,30741054.8977016
686,1.0
687,1.0
688,2.0
2,21, 1,21, 0,10,10.00,20.00,Monday
250,3.3718348651678043
251,35912030.222880416
336,0.0
385,17.911125513381094
386,28.544662181717428
387,0.7658022501415136
388,0.0
425,0.0
450,0.0
451,0.0
452,3.5793458963935976
453,0.0
490,0.0
515,0.0
516,0.0
542,0.0
592,5315291.857316207
632,30420279.413595513
686,1.0
687,1.0
688,2.0
2,21, 1,21, 0,10,20.00,30.00,Monday
250,3.8367199120058157
251,35664708.909880154
336,0.0
385,17.911125513381087
386,28.544662181717417
387,1.0461780498889774
388,0.0
425,0.0
450,0.0
451,0.0
452,4.268237415000641
453,0.0
490,0.0
515,0.0
516,0.0
542,0.0
592,5391793.298050373
632,30096532.979670417
686,0.9999999999999996
687,0.9999999999999996
688,1.9999999999999991
2,21, 1,21, 0,10,30.00,40.00,Monday
250,4.301721160412718
251,35417191.05113257
336,0.0
385,17.9111255133811
386,28.544662181717438
387,1.3279337838875493
388,0.0
425,0.0
450,0.0
451,0.0
452,4.9701898483078235
453,0.0
490,0.0
515,0.0
516,0.0
542,0.0
592,5471132.199313744
632,29769741.712536577
686,1.0000000000000004
687,1.0000000000000004
688,2.000000000000001
2,21, 1,21, 0,10,40.00,50.00,Monday
250,4.766887943645946
251,35169443.14853182
336,0.0
385,17.91112551338111
386,28.54466218171745
387,1.6180624615160863
388,0.0
425,0.0
450,0.0
451,0.0
452,5.734305735402013
453,0.0
490,0.0
515,0.0
516,0.0
542,0.0
592,5553542.3757593315
632,29439660.237231273
686,1.0000000000000009
687,1.0000000000000009
688,2.0000000000000018
2,21, 1,21, 0,10,50.00,60.00,Monday
250,5.232063537773238
251,34921542.90057038
336,0.0
385,17.91112551338111
386,28.54466218171745
387,1.9182773328676324
388,0.0
425,0.0
450,0.0
451,0.0
452,6.563351366190499
453,0.0
490,0.0
515,0.0
516,0.0
542,0.0
592,5639267.778995938
632,29106085.271574553
686,1.0000000000000009
687,1.0000000000000009
688,2.0000000000000018
2,21, 1,21, 0,11, 0.00,10.00,Monday
250,5.515522789951404
251,34770705.96451107
336,0.0
385,17.911125513381094
386,28.544662181717428
387,2.2047779586859133
388,0.0
425,0.0
450,0.0
451,0.0
452,7.418569894824059
453,0.0
490,0.0
515,0.0
516,0.0
542,0.0
592,5689519.861596226
632,28872618.190056726
686,1.0
687,1.0
688,2.0
2,21, 1,21, 0,11,10.00,20.00,Monday
250,5.798441520982131
251,34620103.494881414
336,0.0
385,17.911125513381094
386,28.544662181717428
387,2.4745434210444794
388,0.0
425,0.0
450,0.0
451,0.0
452,8.269086517429988
453,0.0
490,0.0
515,0.0
516,0.0
542,0.0
592,5740969.350869596
632,28670485.140422307
686,1.0
687,1.0
688,2.0
2,21, 1,21, 0,11,20.00,30.00,Monday
250,6.081405898141446
251,34469426.76584764
336,0.0
385,17.911125513381087
386,28.544662181717417
387,2.746702586414974
388,0.0
425,0.0
450,0.0
451,0.0
452,9.11568499686604
453,0.0
490,0.0
515,0.0
516,0.0
542,0.0
592,5793671.095282218
632,28467131.54097664
686,0.9999999999999996
687,0.9999999999999996
688,1.9999999999999991
2,21, 1,21, 0,11,30.00,40.00,Monday
250,6.364178456173881
251,34318800.61028257
336,0.0
385,17.9111255133811
386,28.544662181717438
387,3.0240374117384925
388,0.0
425,0.0
450,0.0
451,0.0
452,9.937496765891215
453,0.0
490,0.0
515,0.0
516,0.0
542,0.0
592,5847681.427966584
632,28262478.034110256
686,1.0000000000000004
687,1.0000000000000004
688,2.000000000000001
2,21, 1,21, 0,11,40.00,50.00,Monday
250,6.646868588868317
251,34168164.908990435
336,0.0
385,17.91112551338111
386,28.54466218171745
387,3.303146508062599
388,0.0
425,0.0
450,0.0
451,0.0
452,10.683053584209858
453,0.0
490,0.0
515,0.0
516,0.0
542,0.0
592,5903058.082199926
632,28056468.818234667
686,1.0000000000000009
687,1.0000000000000009
688,2.0000000000000018
2,21, 1,21, 0,11,50.00,60.00,Monday
250,6.929447186166225
251,34017533.8802529
336,0.0
385,17.91112551338111
386,28.54466218171745
387,3.5801775925944836
388,0.0
425,0.0
450,0.0
451,0.0
452,11.318888332374408
453,0.0
490,0.0
515,0.0
516,0.0
542,0.0
592,5959860.237244541
632,27849034.031208366
686,1.0000000000000009
687,1.0000000000000009
688,2.0000000000000018
2,21, 1,21, 0,12, 0.00,10.00,Monday
250,7.196122946789151
251,33875416.03335215
336,0.0
385,17.911125513381094
386,28.544662181717428
387,3.8201865664986783
388,0.0
425,0.0
450,0.0
451,0.0
452,11.817998304209063
453,0.0
490,0.0
515,0.0
516,0.0
542,0.0
592,5991096.197635708
632,27697966.326518305
686,1.0
687,1.0
688,2.0
2,21, 1,21, 0,12,10.00,20.00,Monday
250,7.461645466589957
251,33737398.49977678
336,0.0
385,17.911125513381094
386,28.544662181717428
387,4.1125827358388705
388,0.0
425,0.0
450,0.0
451,0.0
452,12.381991060867932
453,0.0
490,0.0
515,0.0
516,0.0
542,0.0
592,7572016.881221027
632,25977211.793097787
686,1.0
687,1.0
688,2.0
2,21, 1,21, 0,12,20.00,30.00,Monday
250,7.727740161977547
251,33597350.06956115
336,0.0
385,17.911125513381094
386,28.544662181717428
387,4.3817092240187385
388,0.0
425,0.0
450,0.0
451,0.0
452,12.896905688412792
453,0.0
490,0.0
515,0.0
516,0.0
542,0.0
592,7609409.155487607
632,25799918.84824321
686,1.0
687,1.0
688,2.0
2,21, 1,21, 0,12,30.00,40.00,Monday
250,7.993766970006151
251,33457339.392468262
336,0.0
385,17.911125513381094
386,28.544662181717428
387,4.64053331798779
388,0.0
425,0.0
450,0.0
451,0.0
452,13.388780515647973
453,0.0
490,0.0
515,0.0
516,0.0
542,0.0
592,7646583.592010483
632,25622715.330108486
686,1.0
687,1.0
688,2.0
2,21, 1,21, 0,12,40.00,50.00,Monday
250,8.25976899766652
251,33317341.781219155
336,0.0
385,17.911125513381094
386,28.544662181717428
387,4.894967854045614
388,0.0
425,0.0
450,0.0
451,0.0
452,13.830892456182614
453,0.0
490,0.0
515,0.0
516,0.0
542,0.0
592,7683540.190789655
632,25445754.620958455
686,1.0
687,1.0
688,2.0
2,21, 1,21, 0,12,50.00,60.00,Monday
250,8.525763778937119
251,33177347.296059467
336,0.0
385,17.911125513381094
386,28.544662181717428
387,5.1439215606784
388,0.0
425,0.0
450,0.0
451,0.0
452,14.198666276293435
453,0.0
490,0.0
515,0.0
516,0.0
542,0.0
592,7720278.951825122
632,25269019.89751899
686,1.0
687,1.0
688,2.0
2,21, 1,21, 0,13, 0.00,10.00,Monday
250,8.708784858714019
251,33078646.17987135
336,0.0
385,17.911125513381094
386,28.544662181717428
387,5.376317263640988
388,0.0
425,0.0
450,0.0
451,0.0
452,14.489898212077032
453,0.0
490,0.0
515,0.0
516,0.0
542,0.0
592,7745410.487127082
632,25171434.68052936
686,1.0
687,1.0
688,2.0
2,21, 1,21, 0,13,10.00,20.00,Monday
250,8.89147466281671
251,32984123.589342758
336,0.0
385,17.911125513381094
386,28.544662181717428
387,5.595115704110254
388,0.0
425,0.0
450,0.0
451,0.0
452,14.719162785174772
453,0.0
490,0.0
515,0.0
516,0.0
542,0.0
592,7770439.060057996
632,25053402.305301182
686,1.0
687,1.0
688,2.0
2,21, 1,21, 0,13,20.00,30.00,Monday
250,9.074599286432555
251,32889461.63374237
336,0.0
385,17.911125513381094
386,28.544662181717428
387,5.800029323838238
388,0.0
425,0.0
450,0.0
451,0.0
452,14.902355593146225
453,0.0
490,0.0
515,0.0
516,0.0
542,0.0
592,7795364.670617863
632,24934062.008405793
686,1.0
687,1.0
688,2.0
2,21, 1,21, 0,13,30.00,40.00,Monday
250,9.257595868763005
251,32794898.931224965
336,0.0
385,17.911125513381094
386,28.544662181717428
387,5.995077960929607
388,0.0
425,0.0
450,0.0
451,0.0
452,15.05123120794718
453,0.0
490,0.0
515,0.0
516,0.0
542,0.0
592,7820187.318806678
632,24814620.264418583
686,1.0
687,1.0
688,2.0
2,21, 1,21, 0,13,40.00,50.00,Monday
250,9.440596792637537
251,32700367.37113287
336,0.0
385,17.911125513381094
386,28.544662181717428
387,6.184012118406682
388,0.0
425,0.0
450,0.0
451,0.0
452,15.170570443947401
453,0.0
490,0.0
515,0.0
516,0.0
542,0.0
592,7844907.00462445
632,24695384.268389698
686,1.0
687,1.0
688,2.0
2,21, 1,21, 0,13,50.00,60.00,Monday
250,9.62359204388888
251,32605872.045911018
336,0.0
385,17.911125513381094
386,28.544662181717428
387,6.368131727169241
388,0.0
425,0.0
450,0.0
451,0.0
452,15.264003949831771
453,0.0
490,0.0
515,0.0
516,0.0
542,0.0
592,7869523.72807117
632,24576282.24091319
686,1.0
687,1.0
688,2.0
2,21, 1,21, 0,14, 0.00,10.00,Monday
250,9.823524186020727
251,32502262.175065313
336,0.0
385,17.911125513381094
386,28.544662181717428
387,6.550275838790146
388,0.0
425,0.0
450,0.0
451,0.0
452,15.320127893138508
453,0.0
490,0.0
515,0.0
516,0.0
542,0.0
592,7896260.907308879
632,24455096.337445214
686,1.0
687,1.0
688,2.0
2,21, 1,21, 0,14,10.00,20.00,Monday
250,10.023135305212758
251,32398427.709582966
336,0.0
385,17.911125513381094
386,28.544662181717428
387,6.730576182043713
388,0.0
425,0.0
450,0.0
451,0.0
452,15.320621486055279
453,0.0
490,0.0
515,0.0
516,0.0
542,0.0
592,7922875.552815757
632,24324487.078374006
686,1.0
687,1.0
688,2.0
2,21, 1,21, 0,14,20.00,30.00,Monday
250,10.222647069644278
251,32294661.66142912
336,0.0
385,17.911125513381094
386,28.544662181717428
387,6.906874833007308
388,0.0
425,0.0
450,0.0
451,0.0
452,15.265016861768054
453,0.0
490,0.0
515,0.0
516,0.0
542,0.0
592,7949367.664591796
632,24194188.621243138
686,1.0
687,1.0
688,2.0
2,21, 1,21, 0,14,30.00,40.00,Monday
250,10.422091647100835
251,32190956.55939299
336,0.0
385,17.911125513381094
386,28.544662181717428
387,7.073219283511438
388,0.0
425,0.0
450,0.0
451,0.0
452,15.142788712781648
453,0.0
490,0.0
515,0.0
516,0.0
542,0.0
592,7975737.242637003
632,24064091.183446303
686,1.0
687,1.0
688,2.0
2,21, 1,21, 0,14,40.00,50.00,Monday
250,10.621476400434382
251,32087305.8183458
336,0.0
385,17.911125513381094
386,28.544662181717428
387,7.225915769979209
388,0.0
425,0.0
450,0.0
451,0.0
452,14.934215879057563
453,0.0
490,0.0
515,0.0
516,0.0
542,0.0
592,8001984.286951372
632,23934174.77493499
686,1.0
687,1.0
688,2.0
2,21, 1,21, 0,14,50.00,60.00,Monday
250,10.820818414279744
251,31983700.670227334
336,0.0
385,17.911125513381094
386,28.544662181717428
387,7.365254546518325
388,0.0
425,0.0
450,0.0
451,0.0
452,14.642336086815813
453,0.0
490,0.0
515,0.0
516,0.0
542,0.0
592,8028108.797534912
632,23804435.88639972
686,1.0
687,1.0
688,2.0
2,21, 1,21, 0,15, 0.00,10.00,Monday
250,11.086660471447285
251,31844903.42505788
336,0.0
385,17.911125513381094
386,28.544662181717428
387,7.4862374234652105
388,0.0
425,0.0
450,0.0
451,0.0