Program Version,EnergyPlus, Version 24.2.0-94a887817b, YMD=2025.01.30 19:33
1,5,Environment Title[],Latitude[deg],Longitude[deg],Time Zone[],Elevation[m]
2,8,Day of Simulation[],Month[],Day of Month[],DST Indicator[1=yes 0=no],Hour[],StartMinute[],EndMinute[],DayType
3,5,Cumulative Day of Simulation[],Month[],Day of Month[],DST Indicator[1=yes 0=no],DayType  ! When Daily Meters Requested
4,2,Cumulative Days of Simulation[],Month[]  ! When Monthly Meters Requested
5,1,Cumulative Days of Simulation[] ! When Run Period Meters Requested
6,1,Calendar Year of Simulation[] ! When Annual Meters Requested
11,9,Electricity:Facility [J] !Monthly [Value,Min,Day,Hour,Minute,Max,Day,Hour,Minute]
23,9,Electricity:Building [J] !Monthly [Value,Min,Day,Hour,Minute,Max,Day,Hour,Minute]
59,9,InteriorLights:Electricity [J] !Monthly [Value,Min,Day,Hour,Minute,Max,Day,Hour,Minute]
521,9,Electricity:HVAC [J] !Monthly [Value,Min,Day,Hour,Minute,Max,Day,Hour,Minute]
637,9,NaturalGas:Facility [J] !Monthly [Value,Min,Day,Hour,Minute,Max,Day,Hour,Minute]
649,9,NaturalGas:HVAC [J] !Monthly [Value,Min,Day,Hour,Minute,Max,Day,Hour,Minute]
13,11,Electricity:Facility [J] !RunPeriod [Value,Min,Month,Day,Hour,Minute,Max,Month,Day,Hour,Minute]
25,11,Electricity:Building [J] !RunPeriod [Value,Min,Month,Day,Hour,Minute,Max,Month,Day,Hour,Minute]
61,11,InteriorLights:Electricity [J] !RunPeriod [Value,Min,Month,Day,Hour,Minute,Max,Month,Day,Hour,Minute]
523,11,Electricity:HVAC [J] !RunPeriod [Value,Min,Month,Day,Hour,Minute,Max,Month,Day,Hour,Minute]
639,11,NaturalGas:Facility [J] !RunPeriod [Value,Min,Month,Day,Hour,Minute,Max,Month,Day,Hour,Minute]
651,11,NaturalGas:HVAC [J] !RunPeriod [Value,Min,Month,Day,Hour,Minute,Max,Month,Day,Hour,Minute]
End of Data Dictionary
1,RUN PERIOD 1,  41.98, -87.92,  -6.00, 201.00
4,31, 1
11,9816890835.540918,408891.4285714286, 5, 6,50,2975010.003774125,16,13,60
23,977840734.3099148,30000.0, 1, 1,10,605536.7639927001, 1, 9,10
59,970200000.0,30000.0, 1, 1,10,600000.0, 1, 8,10
521,8839050101.230986,378891.4285714286, 5, 6,50,2369473.239781425,16,13,60
637,179150508589.15366,28322012.254653826,21,16,10,41250000.0, 1, 1,10
649,179150508589.15366,28322012.254653826,21,16,10,41250000.0, 1, 1,10
4,59, 2
11,9351180237.855095,99999999999999.0, 5, 6,50,3016471.444037247,22,15,30
23,854804116.7912344,99999999999999.0, 1, 1,10,-99999999999999.0, 1, 9,10
59,848160000.0,99999999999999.0, 1, 1,10,-99999999999999.0, 1, 8,10
521,8496376121.063895,99999999999999.0, 5, 6,50,2410934.680044547,22,15,30
637,158569425008.8061,26631048.377101947,23,12,10,-99999999999999.0, 1, 1,10
649,158569425008.8061,26631048.377101947,23,12,10,-99999999999999.0, 1, 1,10
4,90, 3
11,11006584279.680302,99999999999999.0, 5, 6,50,3261673.1913719242,27,16,10
23,904456322.6307944,99999999999999.0, 1, 1,10,-99999999999999.0, 1, 9,10
59,897480000.0,99999999999999.0, 1, 1,10,-99999999999999.0, 1, 8,10
521,10102127957.049517,99999999999999.0, 5, 6,50,2656136.427379224,27,16,10
637,163163574218.44305,21108382.932581548,27,16,10,-99999999999999.0, 1, 1,10
649,163163574218.44305,21108382.932581548,27,16,10,-99999999999999.0, 1, 1,10
4,120, 4
11,9923531541.108015,30000.0,11,19,10,3269280.2875416,17, 9,10
23,936828528.4703548,99999999999999.0, 1, 1,10,-99999999999999.0, 1, 9,10
59,929520000.0,99999999999999.0, 1, 1,10,-99999999999999.0, 1, 8,10
521,8986703012.637678,0.0,11,14,30,2664181.733587133,18, 7,30
637,123604883260.99821,0.0,11,14,20,-99999999999999.0, 1, 1,10
649,123604883260.99821,0.0,11,14,20,-99999999999999.0, 1, 1,10
4,151, 5
11,9747314703.48459,99999999999999.0,11,19,10,3271210.586780972,23, 9,50
23,978154963.1168103,99999999999999.0, 1, 1,10,621463.5871920827,28,13,10
59,970200000.0,99999999999999.0, 1, 1,10,-99999999999999.0, 1, 8,10
521,8769159740.36782,99999999999999.0,11,14,30,2665673.8227882716,23, 9,50
637,98804133719.30492,99999999999999.0,11,14,20,-99999999999999.0, 1, 1,10
649,98804133719.30492,99999999999999.0,11,14,20,-99999999999999.0, 1, 1,10
4,181, 6
11,7801041945.701987,99999999999999.0,11,19,10,3272306.734120013,13,10,20
23,863483340.531951,99999999999999.0, 1, 1,10,-99999999999999.0,28,13,10
59,856800000.0,99999999999999.0, 1, 1,10,-99999999999999.0, 1, 8,10
521,6937558605.170046,99999999999999.0,11,14,30,2666769.9701273134,13,10,20
637,48649491073.70625,99999999999999.0,11,14,20,-99999999999999.0, 1, 1,10
649,48649491073.70625,99999999999999.0,11,14,20,-99999999999999.0, 1, 1,10
4,212, 7
11,7519684013.005892,99999999999999.0,11,19,10,-99999999999999.0,13,10,20
23,978104232.1385059,99999999999999.0, 1, 1,10,-99999999999999.0,28,13,10
59,970200000.0,99999999999999.0, 1, 1,10,-99999999999999.0, 1, 8,10
521,6541579780.867387,99999999999999.0,11,14,30,-99999999999999.0,13,10,20
637,24356132440.855923,99999999999999.0,11,14,20,-99999999999999.0, 1, 1,10
649,24356132440.855923,99999999999999.0,11,14,20,-99999999999999.0, 1, 1,10
4,243, 8
11,6869641882.257747,99999999999999.0,11,19,10,3273667.3687863974, 6, 9,40
23,941431002.6074077,99999999999999.0, 1, 1,10,621562.750605182,12,14,10
59,933840000.0,99999999999999.0, 1, 1,10,-99999999999999.0, 1, 8,10
521,5928210879.650425,99999999999999.0,11,14,30,2668130.6047936976, 6, 9,40
637,39154042880.06425,99999999999999.0,11,14,20,-99999999999999.0, 1, 1,10
649,39154042880.06425,99999999999999.0,11,14,20,-99999999999999.0, 1, 1,10
4,273, 9
11,8424705516.690636,99999999999999.0,11,19,10,-99999999999999.0, 6, 9,40
23,900136322.6307945,99999999999999.0, 1, 1,10,-99999999999999.0,12,14,10
59,893160000.0,99999999999999.0, 1, 1,10,-99999999999999.0, 1, 8,10
521,7524569194.059816,99999999999999.0,11,14,30,-99999999999999.0, 6, 9,40
637,74598645859.00328,99999999999999.0,11,14,20,-99999999999999.0, 1, 1,10
649,74598645859.00328,99999999999999.0,11,14,20,-99999999999999.0, 1, 1,10
4,304,10
11,10761779998.087736,99999999999999.0,11,19,10,-99999999999999.0, 6, 9,40
23,977876658.6862452,99999999999999.0, 1, 1,10,623653.2167484871,22,16,30
59,970200000.0,99999999999999.0, 1, 1,10,-99999999999999.0, 1, 8,10
521,9783903339.40151,99999999999999.0,11,14,30,-99999999999999.0, 6, 9,40
637,130620907461.4183,99999999999999.0,11,14,20,-99999999999999.0, 1, 1,10
649,130620907461.4183,99999999999999.0,11,14,20,-99999999999999.0, 1, 1,10
4,334,11
11,10591887728.374037,99999999999999.0,11,19,10,-99999999999999.0, 6, 9,40
23,900136322.6307944,99999999999999.0, 1, 1,10,-99999999999999.0,22,16,30
59,893160000.0,99999999999999.0, 1, 1,10,-99999999999999.0, 1, 8,10
521,9691751405.74324,99999999999999.0,11,14,30,-99999999999999.0, 6, 9,40
637,149118306785.42963,99999999999999.0,11,14,20,-99999999999999.0, 1, 1,10
649,149118306785.42963,99999999999999.0,11,14,20,-99999999999999.0, 1, 1,10
4,365,12
11,10430099148.854164,99999999999999.0,11,19,10,-99999999999999.0, 6, 9,40
23,941148528.4703546,99999999999999.0, 1, 1,10,-99999999999999.0,22,16,30
59,933840000.0,99999999999999.0, 1, 1,10,-99999999999999.0, 1, 8,10
521,9488950620.383821,99999999999999.0,11,14,30,-99999999999999.0, 6, 9,40
637,180000881201.2431,99999999999999.0,11,14,20,-99999999999999.0, 1, 1,10
649,180000881201.2431,99999999999999.0,11,14,20,-99999999999999.0, 1, 1,10
5,365
13,112244341830.64624,30000.0, 4,11,19,10,3273667.3687863974, 8, 6, 9,40
25,11154401073.011894,30000.0, 1, 1, 1,10,623653.2167484871,10,22,16,30
61,11066760000.0,30000.0, 1, 1, 1,10,600000.0, 1, 1, 8,10
523,101089940757.63217,0.0, 4,11,14,30,2668130.6047936976, 8, 6, 9,40
639,1369790932498.4268,0.0, 4,11,14,20,41250000.0, 1, 1, 1,10
651,1369790932498.4268,0.0, 4,11,14,20,41250000.0, 1, 1, 1,10
1,RUN PERIOD 2,  41.98, -87.92,  -6.00, 201.00
4,1, 7
11,117346469.32951058,99999999999999.0,11,19,10,-99999999999999.0, 6, 9,40
23,41012205.83956199,99999999999999.0, 1, 1,10,-99999999999999.0,22,16,30
59,40680000.0,99999999999999.0, 1, 1,10,-99999999999999.0, 1, 8,10
521,76334263.4899486,99999999999999.0,11,14,30,-99999999999999.0, 6, 9,40
637,0.0,99999999999999.0,11,14,20,-99999999999999.0, 1, 1,10
649,0.0,99999999999999.0,11,14,20,-99999999999999.0, 1, 1,10
5,1
13,117346469.32951058,99999999999999.0, 4,11,19,10,-99999999999999.0, 8, 6, 9,40
25,41012205.83956199,99999999999999.0, 1, 1, 1,10,-99999999999999.0,10,22,16,30
61,40680000.0,99999999999999.0, 1, 1, 1,10,-99999999999999.0, 1, 1, 8,10
523,76334263.4899486,99999999999999.0, 4,11,14,30,-99999999999999.0, 8, 6, 9,40
639,0.0,99999999999999.0, 4,11,14,20,-99999999999999.0, 1, 1, 1,10
651,0.0,99999999999999.0, 4,11,14,20,-99999999999999.0, 1, 1, 1,10
End of Data
 Number of Records Written=          90
