Program Version,EnergyPlus, Version 24.2.0-94a887817b, YMD=2025.02.04 15:39
1,5,Environment Title[],Latitude[deg],Longitude[deg],Time Zone[],Elevation[m]
2,8,Day of Simulation[],Month[],Day of Month[],DST Indicator[1=yes 0=no],Hour[],StartMinute[],EndMinute[],DayType
3,5,Cumulative Day of Simulation[],Month[],Day of Month[],DST Indicator[1=yes 0=no],DayType  ! When Daily Report Variables Requested
4,2,Cumulative Days of Simulation[],Month[]  ! When Monthly Report Variables Requested
5,1,Cumulative Days of Simulation[] ! When Run Period Report Variables Requested
6,1,Calendar Year of Simulation[] ! When Annual Report Variables Requested
250,1,LIVING ZONE,Zone Air Temperature [C] !TimeStep,REPORTSCH
251,1,LIVING ZONE,Zone Air System Sensible Heating Energy [J] !TimeStep,REPORTSCH
336,1,LIVING ZONE,Zone Air System Sensible Cooling Energy [J] !TimeStep,REPORTSCH
385,1,LIVING ZONE,Zone Thermostat Heating Setpoint Temperature [C] !TimeStep,REPORTSCH
386,1,LIVING ZONE,Zone Thermostat Cooling Setpoint Temperature [C] !TimeStep,REPORTSCH
387,1,GARAGE ZONE,Zone Air Temperature [C] !TimeStep,REPORTSCH
388,1,GARAGE ZONE,Zone Air System Sensible Heating Energy [J] !TimeStep,REPORTSCH
425,1,GARAGE ZONE,Zone Air System Sensible Cooling Energy [J] !TimeStep,REPORTSCH
450,1,GARAGE ZONE,Zone Thermostat Heating Setpoint Temperature [C] !TimeStep,REPORTSCH
451,1,GARAGE ZONE,Zone Thermostat Cooling Setpoint Temperature [C] !TimeStep,REPORTSCH
452,1,ATTIC ZONE,Zone Air Temperature [C] !TimeStep,REPORTSCH
453,1,ATTIC ZONE,Zone Air System Sensible Heating Energy [J] !TimeStep,REPORTSCH
490,1,ATTIC ZONE,Zone Air System Sensible Cooling Energy [J] !TimeStep,REPORTSCH
515,1,ATTIC ZONE,Zone Thermostat Heating Setpoint Temperature [C] !TimeStep,REPORTSCH
516,1,ATTIC ZONE,Zone Thermostat Cooling Setpoint Temperature [C] !TimeStep,REPORTSCH
542,1,ACDXCOIL 1,Cooling Coil Total Cooling Energy [J] !TimeStep,REPORTSCH
592,1,HEAT PUMP DX HEATING COIL 1,Heating Coil Heating Energy [J] !TimeStep,REPORTSCH
632,1,SUPP HEATING COIL 1,Heating Coil Heating Energy [J] !TimeStep,REPORTSCH
686,1,TWOSPEED HEAT PUMP 1,Unitary System DX Coil Cycling Ratio [] !TimeStep,REPORTSCH
687,1,TWOSPEED HEAT PUMP 1,Unitary System DX Coil Speed Ratio [] !TimeStep,REPORTSCH
688,1,TWOSPEED HEAT PUMP 1,Unitary System DX Coil Speed Level [] !TimeStep,REPORTSCH
End of Data Dictionary
1,RUN PERIOD 1,  41.98, -87.92,  -6.00, 201.00
2,21, 1,21, 0, 1, 0.00,10.00,Monday
250,0.2771828390584017
251,37531110.20577388
336,0.0
385,22.976287505358503
386,26.267661236110968
387,-0.9235986065754125
388,0.0
425,0.0
450,0.0
451,0.0
452,-1.949381676301091
453,0.0
490,0.0
515,0.0
516,0.0
542,0.0
592,4839743.985079642
632,32435372.91224746
686,1.0
687,1.0
688,2.0
2,21, 1,21, 0, 1,10.00,20.00,Monday
250,0.27724972357223776
251,37532615.23507936
336,0.0
385,22.976287505358503
386,26.267661236110968
387,-0.9320212722803443
388,0.0
425,0.0
450,0.0
451,0.0
452,-1.931335175015018
453,0.0
490,0.0
515,0.0
516,0.0
542,0.0
592,4823801.676011795
632,32449958.135253742
686,1.0
687,1.0
688,2.0
2,21, 1,21, 0, 1,20.00,30.00,Monday
250,0.276774624770558
251,37534531.11625047
336,0.0
385,22.976287505358503
386,26.267661236110968
387,-0.9416589777711848
388,0.0
425,0.0
450,0.0
451,0.0
452,-1.9282074520434835
453,0.0
490,0.0
515,0.0
516,0.0
542,0.0
592,4807858.16290522
632,32467525.76192494
686,1.0
687,1.0
688,2.0
2,21, 1,21, 0, 1,30.00,40.00,Monday
250,0.27644822437525374
251,37536330.87152133
336,0.0
385,22.976287505358503
386,26.267661236110968
387,-0.9527170078755501
388,0.0
425,0.0
450,0.0
451,0.0
452,-1.9410024598004405
453,0.0
490,0.0
515,0.0
516,0.0
542,0.0
592,4791913.445623511
632,32485350.276598997
686,1.0
687,1.0
688,2.0
2,21, 1,21, 0, 1,40.00,50.00,Monday
250,0.27610994696067276
251,37538140.94431496
336,0.0
385,22.976287505358503
386,26.267661236110968
387,-0.9653534061535833
388,0.0
425,0.0
450,0.0
451,0.0
452,-1.9681153848305044
453,0.0
490,0.0
515,0.0
516,0.0
542,0.0
592,4775967.524030241
632,32503099.868982367
686,1.0
687,1.0
688,2.0
2,21, 1,21, 0, 1,50.00,60.00,Monday
250,0.27576259892596233
251,37539958.179215774
336,0.0
385,22.976287505358503
386,26.267661236110968
387,-0.9797573720822924
388,0.0
425,0.0
450,0.0
451,0.0
452,-2.0079943699792104
453,0.0
490,0.0
515,0.0
516,0.0
542,0.0
592,4760020.397988958
632,32520859.338337522
686,1.0
687,1.0
688,2.0
2,21, 1,21, 0, 2, 0.00,10.00,Monday
250,0.27543243053300365
251,37541766.12015997
336,0.0
385,22.976287505358503
386,26.267661236110968
387,-0.9952582138794206
388,0.0
425,0.0
450,0.0
451,0.0
452,-2.0546132191814146
453,0.0
490,0.0
515,0.0
516,0.0
542,0.0
592,4760020.397988958
632,32522676.521187067
686,1.0
687,1.0
688,2.0
2,21, 1,21, 0, 2,10.00,20.00,Monday
250,0.27505759653452655
251,37542056.65170867
336,0.0
385,22.976287505358503
386,26.267661236110968
387,-1.0109261036482826
388,0.0
425,0.0
450,0.0
451,0.0
452,-2.0972338462037303
453,0.0
490,0.0
515,0.0
516,0.0
542,0.0
592,4760020.397988958
632,32522943.0029779
686,1.0
687,1.0
688,2.0
2,21, 1,21, 0, 2,20.00,30.00,Monday
250,0.27467989869500975
251,37542229.507817134
336,0.0
385,22.976287505358503
386,26.267661236110968
387,-1.026213580221285
388,0.0
425,0.0
450,0.0
451,0.0
452,-2.128640795487593
453,0.0
490,0.0
515,0.0
516,0.0
542,0.0
592,4760020.397988958
632,32523114.31727139
686,1.0
687,1.0
688,2.0
2,21, 1,21, 0, 2,30.00,40.00,Monday
250,0.274311540757626
251,37542433.54561148
336,0.0
385,22.976287505358503
386,26.267661236110968
387,-1.0408000888760254
388,0.0
425,0.0
450,0.0
451,0.0
452,-2.148018384984117
453,0.0
490,0.0
515,0.0
516,0.0
542,0.0
592,4760020.397988959
632,32523323.383922517
686,1.0
687,1.0
688,2.0
2,21, 1,21, 0, 2,40.00,50.00,Monday
250,0.27394910625487573
251,37542630.612591915
336,0.0
385,22.976287505358503
386,26.267661236110968
387,-1.054544043057204
388,0.0
425,0.0
450,0.0
451,0.0
452,-2.158176914361779
453,0.0
490,0.0
515,0.0
516,0.0
542,0.0
592,4760020.397988959
632,32523523.640250523
686,1.0
687,1.0
688,2.0
2,21, 1,21, 0, 2,50.00,60.00,Monday
250,0.2735933968196846
251,37542821.91799231
336,0.0
385,22.976287505358503
386,26.267661236110968
387,-1.0674066832478757
388,0.0
425,0.0
450,0.0
451,0.0
452,-2.1622487897665024
453,0.0
490,0.0
515,0.0
516,0.0
542,0.0
592,4760020.397988958
632,32523718.56663335
686,1.0
687,1.0
688,2.0
2,21, 1,21, 0, 3, 0.00,10.00,Monday
250,0.3518363497801526
251,37500693.49170339
336,0.0
385,22.976287505358503
386,26.267661236110968
387,-1.0690177957003895
388,0.0
425,0.0
450,0.0
451,0.0
452,-2.1548343402044283
453,0.0
490,0.0
515,0.0
516,0.0
542,0.0
592,4762558.894114006
632,32521371.55895788
686,1.0
687,1.0
688,2.0
2,21, 1,21, 0, 3,10.00,20.00,Monday
250,0.43466661928787137
251,37457554.960816644
336,0.0
385,22.976287505358503
386,26.267661236110968
387,-1.058103482124599
388,0.0
425,0.0
450,0.0
451,0.0
452,-2.1299802411069937
453,0.0
490,0.0
515,0.0
516,0.0
542,0.0
592,4764988.4357309695
632,32478275.17563016
686,1.0
687,1.0
688,2.0
2,21, 1,21, 0, 3,20.00,30.00,Monday
250,0.5156213194799729
251,37415545.28016992
336,0.0
385,22.976287505358503
386,26.267661236110968
387,-1.0390989815764071
388,0.0
425,0.0
450,0.0
451,0.0
452,-2.086209022316608
453,0.0
490,0.0
515,0.0
516,0.0
542,0.0
592,4767308.250738335
632,32432937.618349537
686,1.0
687,1.0
688,2.0
2,21, 1,21, 0, 3,30.00,40.00,Monday
250,0.596899768361351
251,37373333.747585274
336,0.0
385,22.976287505358503
386,26.267661236110968
387,-1.0158049947848524
388,0.0
425,0.0
450,0.0
451,0.0
452,-2.026619012928838
453,0.0
490,0.0
515,0.0
516,0.0
542,0.0
592,4769517.689516207
632,32388692.79815857
686,1.0
687,1.0
688,2.0
2,21, 1,21, 0, 3,40.00,50.00,Monday
250,0.6783471513977948
251,37331041.370822184
336,0.0
385,22.976287505358503
386,26.267661236110968
387,-0.9895349687198227
388,0.0
425,0.0
450,0.0
451,0.0
452,-1.9556817889854
453,0.0
490,0.0
515,0.0
516,0.0
542,0.0
592,4771616.115684973
632,32344394.80651557
686,1.0
687,1.0
688,2.0
2,21, 1,21, 0, 3,50.00,60.00,Monday
250,0.759864111764691
251,37288720.13696399
336,0.0
385,22.976287505358503
386,26.267661236110968
387,-0.9601207201606411
388,0.0
425,0.0
450,0.0
451,0.0
452,-1.8770235395020913
453,0.0
490,0.0
515,0.0
516,0.0
542,0.0
592,4773602.736238394
632,32300126.277700134
686,1.0
687,1.0
688,2.0
2,21, 1,21, 0, 4, 0.00,10.00,Monday
250,0.7628475075664793
251,37288700.77856475
336,0.0
385,22.976287505358503
386,26.267661236110968
387,-0.9380460146975644
388,0.0
425,0.0
450,0.0
451,0.0
452,-1.800920421549757
453,0.0
490,0.0
515,0.0
516,0.0
542,0.0
592,4773428.982371633
632,32257987.11991221
686,1.0
687,1.0
688,2.0
2,21, 1,21, 0, 4,10.00,20.00,Monday
250,0.7612968987907692
251,37289658.50458115
336,0.0
385,22.976287505358503
386,26.267661236110968
387,-0.9258639091742001
388,0.0
425,0.0
450,0.0
451,0.0
452,-1.7363923908771484
453,0.0
490,0.0
515,0.0
516,0.0
542,0.0
592,4773255.169447958
632,32256676.800340388
686,1.0
687,1.0
688,2.0
2,21, 1,21, 0, 4,20.00,30.00,Monday
250,0.7617566324491641
251,37289419.908675805
336,0.0
385,22.976287505358503
386,26.267661236110968
387,-0.9200741979360287
388,0.0
425,0.0
450,0.0
451,0.0
452,-1.6870633555720576
453,0.0
490,0.0
515,0.0
516,0.0
542,0.0
592,4773081.297437258
632,32257694.77995729
686,1.0
687,1.0
688,2.0
2,21, 1,21, 0, 4,30.00,40.00,Monday
250,0.761948984299161
251,37289359.76725027
336,0.0
385,22.976287505358503
386,26.267661236110968
387,-0.9169331716528287
388,0.0
425,0.0
450,0.0
451,0.0
452,-1.6513125489755756
453,0.0
490,0.0
515,0.0
516,0.0
542,0.0
592,4772907.366309401
632,32257664.566812545
686,1.0
687,1.0
688,2.0
2,21, 1,21, 0, 4,40.00,50.00,Monday
250,0.7620378755536227
251,37289351.78162284
336,0.0
385,22.976287505358503
386,26.267661236110968
387,-0.9148093293687442
388,0.0
425,0.0
450,0.0
451,0.0
452,-1.625619288699204
453,0.0
490,0.0
515,0.0
516,0.0
542,0.0
592,4772733.376034233
632,32257774.851003587
686,1.0
687,1.0
688,2.0
2,21, 1,21, 0, 4,50.00,60.00,Monday
250,0.7621416649473431
251,37289333.74882021
336,0.0
385,22.976287505358503
386,26.267661236110968
387,-0.9134789644403714
388,0.0
425,0.0
450,0.0
451,0.0
452,-1.6067644478932932
453,0.0
490,0.0
515,0.0
516,0.0
542,0.0
592,4772559.326581575
632,32257938.891371652
686,1.0
687,1.0
688,2.0
2,21, 1,21, 0, 5, 0.00,10.00,Monday
250,0.7622436520425528
251,37289316.872780174
336,0.0
385,22.976287505358503
386,26.267661236110968
387,-0.9129335545133855
388,0.0
425,0.0
450,0.0
451,0.0
452,-1.5920242613348004
453,0.0
490,0.0
515,0.0
516,0.0
542,0.0
592,4759720.85868958
632,32270759.512618344
686,1.0
687,1.0
688,2.0
2,21, 1,21, 0, 5,10.00,20.00,Monday
250,0.7623869285170184
251,37290477.526523516
336,0.0
385,22.976287505358503
386,26.267661236110968
387,-0.9130410382605932
388,0.0
425,0.0
450,0.0
451,0.0
452,-1.5791270477229462
453,0.0
490,0.0
515,0.0
516,0.0
542,0.0
592,4746877.262331866
632,32284786.002465155
686,1.0
687,1.0
688,2.0
2,21, 1,21, 0, 5,20.00,30.00,Monday
250,0.7625377365291013
251,37291727.48260349
336,0.0
385,22.976287505358503
386,26.267661236110968
387,-0.9136016565320678
388,0.0
425,0.0
450,0.0
451,0.0
452,-1.5667304308421357
453,0.0
490,0.0
515,0.0
516,0.0
542,0.0
592,4734028.534436011
632,32298888.745728627
686,1.0
687,1.0
688,2.0
2,21, 1,21, 0, 5,30.00,40.00,Monday
250,0.7626887091579952
251,37292949.70622722
336,0.0
385,22.976287505358503
386,26.267661236110968
387,-0.9144315520612404
388,0.0
425,0.0
450,0.0
451,0.0
452,-1.554423010143013
453,0.0
490,0.0
515,0.0
516,0.0
542,0.0
592,4721174.671927155
632,32312964.923367225
686,1.0
687,1.0
688,2.0
2,21, 1,21, 0, 5,40.00,50.00,Monday
250,0.7628418725854005
251,37294174.203300446
336,0.0
385,22.976287505358503
386,26.267661236110968
387,-0.9153991425276516
388,0.0
425,0.0
450,0.0
451,0.0
452,-1.5422677420263449
453,0.0
490,0.0
515,0.0
516,0.0
542,0.0
592,4708315.671727969
632,32327049.603549857
686,1.0
687,1.0
688,2.0
2,21, 1,21, 0, 5,50.00,60.00,Monday
250,0.7629978282116309
251,37295399.3777627
336,0.0
385,22.976287505358503
386,26.267661236110968
387,-0.916422447276638
388,0.0
425,0.0
450,0.0
451,0.0
452,-1.5304044182007082
453,0.0
490,0.0
515,0.0
516,0.0
542,0.0
592,4695451.530758674
632,32341140.42593123
686,1.0
687,1.0
688,2.0
2,21, 1,21, 0, 6, 0.00,10.00,Monday
250,0.7631629611599802
251,37296619.982674964
336,0.0
385,22.976287505358503
386,26.267661236110968
387,-0.9175831630569613
388,0.0
425,0.0
450,0.0
451,0.0
452,-1.5195131396350146
453,0.0
490,0.0
515,0.0
516,0.0
542,0.0
592,4695264.082255858
632,32342553.425951943
686,1.0
687,1.0
688,2.0
2,21, 1,21, 0, 6,10.00,20.00,Monday
250,0.7632898809891502
251,37296660.33013323
336,0.0
385,22.976287505358503
386,26.267661236110968
387,-0.918961543369365
388,0.0
425,0.0
450,0.0
451,0.0
452,-1.5104097603300235
453,0.0
490,0.0
515,0.0
516,0.0
542,0.0
592,4695076.569900009
632,32342760.701255746
686,1.0
687,1.0
688,2.0
2,21, 1,21, 0, 6,20.00,30.00,Monday
250,0.7634144243262884
251,37296608.976828
336,0.0
385,22.976287505358503
386,26.267661236110968
387,-0.9205509733178535
388,0.0
425,0.0
450,0.0
451,0.0
452,-1.5034346453888645
453,0.0
490,0.0
515,0.0
516,0.0
542,0.0
592,4694888.993658494
632,32342895.644043736
686,1.0
687,1.0
688,2.0
2,21, 1,21, 0, 6,30.00,40.00,Monday
250,0.7635457766934208
251,37296582.16040967
336,0.0
385,22.976287505358503
386,26.267661236110968
387,-0.9223094133653708
388,0.0
425,0.0
450,0.0
451,0.0
452,-1.4983785974841568
453,0.0
490,0.0
515,0.0
516,0.0
542,0.0
592,4694701.35349866
632,32343060.13578098
686,1.0
687,1.0
688,2.0
2,21, 1,21, 0, 6,40.00,50.00,Monday
250,0.7636741375355977
251,37296554.028161116
336,0.0
385,22.976287505358503
386,26.267661236110968
387,-0.9242049966422404
388,0.0
425,0.0
450,0.0
451,0.0
452,-1.4947875656930476
453,0.0
490,0.0
515,0.0
516,0.0
542,0.0
592,4694513.649387832
632,32343218.09623215
686,1.0
687,1.0
688,2.0
2,21, 1,21, 0, 6,50.00,60.00,Monday
250,0.7637980216882758
251,37296526.65309414
336,0.0
385,22.976287505358503
386,26.267661236110968
387,-0.9262205200440928
388,0.0
425,0.0
450,0.0
451,0.0
452,-1.4922399693194524
453,0.0
490,0.0
515,0.0
516,0.0
542,0.0
592,4694325.881293308
632,32343376.07780569
686,1.0
687,1.0
688,2.0
2,21, 1,21, 0, 7, 0.00,10.00,Monday
250,0.760772970218341
251,37298195.72068835
336,0.0
385,22.976287505358503
386,26.267661236110968
387,-0.9307896280184065
388,0.0
425,0.0
450,0.0
451,0.0
452,-1.4955916028717648
453,0.0
490,0.0
515,0.0
516,0.0
542,0.0
592,4723573.583255435
632,32314101.15627069
686,1.0
687,1.0
688,2.0
2,21, 1,21, 0, 7,10.00,20.00,Monday
250,0.7607469901382593
251,37295480.12505053
336,0.0
385,22.976287505358503
386,26.267661236110968
387,-0.940079000771578
388,0.0
425,0.0
450,0.0
451,0.0
452,-1.5142942542120053
453,0.0
490,0.0
515,0.0
516,0.0
542,0.0
592,4752837.186047653
632,32283737.51635268
686,1.0
687,1.0
688,2.0
2,21, 1,21, 0, 7,20.00,30.00,Monday
250,0.7609932464508843
251,37292402.28886016
336,0.0
385,22.976287505358503
386,26.267661236110968
387,-0.9543054143312419
388,0.0
425,0.0
450,0.0
451,0.0
452,-1.5537417958703001
453,0.0
490,0.0
515,0.0
516,0.0
542,0.0
592,4782116.702651945
632,32251526.792258617
686,1.0
687,1.0
688,2.0
2,21, 1,21, 0, 7,30.00,40.00,Monday
250,0.7611574406600762
251,37289432.09145132
336,0.0
385,22.976287505358503
386,26.267661236110968
387,-0.9724932916490425
388,0.0
425,0.0
450,0.0
451,0.0
452,-1.6116169557872266
453,0.0
490,0.0
515,0.0
516,0.0
542,0.0
592,4811412.146064445
632,32219216.945630644
686,1.0
687,1.0
688,2.0
2,21, 1,21, 0, 7,40.00,50.00,Monday
250,0.7613407274147116
251,37286443.27686819
336,0.0
385,22.976287505358503
386,26.267661236110968
387,-0.9935589375462951
388,0.0
425,0.0
450,0.0
451,0.0
452,-1.6816614238055876
453,0.0
490,0.0
515,0.0
516,0.0
542,0.0
592,4840723.52929546
632,32186927.02269157
686,1.0
687,1.0
688,2.0
2,21, 1,21, 0, 7,50.00,60.00,Monday
250,0.7615380068966298
251,37283441.5318599
336,0.0
385,22.976287505358503
386,26.267661236110968
387,-1.0167650224273534
388,0.0
425,0.0
450,0.0
451,0.0
452,-1.7581513562109607
453,0.0
490,0.0
515,0.0
516,0.0
542,0.0
592,4870050.865369482
632,32154605.468730845
686,1.0
687,1.0
688,2.0
2,21, 1,21, 0, 8, 0.00,10.00,Monday
250,0.9630047597569356
251,37172067.64412363
336,0.0
385,22.976287505358503
386,26.267661236110968
387,-1.012905789921718
388,0.0
425,0.0
450,0.0
451,0.0
452,-1.817194340369751
453,0.0
490,0.0
515,0.0
516,0.0
542,0.0
592,4889730.300311493
632,32131923.054770093
686,1.0
687,1.0
688,2.0
2,21, 1,21, 0, 8,10.00,20.00,Monday
250,1.1644543445373288
251,37065652.00760072
336,0.0
385,22.976287505358503
386,26.267661236110968
387,-0.9713478319436568
388,0.0
425,0.0
450,0.0
451,0.0
452,-1.8086742764952584
453,0.0
490,0.0
515,0.0
516,0.0
542,0.0
592,4909380.719869504
632,32005853.760767523
686,1.0
687,1.0
688,2.0
2,21, 1,21, 0, 8,20.00,30.00,Monday
250,1.3595073209915285
251,36963061.7345725
336,0.0
385,22.976287505358503
386,26.267661236110968
387,-0.8999261050512487
388,0.0
425,0.0
450,0.0
451,0.0
452,-1.7017496767763087
453,0.0
490,0.0
515,0.0
516,0.0
542,0.0
592,4929009.6156952735
632,31880197.162638605
686,1.0
687,1.0
688,2.0
2,21, 1,21, 0, 8,30.00,40.00,Monday
250,1.5560214138910864
251,36859568.15807674
336,0.0
385,22.976287505358503
386,26.267661236110968
387,-0.8086826263431621
388,0.0
425,0.0
450,0.0
451,0.0
452,-1.5074354836720882
453,0.0
490,0.0
515,0.0
516,0.0
542,0.0
592,4952863.646772657
632,31753643.058588613
686,1.0
687,1.0
688,2.0
2,21, 1,21, 0, 8,40.00,50.00,Monday
250,1.7531881978107884
251,36755345.8106709
336,0.0
385,22.976287505358503
386,26.267661236110968
387,-0.7061175320171653
388,0.0
425,0.0
450,0.0
451,0.0
452,-1.2305220307132363
453,0.0
490,0.0
515,0.0
516,0.0
542,0.0
592,4977062.298687916
632,31625579.217051607
686,1.0
687,1.0
688,2.0
2,21, 1,21, 0, 8,50.00,60.00,Monday
250,1.9524947351972548
251,36650848.71691446
336,0.0
385,22.976287505358503
386,26.267661236110968
387,-0.6097541352046402
388,0.0
425,0.0
450,0.0
451,0.0
452,-0.9161746243534219
453,0.0
490,0.0
515,0.0
516,0.0
542,0.0
592,5001395.306277512
632,31446555.60086073
686,1.0
687,1.0
688,2.0
2,21, 1,21, 0, 9, 0.00,10.00,Monday
250,2.2152216298258316
251,36513183.950055614
336,0.0
385,22.976287505358503
386,26.267661236110968
387,-0.4708896177551607
388,0.0
425,0.0
450,0.0
451,0.0
452,-0.43570849756658736
453,0.0
490,0.0
515,0.0
516,0.0
542,0.0
592,5029363.153609448
632,31298071.77944132
686,1.0
687,1.0
688,2.0
2,21, 1,21, 0, 9,10.00,20.00,Monday
250,2.477634627342197
251,36374822.50587641
336,0.0
385,22.976287505358503
386,26.267661236110968
387,-0.31961485282255353
388,0.0
425,0.0
450,0.0
451,0.0
452,0.08868739482763435
453,0.0
490,0.0
515,0.0
516,0.0
542,0.0
592,5057356.862312016
632,31131512.00584356
686,1.0
687,1.0
688,2.0
2,21, 1,21, 0, 9,20.00,30.00,Monday
250,2.7403204025956454
251,36236299.520748734
336,0.0
385,22.976287505358503
386,26.267661236110968
387,-0.15966776103348998
388,0.0
425,0.0
450,0.0
451,0.0
452,0.6533962106666874
453,0.0
490,0.0
515,0.0
516,0.0
542,0.0
592,5085392.284952975
632,30965033.94976396
686,1.0
687,1.0
688,2.0
2,21, 1,21, 0, 9,30.00,40.00,Monday
250,3.0027522307254397
251,36097913.15805352
336,0.0
385,22.976287505358503
386,26.267661236110968
387,0.009947859428329698
388,0.0
425,0.0
450,0.0
451,0.0
452,1.2480840086038656
453,0.0
490,0.0
515,0.0
516,0.0
542,0.0
592,5113485.892141593
632,30798484.325541172
686,1.0
687,1.0
688,2.0
2,21, 1,21, 0, 9,40.00,50.00,Monday
250,3.266303260925252
251,35958016.57823953
336,0.0
385,22.97628750535852
386,26.267661236110985
387,0.15489879178028498
388,0.0
425,0.0
450,0.0
451,0.0
452,1.7504274621865357
453,0.0
490,0.0
515,0.0
516,0.0
542,0.0
592,5141654.529350725
632,30605345.302023597
686,1.0000000000000009
687,1.0000000000000009
688,2.0000000000000018
2,21, 1,21, 0, 9,50.00,60.00,Monday
250,3.52939094073796
251,35818716.59797785
336,0.0
385,22.976287505358503
386,26.267661236110968
387,0.3069757164346568
388,0.0
425,0.0
450,0.0
451,0.0
452,2.2914994283779024
453,0.0
490,0.0
515,0.0
516,0.0
542,0.0
592,5169915.672059793
632,30463847.671120632
686,1.0
687,1.0
688,2.0
2,21, 1,21, 0,10, 0.00,10.00,Monday
250,3.9819354874751163
251,35578663.78763223
336,0.0
385,22.976287505358503
386,26.267661236110968
387,0.497330334794666
388,0.0
425,0.0
450,0.0
451,0.0
452,2.8514817801624446
453,0.0
490,0.0
515,0.0
516,0.0
542,0.0
592,5241404.10703412
632,30160756.436776076
686,1.0
687,1.0
688,2.0
2,21, 1,21, 0,10,10.00,20.00,Monday
250,4.436976524828087
251,35337819.214023076
336,0.0
385,22.976287505358503
386,26.267661236110968
387,0.7884282373902292
388,0.0
425,0.0
450,0.0
451,0.0
452,3.606509817597693
453,0.0
490,0.0
515,0.0
516,0.0
542,0.0
592,5315291.857316207
632,29845792.39119536
686,1.0
687,1.0
688,2.0
2,21, 1,21, 0,10,20.00,30.00,Monday
250,4.893615288293384
251,35094893.43606733
336,0.0
385,22.976287505358496
386,26.26766123611096
387,1.0689703626898872
388,0.0
425,0.0
450,0.0
451,0.0
452,4.296229713917233
453,0.0
490,0.0
515,0.0
516,0.0
542,0.0
592,5391793.298050372
632,29526696.325904787
686,0.9999999999999996
687,0.9999999999999996
688,1.9999999999999991
2,21, 1,21, 0,10,30.00,40.00,Monday
250,5.351002069909089
251,34851434.48463294
336,0.0
385,22.976287505358513
386,26.26766123611098
387,1.35086075236414
388,0.0
425,0.0
450,0.0
451,0.0
452,4.9971033297715355
453,0.0
490,0.0
515,0.0
516,0.0
542,0.0
592,5471132.199313744
632,29204076.286792204
686,1.0000000000000004
687,1.0000000000000004
688,2.000000000000001
2,21, 1,21, 0,10,40.00,50.00,Monday
250,5.80937304023014
251,34607306.55008234
336,0.0
385,22.97628750535852
386,26.267661236110985
387,1.6410982624955421
388,0.0
425,0.0
450,0.0
451,0.0
452,5.761057245054829
453,0.0
490,0.0
515,0.0
516,0.0
542,0.0
592,5553542.375759332
632,28877762.76926712
686,1.0000000000000009
687,1.0000000000000009
688,2.0000000000000018
2,21, 1,21, 0,10,50.00,60.00,Monday
250,6.267816609406498
251,34362994.513928026
336,0.0
385,22.97628750535852
386,26.267661236110985
387,1.941407549804584
388,0.0
425,0.0
450,0.0
451,0.0
452,6.590412860076881
453,0.0
490,0.0
515,0.0
516,0.0
542,0.0
592,5639267.778995938
632,28547786.274565853
686,1.0000000000000009
687,1.0000000000000009
688,2.0000000000000018
2,21, 1,21, 0,11, 0.00,10.00,Monday
250,6.551586750459785
251,34211990.61667615
336,0.0
385,22.976287505358503
386,26.267661236110968
387,2.227989108874075
388,0.0
425,0.0
450,0.0
451,0.0
452,7.44573060619809
453,0.0
490,0.0
515,0.0
516,0.0
542,0.0
592,5689519.861596227
632,28314915.00659868
686,1.0
687,1.0
688,2.0
2,21, 1,21, 0,11,10.00,20.00,Monday
250,6.832996142655402
251,34062169.54810046
336,0.0
385,22.976287505358503
386,26.267661236110968
387,2.497797297632827
388,0.0
425,0.0
450,0.0
451,0.0
452,8.296381777986433
453,0.0
490,0.0
515,0.0
516,0.0
542,0.0
592,5740969.350869596
632,28113178.779408902
686,1.0
687,1.0
688,2.0
2,21, 1,21, 0,11,20.00,30.00,Monday
250,7.114433836942382
251,33912288.532792866
336,0.0
385,22.976287505358496
386,26.26766123611096
387,2.7699699832284588
388,0.0
425,0.0
450,0.0
451,0.0
452,9.143124316271413
453,0.0
490,0.0
515,0.0
516,0.0
542,0.0
592,5793671.095282218
632,27910617.498527415
686,0.9999999999999996
687,0.9999999999999996
688,1.9999999999999991
2,21, 1,21, 0,11,30.00,40.00,Monday
250,7.394786811069686
251,33762939.06397263
336,0.0
385,22.976287505358513
386,26.26766123611098
387,3.0473055666942352
388,0.0
425,0.0
450,0.0
451,0.0
452,9.96558742250884
453,0.0
490,0.0
515,0.0
516,0.0
542,0.0
592,5847681.427966583
632,27707077.667311512
686,1.0000000000000004
687,1.0000000000000004
688,2.000000000000001
2,21, 1,21, 0,11,40.00,50.00,Monday
250,7.674639071136581
251,33613806.438737035
336,0.0
385,22.97628750535852
386,26.267661236110985
387,3.3264034787594268
388,0.0
425,0.0
450,0.0
451,0.0
452,10.710944498727528
453,0.0
490,0.0
515,0.0
516,0.0
542,0.0
592,5903058.082199926
632,27502494.528662436
686,1.0000000000000009
687,1.0000000000000009
688,2.0000000000000018
2,21, 1,21, 0,11,50.00,60.00,Monday
250,7.953832532045665
251,33464974.526580483
336,0.0
385,22.97628750535852
386,26.267661236110985
387,3.6034114807968223
388,0.0
425,0.0
450,0.0
451,0.0
452,11.346264478856295
453,0.0
490,0.0
515,0.0
516,0.0
542,0.0
592,5959860.237244541
632,27296758.32584542
686,1.0000000000000009
687,1.0000000000000009
688,2.0000000000000018
2,21, 1,21, 0,12, 0.00,10.00,Monday
250,8.219903446149674
251,33323082.902596995
336,0.0
385,22.976287505358503
386,26.267661236110968
387,3.8433501603456284
388,0.0
425,0.0
450,0.0
451,0.0
452,11.845555733514392
453,0.0
490,0.0
515,0.0
516,0.0
542,0.0
592,5991096.197635708
632,27147903.44395269
686,1.0
687,1.0
688,2.0
2,21, 1,21, 0,12,10.00,20.00,Monday
250,8.480749404151286
251,33187458.51807996
336,0.0
385,22.976287505358503
386,26.267661236110968
387,4.135709687260916
388,0.0
425,0.0
450,0.0
451,0.0
452,12.40953021308285
453,0.0
490,0.0
515,0.0
516,0.0
542,0.0
592,7572016.881221028
632,25429030.23612761
686,1.0
687,1.0
688,2.0
2,21, 1,21, 0,12,20.00,30.00,Monday
250,8.744480604305092
251,33048624.608058497
336,0.0
385,22.976287505358503
386,26.267661236110968
387,4.404815717999937
388,0.0
425,0.0
450,0.0
451,0.0
452,12.925337342209678
453,0.0
490,0.0
515,0.0
516,0.0
542,0.0
592,7609409.155487607
632,25253505.62786673
686,1.0
687,1.0
688,2.0
2,21, 1,21, 0,12,30.00,40.00,Monday
250,9.00761922639802
251,32910114.61750872
336,0.0
385,22.976287505358503
386,26.267661236110968
387,4.663608037707153
388,0.0
425,0.0
450,0.0
451,0.0
452,13.416504498810237
453,0.0
490,0.0
515,0.0
516,0.0
542,0.0
592,7646583.592010485
632,25077662.420486167
686,1.0
687,1.0
688,2.0
2,21, 1,21, 0,12,40.00,50.00,Monday
250,9.270617714971225
251,32771679.554981947
336,0.0
385,22.976287505358503
386,26.267661236110968
387,4.918013519069479
388,0.0
425,0.0
450,0.0
451,0.0
452,13.858125517980884
453,0.0
490,0.0
515,0.0
516,0.0
542,0.0
592,7683540.190789654
632,24902231.325244673
686,1.0
687,1.0
688,2.0
2,21, 1,21, 0,12,50.00,60.00,Monday
250,9.533555429234017
251,32633276.496787444
336,0.0
385,22.976287505358503
386,26.267661236110968
387,5.1669413239669435
388,0.0
425,0.0
450,0.0
451,0.0
452,14.226039669756254
453,0.0
490,0.0
515,0.0
516,0.0
542,0.0
592,7720278.951825121
632,24727073.137157664
686,1.0
687,1.0
688,2.0
2,21, 1,21, 0,13, 0.00,10.00,Monday
250,9.71522244044937
251,32535563.313505553
336,0.0
385,22.976287505358503
386,26.267661236110968
387,5.399302029405606
388,0.0
425,0.0
450,0.0
451,0.0
452,14.517331247073978
453,0.0
490,0.0
515,0.0
516,0.0
542,0.0
592,7745410.487127085
632,24621802.929483585
686,1.0
687,1.0
688,2.0
2,21, 1,21, 0,13,10.00,20.00,Monday
250,9.895265001851143
251,32442183.71859628
336,0.0
385,22.976287505358503
386,26.267661236110968
387,5.618045297026778
388,0.0
425,0.0
450,0.0
451,0.0
452,14.746519814921115
453,0.0
490,0.0
515,0.0
516,0.0
542,0.0
592,7770439.060057996
632,24510033.15854225
686,1.0
687,1.0
688,2.0
2,21, 1,21, 0,13,20.00,30.00,Monday
250,10.077490887189775
251,32347938.075395636
336,0.0
385,22.976287505358503
386,26.267661236110968
387,5.822898226008654
388,0.0
425,0.0
450,0.0
451,0.0
452,14.929641492425318
453,0.0
490,0.0
515,0.0
516,0.0
542,0.0
592,7795364.670617863
632,24392052.88460023
686,1.0
687,1.0
688,2.0
2,21, 1,21, 0,13,30.00,40.00,Monday
250,10.259253497276804
251,32253969.719695892
336,0.0
385,22.976287505358503
386,26.267661236110968
387,6.017880873809892
388,0.0
425,0.0
450,0.0
451,0.0
452,15.078561476581095
453,0.0
490,0.0
515,0.0
516,0.0
542,0.0
592,7820187.318806683
632,24273024.425030045
686,1.0
687,1.0
688,2.0
2,21, 1,21, 0,13,40.00,50.00,Monday
250,10.440842097256686
251,32160128.19378541
336,0.0
385,22.976287505358503
386,26.267661236110968
387,6.206741757729595
388,0.0
425,0.0
450,0.0
451,0.0
452,15.197814053925208
453,0.0
490,0.0
515,0.0
516,0.0
542,0.0
592,7844907.0046244515
632,24154382.06454284
686,1.0
687,1.0
688,2.0
2,21, 1,21, 0,13,50.00,60.00,Monday
250,10.622381491439148
251,32066346.22830006
336,0.0
385,22.976287505358503
386,26.267661236110968
387,6.390782375562957
388,0.0
425,0.0
450,0.0
451,0.0
452,15.291079719838766
453,0.0
490,0.0
515,0.0
516,0.0
542,0.0
592,7869523.728071173
632,24035969.780756097
686,1.0
687,1.0
688,2.0
2,21, 1,21, 0,14, 0.00,10.00,Monday
250,10.821899040738325
251,31962886.56976844
336,0.0
385,22.976287505358503
386,26.267661236110968
387,6.572834732269519
388,0.0
425,0.0
450,0.0
451,0.0
452,15.346983917235434
453,0.0
490,0.0
515,0.0
516,0.0
542,0.0
592,7896260.907308879
632,23915496.340031378
686,1.0
687,1.0
688,2.0
2,21, 1,21, 0,14,10.00,20.00,Monday
250,11.01982054664015
251,31859924.620522495
336,0.0
385,22.976287505358503
386,26.267661236110968
387,6.75302750551375
388,0.0
425,0.0
450,0.0
451,0.0
452,15.347221831033567
453,0.0
490,0.0
515,0.0
516,0.0
542,0.0
592,7922875.552815753
632,23785070.91605742
686,1.0
687,1.0
688,2.0
2,21, 1,21, 0,14,20.00,30.00,Monday
250,11.217108529969652
251,31757287.135617163
336,0.0
385,22.976287505358503
386,26.267661236110968
387,6.929207031070592
388,0.0
425,0.0
450,0.0
451,0.0
452,15.2913493463415
453,0.0
490,0.0
515,0.0
516,0.0
542,0.0
592,7949367.664591794
632,23655612.30495481
686,1.0
687,1.0
688,2.0
2,21, 1,21, 0,14,30.00,40.00,Monday
250,11.414046589172871
251,31654868.895164803
336,0.0
385,22.976287505358503
386,26.267661236110968
387,7.09542936498535
388,0.0
425,0.0
450,0.0
451,0.0
452,15.168865169092934
453,0.0
490,0.0
515,0.0
516,0.0
542,0.0
592,7975737.242637001
632,23526648.80966002
686,1.0
687,1.0
688,2.0
2,21, 1,21, 0,14,40.00,50.00,Monday
250,11.610630301428364
251,31552663.42081331
336,0.0
385,22.976287505358503
386,26.267661236110968
387,7.24800239188459
388,0.0
425,0.0
450,0.0
451,0.0
452,14.960069214664335
453,0.0
490,0.0
515,0.0
516,0.0
542,0.0
592,8001984.286951372
632,23398018.33834637
686,1.0
687,1.0
688,2.0
2,21, 1,21, 0,14,50.00,60.00,Monday
250,11.806869811068102
251,31450665.490506385
336,0.0
385,22.976287505358503
386,26.267661236110968
387,7.387214890248473
388,0.0
425,0.0
450,0.0
451,0.0
452,14.668032122655717
453,0.0
490,0.0
515,0.0
516,0.0
542,0.0
592,8028108.797534915
632,23269723.542304367
686,1.0
687,1.0
688,2.0
2,21, 1,21, 0,15, 0.00,10.00,Monday
250,12.067841860620355
251,31314456.415270522
336,0.0
385,22.976287505358503
386,26.267661236110968