Program Version,EnergyPlus, Version 24.2.0-94a887817b, YMD=2025.02.04 15:39
1,5,Environment Title[],Latitude[deg],Longitude[deg],Time Zone[],Elevation[m]
2,8,Day of Simulation[],Month[],Day of Month[],DST Indicator[1=yes 0=no],Hour[],StartMinute[],EndMinute[],DayType
3,5,Cumulative Day of Simulation[],Month[],Day of Month[],DST Indicator[1=yes 0=no],DayType  ! When Daily Meters Requested
4,2,Cumulative Days of Simulation[],Month[]  ! When Monthly Meters Requested
5,1,Cumulative Days of Simulation[] ! When Run Period Meters Requested
6,1,Calendar Year of Simulation[] ! When Annual Meters Requested
11,9,Electricity:Facility [J] !Monthly [Value,Min,Day,Hour,Minute,Max,Day,Hour,Minute]
23,9,Electricity:Building [J] !Monthly [Value,Min,Day,Hour,Minute,Max,Day,Hour,Minute]
59,9,InteriorLights:Electricity [J] !Monthly [Value,Min,Day,Hour,Minute,Max,Day,Hour,Minute]
521,9,Electricity:HVAC [J] !Monthly [Value,Min,Day,Hour,Minute,Max,Day,Hour,Minute]
637,9,NaturalGas:Facility [J] !Monthly [Value,Min,Day,Hour,Minute,Max,Day,Hour,Minute]
649,9,NaturalGas:HVAC [J] !Monthly [Value,Min,Day,Hour,Minute,Max,Day,Hour,Minute]
13,11,Electricity:Facility [J] !RunPeriod [Value,Min,Month,Day,Hour,Minute,Max,Month,Day,Hour,Minute]
25,11,Electricity:Building [J] !RunPeriod [Value,Min,Month,Day,Hour,Minute,Max,Month,Day,Hour,Minute]
61,11,InteriorLights:Electricity [J] !RunPeriod [Value,Min,Month,Day,Hour,Minute,Max,Month,Day,Hour,Minute]
523,11,Electricity:HVAC [J] !RunPeriod [Value,Min,Month,Day,Hour,Minute,Max,Month,Day,Hour,Minute]
639,11,NaturalGas:Facility [J] !RunPeriod [Value,Min,Month,Day,Hour,Minute,Max,Month,Day,Hour,Minute]
651,11,NaturalGas:HVAC [J] !RunPeriod [Value,Min,Month,Day,Hour,Minute,Max,Month,Day,Hour,Minute]
End of Data Dictionary
1,RUN PERIOD 1,  41.98, -87.92,  -6.00, 201.00
4,31, 1
11,9826504745.077223,408891.4285714286, 5, 6,50,2981976.6048873807,16,13,60
23,987454643.8462279,30000.0, 1, 1,10,612503.365105956, 1, 9,10
59,970200000.0,30000.0, 1, 1,10,600000.0, 1, 8,10
521,8839050101.230986,378891.4285714286, 5, 6,50,2369473.239781425,16,13,60
637,177814961397.77316,27689235.9565605,21,16,10,41250000.0, 1, 1,20
649,177814961397.77316,27689235.9565605,21,16,10,41250000.0, 1, 1,20
4,59, 2
11,9359540159.191017,99999999999999.0, 5, 6,50,3023438.045150503,22,15,30
23,863164038.1271509,99999999999999.0, 1, 1,10,-99999999999999.0, 1, 9,10
59,848160000.0,99999999999999.0, 1, 1,10,-99999999999999.0, 1, 8,10
521,8496376121.063895,99999999999999.0, 5, 6,50,2410934.680044547,22,15,30
637,156899481968.90765,26020056.25566014,23,12,10,-99999999999999.0, 1, 1,20
649,156899481968.90765,26020056.25566014,23,12,10,-99999999999999.0, 1, 1,20
4,90, 3
11,11020316696.293882,99999999999999.0, 5, 6,50,3378276.1140598822,27,16,10
23,916430556.9114107,99999999999999.0, 1, 1,10,696051.9958949435,26,15,10
59,897480000.0,99999999999999.0, 1, 1,10,-99999999999999.0, 1, 8,10
521,10103886139.382448,99999999999999.0, 5, 6,50,2690299.750482812,27,16,10
637,160245426366.67255,20450600.160995316,27,16,10,-99999999999999.0, 1, 1,20
649,160245426366.67255,20450600.160995316,27,16,10,-99999999999999.0, 1, 1,20
4,120, 4
11,10153733851.370058,30000.0,11,19,10,3380563.443011702,15, 9,20
23,965107965.4433162,99999999999999.0, 1, 1,10,-99999999999999.0,26,15,10
59,929520000.0,99999999999999.0, 1, 1,10,-99999999999999.0, 1, 8,10
521,9188625885.926802,0.0,11,14,40,2722353.8609595476,14,12,60
637,122598326313.59154,0.0,11,14,40,-99999999999999.0, 1, 1,20
649,122598326313.59154,0.0,11,14,40,-99999999999999.0, 1, 1,20
4,151, 5
11,10130902138.464468,99999999999999.0,11,19,10,-99999999999999.0,15, 9,20
23,1027900746.384662,99999999999999.0, 1, 1,10,703763.1579624972,13,14,10
59,970200000.0,99999999999999.0, 1, 1,10,-99999999999999.0, 1, 8,10
521,9103001392.079735,99999999999999.0,11,14,40,2722427.0626473934,26,14,20
637,98806350829.51474,99999999999999.0,11,14,40,-99999999999999.0, 1, 1,20
649,98806350829.51474,99999999999999.0,11,14,40,-99999999999999.0, 1, 1,20
4,181, 6
11,8599912335.004908,99999999999999.0,11,19,10,3381354.9830059395,12,11,10
23,930035663.7111249,99999999999999.0, 1, 1,10,-99999999999999.0,13,14,10
59,856800000.0,99999999999999.0, 1, 1,10,-99999999999999.0, 1, 8,10
521,7669876671.293777,99999999999999.0,11,14,40,-99999999999999.0,26,14,20
637,53520519027.3776,99999999999999.0,11,14,40,-99999999999999.0, 1, 1,20
649,53520519027.3776,99999999999999.0,11,14,40,-99999999999999.0, 1, 1,20
4,212, 7
11,8280656180.979785,99999999999999.0,11,19,10,3394409.8314772528, 9,12,10
23,1037192959.421627,99999999999999.0, 1, 1,10,-99999999999999.0,13,14,10
59,970200000.0,99999999999999.0, 1, 1,10,-99999999999999.0, 1, 8,10
521,7243463221.558177,99999999999999.0,11,14,40,-99999999999999.0,26,14,20
637,28788910289.59412,99999999999999.0,11,14,40,-99999999999999.0, 1, 1,20
649,28788910289.59412,99999999999999.0,11,14,40,-99999999999999.0, 1, 1,20
4,243, 8
11,8119157161.981939,99999999999999.0,11,19,10,3396470.4233179553, 6,10,10
23,1026052852.165534,99999999999999.0, 1, 1,10,-99999999999999.0,13,14,10
59,933840000.0,99999999999999.0, 1, 1,10,-99999999999999.0, 1, 8,10
521,7093104309.816509,99999999999999.0,11,14,40,-99999999999999.0,26,14,20
637,46909488311.46364,99999999999999.0,11,14,40,-99999999999999.0, 1, 1,20
649,46909488311.46364,99999999999999.0,11,14,40,-99999999999999.0, 1, 1,20
4,273, 9
11,9493301388.97163,99999999999999.0,11,19,10,3399597.0625409875,17,15,10
23,988509578.3834345,99999999999999.0, 1, 1,10,-99999999999999.0,13,14,10
59,893160000.0,99999999999999.0, 1, 1,10,-99999999999999.0, 1, 8,10
521,8504791810.588187,99999999999999.0,11,14,40,2722752.196527679,16,16,30
637,80058324258.28946,99999999999999.0,11,14,40,-99999999999999.0, 1, 1,20
649,80058324258.28946,99999999999999.0,11,14,40,-99999999999999.0, 1, 1,20
4,304,10
11,10875332651.989025,99999999999999.0,11,19,10,-99999999999999.0,17,15,10
23,1002277592.548339,99999999999999.0, 1, 1,10,-99999999999999.0,13,14,10
59,970200000.0,99999999999999.0, 1, 1,10,-99999999999999.0, 1, 8,10
521,9873055059.440754,99999999999999.0,11,14,40,2722981.9706725655, 2,12,60
637,128310796281.11502,99999999999999.0,11,14,40,-99999999999999.0, 1, 1,20
649,128310796281.11502,99999999999999.0,11,14,40,-99999999999999.0, 1, 1,20
4,334,11
11,10676596352.390345,99999999999999.0,11,19,10,-99999999999999.0,17,15,10
23,920391229.0517972,99999999999999.0, 1, 1,10,-99999999999999.0,13,14,10
59,893160000.0,99999999999999.0, 1, 1,10,-99999999999999.0, 1, 8,10
521,9756205123.338524,99999999999999.0,11,14,40,-99999999999999.0, 2,12,60
637,147248413943.21594,99999999999999.0,11,14,40,-99999999999999.0, 1, 1,20
649,147248413943.21594,99999999999999.0,11,14,40,-99999999999999.0, 1, 1,20
4,365,12
11,10439295062.323685,99999999999999.0,11,19,10,-99999999999999.0,17,15,10
23,950344441.9398689,99999999999999.0, 1, 1,10,-99999999999999.0,13,14,10
59,933840000.0,99999999999999.0, 1, 1,10,-99999999999999.0, 1, 8,10
521,9488950620.383821,99999999999999.0,11,14,40,-99999999999999.0, 2,12,60
637,178545402958.889,99999999999999.0,11,14,40,-99999999999999.0, 1, 1,20
649,178545402958.889,99999999999999.0,11,14,40,-99999999999999.0, 1, 1,20
5,365
13,116975248724.04572,30000.0, 4,11,19,10,3399597.0625409875, 9,17,15,10
25,11614862267.935753,30000.0, 1, 1, 1,10,703763.1579624972, 5,13,14,10
61,11066760000.0,30000.0, 1, 1, 1,10,600000.0, 1, 1, 8,10
523,105360386456.10968,0.0, 4,11,14,40,2722981.9706725655,10, 2,12,60
639,1379746401946.4111,0.0, 4,11,14,40,41250000.0, 1, 1, 1,20
651,1379746401946.4111,0.0, 4,11,14,40,41250000.0, 1, 1, 1,20
1,RUN PERIOD 2,  41.98, -87.92,  -6.00, 201.00
4,1, 7
11,224960617.7463031,99999999999999.0,11,19,10,-99999999999999.0,17,15,10
23,42820839.86478551,99999999999999.0, 1, 1,10,-99999999999999.0,13,14,10
59,40680000.0,99999999999999.0, 1, 1,10,-99999999999999.0, 1, 8,10
521,182139777.88151762,99999999999999.0,11,14,40,-99999999999999.0, 2,12,60
637,821175259.011275,99999999999999.0,11,14,40,-99999999999999.0, 1, 1,20
649,821175259.011275,99999999999999.0,11,14,40,-99999999999999.0, 1, 1,20
5,1
13,224960617.7463031,99999999999999.0, 4,11,19,10,-99999999999999.0, 9,17,15,10
25,42820839.86478551,99999999999999.0, 1, 1, 1,10,-99999999999999.0, 5,13,14,10
61,40680000.0,99999999999999.0, 1, 1, 1,10,-99999999999999.0, 1, 1, 8,10
523,182139777.88151762,99999999999999.0, 4,11,14,40,-99999999999999.0,10, 2,12,60
639,821175259.011275,99999999999999.0, 4,11,14,40,-99999999999999.0, 1, 1, 1,20
651,821175259.011275,99999999999999.0, 4,11,14,40,-99999999999999.0, 1, 1, 1,20
End of Data
 Number of Records Written=          90
