Program Version,EnergyPlus, Version 24.2.0-94a887817b, YMD=2025.02.04 15:39
1,5,Environment Title[],Latitude[deg],Longitude[deg],Time Zone[],Elevation[m]
2,8,Day of Simulation[],Month[],Day of Month[],DST Indicator[1=yes 0=no],Hour[],StartMinute[],EndMinute[],DayType
3,5,Cumulative Day of Simulation[],Month[],Day of Month[],DST Indicator[1=yes 0=no],DayType  ! When Daily Report Variables Requested
4,2,Cumulative Days of Simulation[],Month[]  ! When Monthly Report Variables Requested
5,1,Cumulative Days of Simulation[] ! When Run Period Report Variables Requested
6,1,Calendar Year of Simulation[] ! When Annual Report Variables Requested
250,1,LIVING ZONE,Zone Air Temperature [C] !TimeStep,REPORTSCH
251,1,LIVING ZONE,Zone Air System Sensible Heating Energy [J] !TimeStep,REPORTSCH
336,1,LIVING ZONE,Zone Air System Sensible Cooling Energy [J] !TimeStep,REPORTSCH
385,1,LIVING ZONE,Zone Thermostat Heating Setpoint Temperature [C] !TimeStep,REPORTSCH
386,1,LIVING ZONE,Zone Thermostat Cooling Setpoint Temperature [C] !TimeStep,REPORTSCH
387,1,GARAGE ZONE,Zone Air Temperature [C] !TimeStep,REPORTSCH
388,1,GARAGE ZONE,Zone Air System Sensible Heating Energy [J] !TimeStep,REPORTSCH
425,1,GARAGE ZONE,Zone Air System Sensible Cooling Energy [J] !TimeStep,REPORTSCH
450,1,GARAGE ZONE,Zone Thermostat Heating Setpoint Temperature [C] !TimeStep,REPORTSCH
451,1,GARAGE ZONE,Zone Thermostat Cooling Setpoint Temperature [C] !TimeStep,REPORTSCH
452,1,ATTIC ZONE,Zone Air Temperature [C] !TimeStep,REPORTSCH
453,1,ATTIC ZONE,Zone Air System Sensible Heating Energy [J] !TimeStep,REPORTSCH
490,1,ATTIC ZONE,Zone Air System Sensible Cooling Energy [J] !TimeStep,REPORTSCH
515,1,ATTIC ZONE,Zone Thermostat Heating Setpoint Temperature [C] !TimeStep,REPORTSCH
516,1,ATTIC ZONE,Zone Thermostat Cooling Setpoint Temperature [C] !TimeStep,REPORTSCH
542,1,ACDXCOIL 1,Cooling Coil Total Cooling Energy [J] !TimeStep,REPORTSCH
592,1,HEAT PUMP DX HEATING COIL 1,Heating Coil Heating Energy [J] !TimeStep,REPORTSCH
632,1,SUPP HEATING COIL 1,Heating Coil Heating Energy [J] !TimeStep,REPORTSCH
686,1,TWOSPEED HEAT PUMP 1,Unitary System DX Coil Cycling Ratio [] !TimeStep,REPORTSCH
687,1,TWOSPEED HEAT PUMP 1,Unitary System DX Coil Speed Ratio [] !TimeStep,REPORTSCH
688,1,TWOSPEED HEAT PUMP 1,Unitary System DX Coil Speed Level [] !TimeStep,REPORTSCH
End of Data Dictionary
1,RUN PERIOD 1,  41.98, -87.92,  -6.00, 201.00
2,21, 1,21, 0, 1, 0.00,10.00,Monday
250,0.22572942461711717
251,37558807.07529842
336,0.0
385,17.804675777729948
386,25.21749756381572
387,-0.9247138275873306
388,0.0
425,0.0
450,0.0
451,0.0
452,-1.950552457953203
453,0.0
490,0.0
515,0.0
516,0.0
542,0.0
592,4839743.985079642
632,32462966.389826376
686,1.0
687,1.0
688,2.0
2,21, 1,21, 0, 1,10.00,20.00,Monday
250,0.22578301519534816
251,37560323.58416021
336,0.0
385,17.804675777729948
386,25.21749756381572
387,-0.9331336625412895
388,0.0
425,0.0
450,0.0
451,0.0
452,-1.9325021057001919
453,0.0
490,0.0
515,0.0
516,0.0
542,0.0
592,4823801.676011795
632,32477659.328047764
686,1.0
687,1.0
688,2.0
2,21, 1,21, 0, 1,20.00,30.00,Monday
250,0.2253289983684912
251,37562228.47758117
336,0.0
385,17.804675777729948
386,25.21749756381572
387,-0.9427694514777684
388,0.0
425,0.0
450,0.0
451,0.0
452,-1.9293781870898516
453,0.0
490,0.0
515,0.0
516,0.0
542,0.0
592,4807858.162905219
632,32495234.47242922
686,1.0
687,1.0
688,2.0
2,21, 1,21, 0, 1,30.00,40.00,Monday
250,0.22501391537182713
251,37564023.389543094
336,0.0
385,17.804675777729948
386,25.21749756381572
387,-0.9538264423349339
388,0.0
425,0.0
450,0.0
451,0.0
452,-1.942177660587577
453,0.0
490,0.0
515,0.0
516,0.0
542,0.0
592,4791913.445623511
632,32513048.8874382
686,1.0
687,1.0
688,2.0
2,21, 1,21, 0, 1,40.00,50.00,Monday
250,0.22468693919200727
251,37565828.69695865
336,0.0
385,17.804675777729948
386,25.21749756381572
387,-0.9664626498758414
388,0.0
425,0.0
450,0.0
451,0.0
452,-1.969295036492539
453,0.0
490,0.0
515,0.0
516,0.0
542,0.0
592,4775967.524030239
632,32530793.706004445
686,1.0
687,1.0
688,2.0
2,21, 1,21, 0, 1,50.00,60.00,Monday
250,0.22435160779157776
251,37567640.658578254
336,0.0
385,17.804675777729948
386,25.21749756381572
387,-0.980867263039416
388,0.0
425,0.0
450,0.0
451,0.0
452,-2.009180059989993
453,0.0
490,0.0
515,0.0
516,0.0
542,0.0
592,4760020.397988958
632,32548548.287517842
686,1.0
687,1.0
688,2.0
2,21, 1,21, 0, 2, 0.00,10.00,Monday
250,0.22403300532166395
251,37569443.56956605
336,0.0
385,17.804675777729948
386,25.21749756381572
387,-0.9963690482706743
388,0.0
425,0.0
450,0.0
451,0.0
452,-2.055805718853289
453,0.0
490,0.0
515,0.0
516,0.0
542,0.0
592,4760020.397988958
632,32550360.198016323
686,1.0
687,1.0
688,2.0
2,21, 1,21, 0, 2,10.00,20.00,Monday
250,0.2236711985263596
251,37569723.94382287
336,0.0
385,17.804675777729948
386,25.21749756381572
387,-1.0120375857425477
388,0.0
425,0.0
450,0.0
451,0.0
452,-2.0984313101352416
453,0.0
490,0.0
515,0.0
516,0.0
542,0.0
592,4760020.397988958
632,32550617.30934332
686,1.0
687,1.0
688,2.0
2,21, 1,21, 0, 2,20.00,30.00,Monday
250,0.22330682896864915
251,37569890.46343064
336,0.0
385,17.804675777729948
386,25.21749756381572
387,-1.027325151168712
388,0.0
425,0.0
450,0.0
451,0.0
452,-2.1298405838139614
453,0.0
490,0.0
515,0.0
516,0.0
542,0.0
592,4760020.397988959
632,32550782.449235827
686,1.0
687,1.0
688,2.0
2,21, 1,21, 0, 2,30.00,40.00,Monday
250,0.2229513781345722
251,37570087.50543534
336,0.0
385,17.804675777729948
386,25.21749756381572
387,-1.0419111680479485
388,0.0
425,0.0
450,0.0
451,0.0
452,-2.1492177481911203
453,0.0
490,0.0
515,0.0
516,0.0
542,0.0
592,4760020.397988958
632,32550984.293323338
686,1.0
687,1.0
688,2.0
2,21, 1,21, 0, 2,40.00,50.00,Monday
250,0.2226015799675979
251,37570277.652138986
336,0.0
385,17.804675777729948
386,25.21749756381572
387,-1.0556541046159762
388,0.0
425,0.0
450,0.0
451,0.0
452,-2.159374907672475
453,0.0
490,0.0
515,0.0
516,0.0
542,0.0
592,4760020.397988958
632,32551177.483586024
686,1.0
687,1.0
688,2.0
2,21, 1,21, 0, 2,50.00,60.00,Monday
250,0.22225823287042396
251,37570462.30713079
336,0.0
385,17.804675777729948
386,25.21749756381572
387,-1.0685152601893586
388,0.0
425,0.0
450,0.0
451,0.0
452,-2.163445260453131
453,0.0
490,0.0
515,0.0
516,0.0
542,0.0
592,4760020.397988956
632,32551365.612031445
686,1.0
687,1.0
688,2.0
2,21, 1,21, 0, 3, 0.00,10.00,Monday
250,0.30067851674224755
251,37528238.40527706
336,0.0
385,17.804675777729948
386,25.21749756381572
387,-1.0701237081451298
388,0.0
425,0.0
450,0.0
451,0.0
452,-2.1560304208754375
453,0.0
490,0.0
515,0.0
516,0.0
542,0.0
592,4762558.894114006
632,32549011.952872176
686,1.0
687,1.0
688,2.0
2,21, 1,21, 0, 3,10.00,20.00,Monday
250,0.383528590835878
251,37485093.3231969
336,0.0
385,17.804675777729948
386,25.21749756381572
387,-1.0592040746588363
388,0.0
425,0.0
450,0.0
451,0.0
452,-2.131170000931208
453,0.0
490,0.0
515,0.0
516,0.0
542,0.0
592,4764988.4357309695
632,32505824.20540851
686,1.0
687,1.0
688,2.0
2,21, 1,21, 0, 3,20.00,30.00,Monday
250,0.4645494732656182
251,37443048.36755375
336,0.0
385,17.804675777729948
386,25.21749756381572
387,-1.040190686596928
388,0.0
425,0.0
450,0.0
451,0.0
452,-2.0873892868557182
453,0.0
490,0.0
515,0.0
516,0.0
542,0.0
592,4767308.250738335
632,32460476.3457427
686,1.0
687,1.0
688,2.0
2,21, 1,21, 0, 3,30.00,40.00,Monday
250,0.5459164898711437
251,37400790.34342896
336,0.0
385,17.804675777729948
386,25.21749756381572
387,-1.0168843683160755
388,0.0
425,0.0
450,0.0
451,0.0
452,-2.0277900704968066
453,0.0
490,0.0
515,0.0
516,0.0
542,0.0
592,4769517.689516205
632,32416197.090084396
686,1.0
687,1.0
688,2.0
2,21, 1,21, 0, 3,40.00,50.00,Monday
250,0.6274303595840706
251,37358463.436347365
336,0.0
385,17.804675777729948
386,25.21749756381572
387,-0.9905990114820001
388,0.0
425,0.0
450,0.0
451,0.0
452,-1.9568450795451109
453,0.0
490,0.0
515,0.0
516,0.0
542,0.0
592,4771616.115684973
632,32371852.6792074
686,1.0
687,1.0
688,2.0
2,21, 1,21, 0, 3,50.00,60.00,Monday
250,0.7090074069036815
251,37316111.00835963
336,0.0
385,17.804675777729948
386,25.21749756381572
387,-0.9611664119093888
388,0.0
425,0.0
450,0.0
451,0.0
452,-1.8781798461817292
453,0.0
490,0.0
515,0.0
516,0.0
542,0.0
592,4773602.736238394
632,32327549.51126882
686,1.0
687,1.0
688,2.0
2,21, 1,21, 0, 4, 0.00,10.00,Monday
250,0.7118833975264726
251,37316150.66974843
336,0.0
385,17.804675777729948
386,25.21749756381572
387,-0.939068597299382
388,0.0
425,0.0
450,0.0
451,0.0
452,-1.802070975154736
453,0.0
490,0.0
515,0.0
516,0.0
542,0.0
592,4773428.982371633
632,32285379.166535404
686,1.0
687,1.0
688,2.0
2,21, 1,21, 0, 4,10.00,20.00,Monday
250,0.7103834960403507
251,37317078.11640503
336,0.0
385,17.804675777729948
386,25.21749756381572
387,-0.9268636306791993
388,0.0
425,0.0
450,0.0
451,0.0
452,-1.7375394458333597
453,0.0
490,0.0
515,0.0
516,0.0
542,0.0
592,4773255.169447958
632,32284123.72143498
686,1.0
687,1.0
688,2.0
2,21, 1,21, 0, 4,20.00,30.00,Monday
250,0.7108339121556566
251,37316845.36478576
336,0.0
385,17.804675777729948
386,25.21749756381572
387,-0.9210571809830255
388,0.0
425,0.0
450,0.0
451,0.0
452,-1.688207959170698
453,0.0
490,0.0
515,0.0
516,0.0
542,0.0
592,4773081.297437258
632,32285115.21794888
686,1.0
687,1.0
688,2.0
2,21, 1,21, 0, 4,30.00,40.00,Monday
250,0.7110173715043271
251,37316789.99762095
336,0.0
385,17.804675777729948
386,25.21749756381572
387,-0.917906770759147
388,0.0
425,0.0
450,0.0
451,0.0
452,-1.6524534848523977
453,0.0
490,0.0
515,0.0
516,0.0
542,0.0
592,4772907.366309401
632,32285090.007971887
686,1.0
687,1.0
688,2.0
2,21, 1,21, 0, 4,40.00,50.00,Monday
250,0.7111034909258325
251,37316783.42200868
336,0.0
385,17.804675777729948
386,25.21749756381572
387,-0.9157780771190792
388,0.0
425,0.0
450,0.0
451,0.0
452,-1.626754700677413
453,0.0
490,0.0
515,0.0
516,0.0
542,0.0
592,4772733.376034233
632,32285204.99856887
686,1.0
687,1.0
688,2.0
2,21, 1,21, 0, 4,50.00,60.00,Monday
250,0.7112036389411948
251,37316767.38384053
336,0.0
385,17.804675777729948
386,25.21749756381572
387,-0.9144441869571582
388,0.0
425,0.0
450,0.0
451,0.0
452,-1.6078930015950383
453,0.0
490,0.0
515,0.0
516,0.0
542,0.0
592,4772559.326581573
632,32285370.565260097
686,1.0
687,1.0
688,2.0
2,21, 1,21, 0, 5, 0.00,10.00,Monday
250,0.711301576544589
251,37316752.72129914
336,0.0
385,17.804675777729948
386,25.21749756381572
387,-0.9138949449044127
388,0.0
425,0.0
450,0.0
451,0.0
452,-1.5931451706345299
453,0.0
490,0.0
515,0.0
516,0.0
542,0.0
592,4759720.85868958
632,32298193.180206146
686,1.0
687,1.0
688,2.0
2,21, 1,21, 0, 5,10.00,20.00,Monday
250,0.7114391731382619
251,37317919.8454602
336,0.0
385,17.804675777729948
386,25.21749756381572
387,-0.9139980047900297
388,0.0
425,0.0
450,0.0
451,0.0
452,-1.580239732588671
453,0.0
490,0.0
515,0.0
516,0.0
542,0.0
592,4746877.262331866
632,32312225.262296945
686,1.0
687,1.0
688,2.0
2,21, 1,21, 0, 5,20.00,30.00,Monday
250,0.7115834388627605
251,37319173.63567508
336,0.0
385,17.804675777729948
386,25.21749756381572
387,-0.9145537730131834
388,0.0
425,0.0
450,0.0
451,0.0
452,-1.5678345357285257
453,0.0
490,0.0
515,0.0
516,0.0
542,0.0
592,4734028.534436011
632,32326331.375087317
686,1.0
687,1.0
688,2.0
2,21, 1,21, 0, 5,30.00,40.00,Monday
250,0.7117278241118783
251,37320400.40673061
336,0.0
385,17.804675777729948
386,25.21749756381572
387,-0.9153784743264141
388,0.0
425,0.0
450,0.0
451,0.0
452,-1.5555185225267303
453,0.0
490,0.0
515,0.0
516,0.0
542,0.0
592,4721174.671927155
632,32340412.075746838
686,1.0
687,1.0
688,2.0
2,21, 1,21, 0, 5,40.00,50.00,Monday
250,0.7118745628830855
251,37321629.41911438
336,0.0
385,17.804675777729948
386,25.21749756381572
387,-0.9163404648570928
388,0.0
425,0.0
450,0.0
451,0.0
452,-1.5433549282943801
453,0.0
490,0.0
515,0.0
516,0.0
542,0.0
592,4708315.671727969
632,32354501.358765993
686,1.0
687,1.0
688,2.0
2,21, 1,21, 0, 5,50.00,60.00,Monday
250,0.712024299588393
251,37322858.90354507
336,0.0
385,17.804675777729948
386,25.21749756381572
387,-0.9173576954811753
388,0.0
425,0.0
450,0.0
451,0.0
452,-1.531483709741649
453,0.0
490,0.0
515,0.0
516,0.0
542,0.0
592,4695451.530758676
632,32368596.601816345
686,1.0
687,1.0
688,2.0
2,21, 1,21, 0, 6, 0.00,10.00,Monday
250,0.7121820044014999
251,37324084.47123186
336,0.0
385,17.804675777729948
386,25.21749756381572
387,-0.9185119848708974
388,0.0
425,0.0
450,0.0
451,0.0
452,-1.520585266687299
453,0.0
490,0.0
515,0.0
516,0.0
542,0.0
592,4695264.08225586
632,32370013.913112517
686,1.0
687,1.0
688,2.0
2,21, 1,21, 0, 6,10.00,20.00,Monday
250,0.7123022390680762
251,37324125.99583854
336,0.0
385,17.804675777729948
386,25.21749756381572
387,-0.9198838088939253
388,0.0
425,0.0
450,0.0
451,0.0
452,-1.5114747925112715
453,0.0
490,0.0
515,0.0
516,0.0
542,0.0
592,4695076.569900009
632,32370222.76577461
686,1.0
687,1.0
688,2.0
2,21, 1,21, 0, 6,20.00,30.00,Monday
250,0.7124196317128467
251,37324079.17676675
336,0.0
385,17.804675777729948
386,25.21749756381572
387,-0.9214667271874653
388,0.0
425,0.0
450,0.0
451,0.0
452,-1.5044928157754522
453,0.0
490,0.0
515,0.0
516,0.0
542,0.0
592,4694888.993658494
632,32370361.992022462
686,1.0
687,1.0
688,2.0
2,21, 1,21, 0, 6,30.00,40.00,Monday
250,0.7125419808791267
251,37324057.20361495
336,0.0
385,17.804675777729948
386,25.21749756381572
387,-0.923218764168191
388,0.0
425,0.0
450,0.0
451,0.0
452,-1.499430258131356
453,0.0
490,0.0
515,0.0
516,0.0
542,0.0
592,4694701.353498662
632,32370530.329104632
686,1.0
687,1.0
688,2.0
2,21, 1,21, 0, 6,40.00,50.00,Monday
250,0.7126680378406874
251,37324030.25080332
336,0.0
385,17.804675777729948
386,25.21749756381572
387,-0.9251080259941616
388,0.0
425,0.0
450,0.0
451,0.0
452,-1.4958329963600456
453,0.0
490,0.0
515,0.0
516,0.0
542,0.0
592,4694513.649387832
632,32370693.077808987
686,1.0
687,1.0
688,2.0
2,21, 1,21, 0, 6,50.00,60.00,Monday
250,0.712799182620822
251,37323998.998181015
336,0.0
385,17.804675777729948
386,25.21749756381572
387,-0.9271172451338239
388,0.0
425,0.0
450,0.0
451,0.0
452,-1.4932793172688583
453,0.0
490,0.0
515,0.0
516,0.0
542,0.0
592,4694325.88129331
632,32370852.334086128
686,1.0
687,1.0
688,2.0
2,21, 1,21, 0, 7, 0.00,10.00,Monday
250,0.7098904789773377
251,37325605.423691474
336,0.0
385,17.804675777729948
386,25.21749756381572
387,-0.9316795466015768
388,0.0
425,0.0
450,0.0
451,0.0
452,-1.496625871702639
453,0.0
490,0.0
515,0.0
516,0.0
542,0.0
592,4723573.583255435
632,32341573.534207158
686,1.0
687,1.0
688,2.0
2,21, 1,21, 0, 7,10.00,20.00,Monday
250,0.7098727641539238
251,37322877.62496427
336,0.0
385,17.804675777729948
386,25.21749756381572
387,-0.9409629358054469
388,0.0
425,0.0
450,0.0
451,0.0
452,-1.5153258063320536
453,0.0
490,0.0
515,0.0
516,0.0
542,0.0
592,4752837.186047653
632,32311139.46831932
686,1.0
687,1.0
688,2.0
2,21, 1,21, 0, 7,20.00,30.00,Monday
250,0.7101077349171037
251,37319805.24817832
336,0.0
385,17.804675777729948
386,25.21749756381572
387,-0.9551865945327165
388,0.0
425,0.0
450,0.0
451,0.0
452,-1.5547721916849941
453,0.0
490,0.0
515,0.0
516,0.0
542,0.0
592,4782116.702651945
632,32278923.67312113
686,1.0
687,1.0
688,2.0
2,21, 1,21, 0, 7,30.00,40.00,Monday
250,0.7102636526061009
251,37316837.296779886
336,0.0
385,17.804675777729948
386,25.21749756381572
387,-0.9733759527919963
388,0.0
425,0.0
450,0.0
451,0.0
452,-1.6126442857823136
453,0.0
490,0.0
515,0.0
516,0.0
542,0.0
592,4811412.146064445
632,32246617.693527635
686,1.0
687,1.0
688,2.0
2,21, 1,21, 0, 7,40.00,50.00,Monday
250,0.7104318392157635
251,37313854.27500497
336,0.0
385,17.804675777729948
386,25.21749756381572
387,-0.9944462481222897
388,0.0
425,0.0
450,0.0
451,0.0
452,-1.6826842758214464
453,0.0
490,0.0
515,0.0
516,0.0
542,0.0
592,4840723.52929546
632,32214329.889078565
686,1.0
687,1.0
688,2.0
2,21, 1,21, 0, 7,50.00,60.00,Monday
250,0.710614423766308
251,37310858.32165237
336,0.0
385,17.804675777729948
386,25.21749756381572
387,-1.0176582141568515
388,0.0
425,0.0
450,0.0
451,0.0
452,-1.7591699217541519
453,0.0
490,0.0
515,0.0
516,0.0
542,0.0
592,4870050.865369482
632,32182014.34560301
686,1.0
687,1.0
688,2.0
2,21, 1,21, 0, 8, 0.00,10.00,Monday
250,0.9120664403288665
251,37199490.25656311
336,0.0
385,17.804675777729948
386,25.21749756381572
387,-1.0137963438506181
388,0.0
425,0.0
450,0.0
451,0.0
452,-1.8182107099581692
453,0.0
490,0.0
515,0.0
516,0.0
542,0.0
592,4889730.300311493
632,32159337.719638452
686,1.0
687,1.0
688,2.0
2,21, 1,21, 0, 8,10.00,20.00,Monday
250,1.1134640813276464
251,37093114.40314543
336,0.0
385,17.804675777729948
386,25.21749756381572
387,-0.9722013956302792
388,0.0
425,0.0
450,0.0
451,0.0
452,-1.8096777315990704
453,0.0
490,0.0
515,0.0
516,0.0
542,0.0
592,4909380.719869504
632,32033288.203371603
686,1.0
687,1.0
688,2.0
2,21, 1,21, 0, 8,20.00,30.00,Monday
250,1.3087332234055908
251,36990406.797660924
336,0.0
385,17.804675777729948
386,25.21749756381572
387,-0.9007839453494281
388,0.0
425,0.0
450,0.0
451,0.0
452,-1.7027308210389651
453,0.0
490,0.0
515,0.0
516,0.0
542,0.0
592,4929009.6156952735
632,31907658.640208572
686,1.0
687,1.0
688,2.0
2,21, 1,21, 0, 8,30.00,40.00,Monday
250,1.5053901559167948
251,36886838.190392636
336,0.0
385,17.804675777729948
386,25.21749756381572
387,-0.8095867855463528
388,0.0
425,0.0
450,0.0
451,0.0
452,-1.5083270319594728
453,0.0
490,0.0
515,0.0
516,0.0
542,0.0
592,4952863.646772657
632,31780990.024585996
686,1.0
687,1.0
688,2.0
2,21, 1,21, 0, 8,40.00,50.00,Monday
250,1.7026611669885576
251,36782560.732471965
336,0.0
385,17.804675777729948
386,25.21749756381572
387,-0.7070742596154294
388,0.0
425,0.0
450,0.0
451,0.0
452,-1.2314943373872462
453,0.0
490,0.0
515,0.0
516,0.0
542,0.0
592,4977062.298687916
632,31652850.280126225
686,1.0
687,1.0
688,2.0
2,21, 1,21, 0, 8,50.00,60.00,Monday
250,1.9020115475661816
251,36678043.43826385
336,0.0
385,17.804675777729948
386,25.21749756381572
387,-0.6107381480774218
388,0.0
425,0.0
450,0.0
451,0.0
452,-0.917234430192366
453,0.0
490,0.0
515,0.0
516,0.0
542,0.0
592,5001395.306277513
632,31473686.624653526
686,1.0
687,1.0
688,2.0
2,21, 1,21, 0, 9, 0.00,10.00,Monday
250,2.164897076628302
251,36540298.78916393
336,0.0
385,17.804675777729948
386,25.21749756381572
387,-0.47190114891055973
388,0.0
425,0.0
450,0.0
451,0.0
452,-0.43683722896227517
453,0.0
490,0.0
515,0.0
516,0.0
542,0.0
592,5029363.153609448
632,31325112.24636776
686,1.0
687,1.0
688,2.0
2,21, 1,21, 0, 9,10.00,20.00,Monday
250,2.4274617576380795
251,36401857.43969102
336,0.0
385,17.804675777729948
386,25.21749756381572
387,-0.32065315585101695
388,0.0
425,0.0
450,0.0
451,0.0
452,0.08754439828090785
453,0.0
490,0.0
515,0.0
516,0.0
542,0.0
592,5057356.862312016
632,31158479.46252624
686,1.0
687,1.0
688,2.0
2,21, 1,21, 0, 9,20.00,30.00,Monday
250,2.6902984507036813
251,36263255.46765216
336,0.0
385,17.804675777729948
386,25.21749756381572
387,-0.1607103876011028
388,0.0
425,0.0
450,0.0
451,0.0
452,0.6522495241198515
453,0.0
490,0.0
515,0.0
516,0.0
542,0.0
592,5085392.284952975
632,30991921.36016137
686,1.0
687,1.0
688,2.0
2,21, 1,21, 0, 9,30.00,40.00,Monday
250,2.952891120787406
251,36124784.69888935
336,0.0
385,17.804675777729948
386,25.21749756381572
387,0.008908712423987827
388,0.0
425,0.0
450,0.0
451,0.0
452,1.2469319629336506
453,0.0
490,0.0
515,0.0
516,0.0
542,0.0
592,5113485.892141593
632,30825290.266755246
686,1.0
687,1.0
688,2.0
2,21, 1,21, 0, 9,40.00,50.00,Monday
250,3.2165574244086494
251,35984825.0934726
336,0.0
385,17.804675777729962
386,25.21749756381574
387,0.15386896752336504
388,0.0
425,0.0
450,0.0
451,0.0
452,1.7492433485064274
453,0.0
490,0.0
515,0.0
516,0.0
542,0.0
592,5141654.529350725
632,30632136.771616034
686,1.0000000000000009
687,1.0000000000000009
688,2.0000000000000018
2,21, 1,21, 0, 9,50.00,60.00,Monday
250,3.4798109216971747
251,35845438.7201353
336,0.0
385,17.804675777729948
386,25.21749756381572
387,0.3059483712846599
388,0.0
425,0.0
450,0.0
451,0.0
452,2.2902865745142225
453,0.0
490,0.0
515,0.0
516,0.0
542,0.0
592,5169915.672059793
632,30490516.650275555
686,1.0
687,1.0
688,2.0
2,21, 1,21, 0,10, 0.00,10.00,Monday
250,3.93286255274087
251,35605114.47893083
336,0.0
385,17.804675777729948
386,25.21749756381572
387,0.49630779277409287
388,0.0
425,0.0
450,0.0
451,0.0
452,2.850235241328398
453,0.0
490,0.0
515,0.0
516,0.0
542,0.0
592,5241404.10703412
632,30187226.75317106
686,1.0
687,1.0
688,2.0
2,21, 1,21, 0,10,10.00,20.00,Monday
250,4.388360329182003
251,35364028.20170844
336,0.0
385,17.804675777729948
386,25.21749756381572
387,0.7874013347360929
388,0.0
425,0.0
450,0.0
451,0.0
452,3.6052557078813408
453,0.0
490,0.0
515,0.0
516,0.0
542,0.0
592,5315291.857316207
632,29871990.874553546
686,1.0
687,1.0
688,2.0
2,21, 1,21, 0,10,20.00,30.00,Monday
250,4.84538073862395
251,35120898.94385098
336,0.0
385,17.80467577772994
386,25.217497563815705
387,1.0679341643254263
388,0.0
425,0.0
450,0.0
451,0.0
452,4.294940744905556
453,0.0
490,0.0
515,0.0
516,0.0
542,0.0
592,5391793.298050373
632,29552677.96440129
686,0.9999999999999996
687,0.9999999999999996
688,1.9999999999999991
2,21, 1,21, 0,10,30.00,40.00,Monday
250,5.3031182419553256
251,34877252.997457676
336,0.0
385,17.804675777729955
386,25.217497563815726
387,1.349817230320313
388,0.0
425,0.0
450,0.0
451,0.0
452,4.995862980635568
453,0.0
490,0.0
515,0.0
516,0.0
542,0.0
592,5471132.199313744
632,29229865.39688637
686,1.0000000000000004
687,1.0000000000000004
688,2.000000000000001
2,21, 1,21, 0,10,40.00,50.00,Monday
250,5.761801342571365
251,34632958.76878764
336,0.0
385,17.804675777729962
386,25.21749756381574
387,1.6400490406199668
388,0.0
425,0.0
450,0.0
451,0.0
452,5.759818188275535
453,0.0
490,0.0
515,0.0
516,0.0
542,0.0
592,5553542.375759331
632,28903378.47800992
686,1.0000000000000009
687,1.0000000000000009
688,2.0000000000000018
2,21, 1,21, 0,10,50.00,60.00,Monday
250,6.220553273406548
251,34388482.348343074
336,0.0
385,17.804675777729962
386,25.21749756381574
387,1.9403536288443095
388,0.0
425,0.0
450,0.0
451,0.0
452,6.589157639416523
453,0.0
490,0.0
515,0.0
516,0.0
542,0.0
592,5639267.778995938
632,28573236.963725988
686,1.0000000000000009
687,1.0000000000000009
688,2.0000000000000018
2,21, 1,21, 0,11, 0.00,10.00,Monday
250,6.504313053327277
251,34237483.936337
336,0.0
385,17.804675777729948
386,25.21749756381572
387,2.2269313453693065
388,0.0
425,0.0
450,0.0
451,0.0
452,7.444471208977465
453,0.0
490,0.0
515,0.0
516,0.0
542,0.0
592,5689519.861596227
632,28340345.646427326
686,1.0
687,1.0
688,2.0
2,21, 1,21, 0,11,10.00,20.00,Monday
250,6.785784723499667
251,34087630.71760086
336,0.0
385,17.804675777729948
386,25.21749756381572
387,2.496737631534211
388,0.0
425,0.0
450,0.0
451,0.0
452,8.295117011454188
453,0.0
490,0.0
515,0.0
516,0.0
542,0.0
592,5740969.350869596
632,28138593.9306802
686,1.0
687,1.0
688,2.0
2,21, 1,21, 0,11,20.00,30.00,Monday
250,7.067289111599784
251,33937714.99502444
336,0.0
385,17.80467577772994
386,25.217497563815705
387,2.768909864524454
388,0.0
425,0.0
450,0.0
451,0.0
452,9.141854219234007
453,0.0
490,0.0
515,0.0
516,0.0
542,0.0
592,5793671.0952822175
632,27935998.61685712
686,0.9999999999999996
687,0.9999999999999996
688,1.9999999999999991
2,21, 1,21, 0,11,30.00,40.00,Monday
250,7.347749957611056
251,33788308.629206315
336,0.0
385,17.804675777729955
386,25.217497563815726
387,3.0462455768162187
388,0.0
425,0.0
450,0.0
451,0.0
452,9.964293024561957
453,0.0
490,0.0
515,0.0
516,0.0
542,0.0
592,5847681.4279665835
632,27732409.53345789
686,1.0000000000000004
687,1.0000000000000004
688,2.000000000000001
2,21, 1,21, 0,11,40.00,50.00,Monday
250,7.627730507703853
251,33639108.0590951
336,0.0
385,17.804675777729962
386,25.21749756381574
387,3.3253441381069484
388,0.0
425,0.0
450,0.0
451,0.0
452,10.70965760722103
453,0.0
490,0.0
515,0.0
516,0.0
542,0.0
592,5903058.082199926
632,27527762.29026115
686,1.0000000000000009
687,1.0000000000000009
688,2.0000000000000018
2,21, 1,21, 0,11,50.00,60.00,Monday
250,7.907078325779366
251,33490194.103029914
336,0.0
385,17.804675777729962
386,25.21749756381574
387,3.6023533436499524
388,0.0
425,0.0
450,0.0
451,0.0
452,11.345000280030431
453,0.0
490,0.0
515,0.0
516,0.0
542,0.0
592,5959860.237244541
632,27321948.92837314
686,1.0000000000000009
687,1.0000000000000009
688,2.0000000000000018
2,21, 1,21, 0,12, 0.00,10.00,Monday
250,8.173197031372037
251,33348280.792810462
336,0.0
385,17.804675777729948
386,25.21749756381572
387,3.8422954029626464
388,0.0
425,0.0
450,0.0
451,0.0
452,11.844284234409749
453,0.0
490,0.0
515,0.0
516,0.0
542,0.0
592,5991096.197635707
632,27173014.84557599
686,1.0
687,1.0
688,2.0
2,21, 1,21, 0,12,10.00,20.00,Monday
250,8.434239888150836
251,33212555.660115503
336,0.0
385,17.804675777729948
386,25.21749756381572
387,4.134656717789364
388,0.0
425,0.0
450,0.0
451,0.0
452,12.408262010701534
453,0.0
490,0.0
515,0.0
516,0.0
542,0.0
592,7572016.881221028
632,25454067.591440316
686,1.0
687,1.0
688,2.0
2,21, 1,21, 0,12,20.00,30.00,Monday
250,8.698076777668016
251,33073667.486224376
336,0.0
385,17.804675777729948
386,25.21749756381572
387,4.40376343252654
388,0.0
425,0.0
450,0.0
451,0.0
452,12.924053125826678
453,0.0
490,0.0
515,0.0
516,0.0
542,0.0
592,7609409.155487608
632,25278467.328304455
686,1.0
687,1.0
688,2.0
2,21, 1,21, 0,12,30.00,40.00,Monday
250,8.96134739535236
251,32935088.900863513
336,0.0
385,17.804675777729948
386,25.21749756381572
387,4.662556859382507
388,0.0
425,0.0
450,0.0
451,0.0
452,13.415235786180329
453,0.0
490,0.0
515,0.0
516,0.0
542,0.0
592,7646583.592010485
632,25102562.51249799
686,1.0
687,1.0
688,2.0
2,21, 1,21, 0,12,40.00,50.00,Monday
250,9.22448134882534
251,32796583.391944274
336,0.0
385,17.804675777729948
386,25.21749756381572
387,4.916963597094238
388,0.0
425,0.0
450,0.0
451,0.0
452,13.856864585710316
453,0.0
490,0.0
515,0.0
516,0.0
542,0.0
592,7683540.190789656
632,24927062.011362538
686,1.0
687,1.0
688,2.0
2,21, 1,21, 0,12,50.00,60.00,Monday
250,9.487562974820236
251,32658105.327210173
336,0.0
385,17.804675777729948
386,25.21749756381572
387,5.165892605633729
388,0.0
425,0.0
450,0.0
451,0.0
452,14.22477364320526
453,0.0
490,0.0
515,0.0
516,0.0
542,0.0
592,7720278.951825122
632,24751831.26097119
686,1.0
687,1.0
688,2.0
2,21, 1,21, 0,13, 0.00,10.00,Monday
250,9.66928820225801
251,32560351.1924414
336,0.0
385,17.804675777729948
386,25.21749756381572
387,5.398254880028288
388,0.0
425,0.0
450,0.0
451,0.0
452,14.51606503937046
453,0.0
490,0.0
515,0.0
516,0.0
542,0.0
592,7745410.487127082
632,24646837.848443057
686,1.0
687,1.0
688,2.0
2,21, 1,21, 0,13,10.00,20.00,Monday
250,9.849441820512757
251,32466923.108681623
336,0.0
385,17.804675777729948
386,25.21749756381572
387,5.617000602603895
388,0.0
425,0.0
450,0.0
451,0.0
452,14.745257288118363
453,0.0
490,0.0
515,0.0
516,0.0
542,0.0
592,7770439.060057996
632,24534832.51023201
686,1.0
687,1.0
688,2.0
2,21, 1,21, 0,13,20.00,30.00,Monday
250,10.031711925095502
251,32372656.967528872
336,0.0
385,17.804675777729948
386,25.21749756381572
387,5.82185620286694
388,0.0
425,0.0
450,0.0
451,0.0
452,14.928381242463649
453,0.0
490,0.0
515,0.0
516,0.0
542,0.0
592,7795364.67061786
632,24416795.665998682
686,1.0
687,1.0
688,2.0
2,21, 1,21, 0,13,30.00,40.00,Monday
250,10.213528213392257
251,32278662.871402632
336,0.0
385,17.804675777729948
386,25.21749756381572
387,6.016841694136006
388,0.0
425,0.0
450,0.0
451,0.0
452,15.077298138717186
453,0.0
490,0.0
515,0.0
516,0.0
542,0.0
592,7820187.318806678
632,24297746.576149274
686,1.0
687,1.0
688,2.0
2,21, 1,21, 0,13,40.00,50.00,Monday
250,10.395178359298917
251,32184791.429182824
336,0.0
385,17.804675777729948
386,25.21749756381572
387,6.205705627194172
388,0.0
425,0.0
450,0.0
451,0.0
452,15.196553272784271
453,0.0
490,0.0
515,0.0
516,0.0
542,0.0
592,7844907.004624449
632,24179078.551788595
686,1.0
687,1.0
688,2.0
2,21, 1,21, 0,13,50.00,60.00,Monday
250,10.576779710560395
251,32090979.333259687
336,0.0
385,17.804675777729948
386,25.21749756381572
387,6.3897493880117775
388,0.0
425,0.0
450,0.0
451,0.0
452,15.28982455992339
453,0.0
490,0.0
515,0.0
516,0.0
542,0.0
592,7869523.72807117
632,24060636.364254143
686,1.0
687,1.0
688,2.0
2,21, 1,21, 0,14, 0.00,10.00,Monday
250,10.77632073710502
251,31987510.35840752
336,0.0
385,17.804675777729948
386,25.21749756381572
387,6.571805313174609
388,0.0
425,0.0
450,0.0
451,0.0
452,15.345736358074753
453,0.0
490,0.0
515,0.0
516,0.0
542,0.0
592,7896260.907308879
632,23940132.830390632
686,1.0
687,1.0
688,2.0
2,21, 1,21, 0,14,10.00,20.00,Monday
250,10.974304028632455
251,31884516.858583964
336,0.0
385,17.804675777729948
386,25.21749756381572
387,6.7520022984944905
388,0.0
425,0.0
450,0.0
451,0.0
452,15.345983651383783
453,0.0
490,0.0
515,0.0
516,0.0
542,0.0
592,7922875.552815756
632,23809696.54665217
686,1.0
687,1.0
688,2.0
2,21, 1,21, 0,14,20.00,30.00,Monday
250,11.171682730622933
251,31781833.599161133
336,0.0
385,17.804675777729948
386,25.21749756381572
387,6.928186617405103
388,0.0
425,0.0
450,0.0
451,0.0
452,15.290122232822132
453,0.0
490,0.0
515,0.0
516,0.0
542,0.0
592,7949367.664591796
632,23680207.79679824
686,1.0
687,1.0
688,2.0
2,21, 1,21, 0,14,30.00,40.00,Monday
250,11.368769905052002
251,31679337.90764045
336,0.0
385,17.804675777729948
386,25.21749756381572
387,7.0944141064146775
388,0.0
425,0.0
450,0.0
451,0.0
452,15.167650768692281
453,0.0
490,0.0
515,0.0
516,0.0
542,0.0
592,7975737.242637003
632,23551198.40928222
686,1.0
687,1.0
688,2.0
2,21, 1,21, 0,14,40.00,50.00,Monday
250,11.565501408238452
251,31577055.68072434
336,0.0
385,17.804675777729948
386,25.21749756381572
387,7.246992836731431
388,0.0
425,0.0
450,0.0
451,0.0
452,14.95886962086973
453,0.0
490,0.0
515,0.0
516,0.0
542,0.0
592,8001984.286951375
632,23422490.480051186
686,1.0
687,1.0
688,2.0
2,21, 1,21, 0,14,50.00,60.00,Monday
250,11.761891412189872
251,31474979.584991943
336,0.0
385,17.804675777729948
386,25.21749756381572
387,7.386211857012545
388,0.0
425,0.0
450,0.0
451,0.0
452,14.666849196184574
453,0.0
490,0.0
515,0.0
516,0.0
542,0.0
592,8028108.797534912
632,23294118.99004734
686,1.0
687,1.0
688,2.0
2,21, 1,21, 0,15, 0.00,10.00,Monday
250,12.02311755049412
251,31338635.30081117
336,0.0
385,17.804675777729948
386,25.21749756381572
387,7.507080930991201
388,0.0
425,0.0
450,0.0
451,0.0
452,14.37121648478169