Program Version,EnergyPlus, Version 24.1.0-9d7789a3ac, YMD=2025.04.05 15:39
1,5,Environment Title[],Latitude[deg],Longitude[deg],Time Zone[],Elevation[m]
2,8,Day of Simulation[],Month[],Day of Month[],DST Indicator[1=yes 0=no],Hour[],StartMinute[],EndMinute[],DayType
3,5,Cumulative Day of Simulation[],Month[],Day of Month[],DST Indicator[1=yes 0=no],DayType  ! When Daily Report Variables Requested
4,2,Cumulative Days of Simulation[],Month[]  ! When Monthly Report Variables Requested
5,1,Cumulative Days of Simulation[] ! When Run Period Report Variables Requested
6,1,Calendar Year of Simulation[] ! When Annual Report Variables Requested
250,1,LIVING ZONE,Zone Air Temperature [C] !TimeStep,REPORTSCH
251,1,LIVING ZONE,Zone Air System Sensible Heating Energy [J] !TimeStep,REPORTSCH
336,1,LIVING ZONE,Zone Air System Sensible Cooling Energy [J] !TimeStep,REPORTSCH
385,1,LIVING ZONE,Zone Thermostat Heating Setpoint Temperature [C] !TimeStep,REPORTSCH
386,1,LIVING ZONE,Zone Thermostat Cooling Setpoint Temperature [C] !TimeStep,REPORTSCH
387,1,GARAGE ZONE,Zone Air Temperature [C] !TimeStep,REPORTSCH
388,1,GARAGE ZONE,Zone Air System Sensible Heating Energy [J] !TimeStep,REPORTSCH
425,1,GARAGE ZONE,Zone Air System Sensible Cooling Energy [J] !TimeStep,REPORTSCH
450,1,GARAGE ZONE,Zone Thermostat Heating Setpoint Temperature [C] !TimeStep,REPORTSCH
451,1,GARAGE ZONE,Zone Thermostat Cooling Setpoint Temperature [C] !TimeStep,REPORTSCH
452,1,ATTIC ZONE,Zone Air Temperature [C] !TimeStep,REPORTSCH
453,1,ATTIC ZONE,Zone Air System Sensible Heating Energy [J] !TimeStep,REPORTSCH
490,1,ATTIC ZONE,Zone Air System Sensible Cooling Energy [J] !TimeStep,REPORTSCH
515,1,ATTIC ZONE,Zone Thermostat Heating Setpoint Temperature [C] !TimeStep,REPORTSCH
516,1,ATTIC ZONE,Zone Thermostat Cooling Setpoint Temperature [C] !TimeStep,REPORTSCH
542,1,ACDXCOIL 1,Cooling Coil Total Cooling Energy [J] !TimeStep,REPORTSCH
592,1,HEAT PUMP DX HEATING COIL 1,Heating Coil Heating Energy [J] !TimeStep,REPORTSCH
632,1,SUPP HEATING COIL 1,Heating Coil Heating Energy [J] !TimeStep,REPORTSCH
686,1,TWOSPEED HEAT PUMP 1,Unitary System DX Coil Cycling Ratio [] !TimeStep,REPORTSCH
687,1,TWOSPEED HEAT PUMP 1,Unitary System DX Coil Speed Ratio [] !TimeStep,REPORTSCH
688,1,TWOSPEED HEAT PUMP 1,Unitary System DX Coil Speed Level [] !TimeStep
End of Data Dictionary
1,RUN PERIOD 1,  41.98, -87.92,  -6.00, 201.00
2,21, 1,21, 0, 1, 0.00,10.00,Monday
250,22.656776111932196
251,6685281.412365239
336,0.0
385,22.76
386,28.44
387,0.6334791591222075
388,0.0
425,0.0
450,0.0
451,0.0
452,-1.6158021838415797
453,0.0
490,0.0
515,0.0
516,0.0
542,0.0
592,4878566.013474655
632,1787476.9481263564
686,1.0
687,1.0
688,2.0
2,21, 1,21, 0, 1,10.00,20.00,Monday
250,22.752861870234877
251,6017999.778650553
336,0.0
385,22.76
386,28.44
387,0.6015396413656231
388,0.0
425,0.0
450,0.0
451,0.0
452,-1.603311346548606
453,0.0
490,0.0
515,0.0
516,0.0
542,0.0
592,4862343.336580907
632,881303.7005060334
686,1.0
687,1.0
688,2.0
2,21, 1,21, 0, 1,20.00,30.00,Monday
250,21.741222768189285
251,4613568.951354549
336,0.0
385,21.426666666666687
386,28.44000000000002
387,0.5774243514037206
388,0.0
425,0.0
450,0.0
451,0.0
452,-1.5961083587365155
453,0.0
490,0.0
515,0.0
516,0.0
542,0.0
592,1960187.7740303986
632,2574978.5586456265
686,0.45782327901576303
687,0.26001579040588857
688,0.833333333333334
2,21, 1,21, 0, 1,30.00,40.00,Monday
250,22.657529083554287
251,6736728.830715708
336,0.0
385,22.76
386,28.44
387,0.5525894225278262
388,0.0
425,0.0
450,0.0
451,0.0
452,-1.5905820897662544
453,0.0
490,0.0
515,0.0
516,0.0
542,0.0
592,4831084.235087386
632,1884992.859352828
686,1.0
687,1.0
688,2.0
2,21, 1,21, 0, 1,40.00,50.00,Monday
250,22.752933174812686
251,6076995.75851139
336,0.0
385,22.76
386,28.44
387,0.5236157204756685
388,0.0
425,0.0
450,0.0
451,0.0
452,-1.5862755989893533
453,0.0
490,0.0
515,0.0
516,0.0
542,0.0
592,4814866.963154011
632,987675.9948373786
686,1.0
687,1.0
688,2.0
2,21, 1,21, 0, 1,50.00,60.00,Monday
250,21.73507341699399
251,4671584.543909232
336,0.0
385,21.426666666666634
386,28.439999999999966
387,0.5010293764499678
388,0.0
425,0.0
450,0.0
451,0.0
452,-1.5847712377054548
453,0.0
490,0.0
515,0.0
516,0.0
542,0.0
592,2003782.1840427232
632,2583412.211871834
686,0.4643062336427902
687,0.29101102114590605
688,0.8333333333333321
2,21, 1,21, 0, 2, 0.00,10.00,Monday
250,22.6570898100008
251,6784417.004704565
336,0.0
385,22.76
386,28.44
387,0.4773035401130591
388,0.0
425,0.0
450,0.0
451,0.0
452,-1.585294311077904
453,0.0
490,0.0
515,0.0
516,0.0
542,0.0
592,4799432.339458657
632,1966003.1036880764
686,1.0
687,1.0
688,2.0
2,21, 1,21, 0, 2,10.00,20.00,Monday
250,22.75291803602258
251,6103438.294721204
336,0.0
385,22.76
386,28.44
387,0.44915095554472867
388,0.0
425,0.0
450,0.0
451,0.0
452,-1.5893309855317161
453,0.0
490,0.0
515,0.0
516,0.0
542,0.0
592,4799044.813836186
632,1029982.6091117404
686,1.0
687,1.0
688,2.0
2,21, 1,21, 0, 2,20.00,30.00,Monday
250,21.733077022390372
251,4689425.749393249
336,0.0
385,21.426666666666687
386,28.44000000000002
387,0.4268574244951894
388,0.0
425,0.0
450,0.0
451,0.0
452,-1.596770900158941
453,0.0
490,0.0
515,0.0
516,0.0
542,0.0
592,2019959.389901918
632,2583705.938684294
686,0.46594873805972087
687,0.2990734857502307
688,0.833333333333334
2,21, 1,21, 0, 2,30.00,40.00,Monday
250,22.65700603004759
251,6803931.350942276
336,0.0
385,22.76
386,28.44
387,0.4030757691793549
388,0.0
425,0.0
450,0.0
451,0.0
452,-1.6078067053610416
453,0.0
490,0.0
515,0.0
516,0.0
542,0.0
592,4799431.313383941
632,1986084.403077087
686,1.0
687,1.0
688,2.0
2,21, 1,21, 0, 2,40.00,50.00,Monday
250,22.752922139964898
251,6118411.708195018
336,0.0
385,22.76
386,28.44
387,0.37450500274423293
388,0.0
425,0.0
450,0.0
451,0.0
452,-1.623796042614359
453,0.0
490,0.0
515,0.0
516,0.0
542,0.0
592,4799044.911826585
632,1044958.694409491
686,1.0
687,1.0
688,2.0
2,21, 1,21, 0, 2,50.00,60.00,Monday
250,21.7314066441455
251,4704311.750624024
336,0.0
385,21.426666666666634
386,28.439999999999966
387,0.3517464239617101
388,0.0
425,0.0
450,0.0
451,0.0
452,-1.6392473442401436
453,0.0
490,0.0
515,0.0
516,0.0
542,0.0
592,2033467.8738169437
632,2583950.295048966
686,0.4673213116390196
687,0.3058047673102756
688,0.8333333333333321
2,21, 1,21, 0, 3, 0.00,10.00,Monday
250,22.65696136878616
251,6831304.120939167
336,0.0
385,22.76
386,28.44
387,0.32789694890232995
388,0.0
425,0.0
450,0.0
451,0.0
452,-1.655298519870834
453,0.0
490,0.0
515,0.0
516,0.0
542,0.0
592,4799430.415336257
632,2013928.753154156
686,1.0
687,1.0
688,2.0
2,21, 1,21, 0, 3,10.00,20.00,Monday
250,22.752931678995076
251,6152884.263955825
336,0.0
385,22.76
386,28.44
387,0.30009510713361126
388,0.0
425,0.0
450,0.0
451,0.0
452,-1.6699904179294356
453,0.0
490,0.0
515,0.0
516,0.0
542,0.0
592,4799044.943288814
632,1079429.6387735703
686,1.0
687,1.0
688,2.0
2,21, 1,21, 0, 3,20.00,30.00,Monday
250,21.726106580090473
251,4752206.923293563
336,0.0
385,21.426666666666687
386,28.44000000000002
387,0.2791286897514232
388,0.0
425,0.0
450,0.0
451,0.0
452,-1.6746737939670437
453,0.0
490,0.0
515,0.0
516,0.0
542,0.0
592,2077327.2597407138
632,2584316.5217799935
686,0.4718377288194929
687,0.32750744734877024
688,0.833333333333334
2,21, 1,21, 0, 3,30.00,40.00,Monday
250,22.656577860778597
251,6879476.083337806
336,0.0
385,22.76
386,28.44
387,0.25774290809938094
388,0.0
425,0.0
450,0.0
451,0.0
452,-1.6747833211187646
453,0.0
490,0.0
515,0.0
516,0.0
542,0.0
592,4799427.8213460855
632,2063519.4474203137
686,1.0
687,1.0
688,2.0
2,21, 1,21, 0, 3,40.00,50.00,Monday
250,22.752920090228077
251,6192861.371653273
336,0.0
385,22.76
386,28.44
387,0.23325230856852705
388,0.0
425,0.0
450,0.0
451,0.0
452,-1.670322440870255
453,0.0
490,0.0
515,0.0
516,0.0
542,0.0
592,4799045.1543934485
632,1119443.86211735
686,1.0
687,1.0
688,2.0
2,21, 1,21, 0, 3,50.00,60.00,Monday
250,21.72103561254291
251,4795594.5632974915
336,0.0
385,21.426666666666634
386,28.439999999999966
387,0.21507385204418153
388,0.0
425,0.0
450,0.0
451,0.0
452,-1.6631223890606996
453,0.0
490,0.0
515,0.0
516,0.0
542,0.0
592,2099564.4974303064
632,2603916.247104197
686,0.4760313438921958
687,0.33333333333333287
688,0.8333333333333321
2,21, 1,21, 0, 4, 0.00,10.00,Monday
250,22.656277224333586
251,6986539.272732379
336,0.0
385,22.76
386,28.44
387,0.19225506332078318
388,0.0
425,0.0
450,0.0
451,0.0
452,-1.6548711367253388
453,0.0
490,0.0
515,0.0
516,0.0
542,0.0
592,4794869.6091339765
632,2176501.105290027
686,1.0
687,1.0
688,2.0
2,21, 1,21, 0, 4,10.00,20.00,Monday
250,22.75292882290173
251,6356757.024486039
336,0.0
385,22.76
386,28.44
387,0.16088615041219181
388,0.0
425,0.0
450,0.0
451,0.0
452,-1.6465346472693525
453,0.0
490,0.0
515,0.0
516,0.0
542,0.0
592,4789470.992453238
632,1292941.6567532674
686,1.0
687,1.0
688,2.0
2,21, 1,21, 0, 4,20.00,30.00,Monday
250,21.702466654625574
251,5030451.544336555
336,0.0
385,21.426666666666687
386,28.44000000000002
387,0.13319354428491242
388,0.0
425,0.0
450,0.0
451,0.0
452,-1.643791114973527
453,0.0
490,0.0
515,0.0
516,0.0
542,0.0
592,2203194.927837966
632,2726242.982245188
686,0.5071088111802218
687,0.3346522661785741
688,1.1666666666666674
2,21, 1,21, 0, 4,30.00,40.00,Monday
250,22.654768404380167
251,7224136.54961918
336,0.0
385,22.76
386,28.44
387,0.10212712495592488
388,0.0
425,0.0
450,0.0
451,0.0
452,-1.6450610255673688
453,0.0
490,0.0
515,0.0
516,0.0
542,0.0
592,4780282.258553732
632,2433580.4098737105
686,1.0
687,1.0
688,2.0
2,21, 1,21, 0, 4,40.00,50.00,Monday
250,22.752867958476628
251,6575278.247650892
336,0.0
385,22.76
386,28.44
387,0.06335311024139254
388,0.0
425,0.0
450,0.0
451,0.0
452,-1.6519575780067082
453,0.0
490,0.0
515,0.0
516,0.0
542,0.0
592,4773959.150253572
632,1527138.0590200468
686,1.0
687,1.0
688,2.0
2,21, 1,21, 0, 4,50.00,60.00,Monday
250,21.691271935897664
251,5261075.18663702
336,0.0
385,21.426666666666634
386,28.439999999999966
387,0.03139881976506578
388,0.0
425,0.0
450,0.0
451,0.0
452,-1.6617368085998803
453,0.0
490,0.0
515,0.0
516,0.0
542,0.0
592,2326045.939990131
632,2827232.7944235513
686,0.5194993317513449
687,0.40234852181017144
688,1.166666666666665
2,21, 1,21, 0, 5, 0.00,10.00,Monday
250,22.65388428680938
251,7352386.186373729
336,0.0
385,22.76
386,28.44
387,0.005313199167469538
388,0.0
425,0.0
450,0.0
451,0.0
452,-1.6701412878792454
453,0.0
490,0.0
515,0.0
516,0.0
542,0.0
592,4763850.845843388
632,2581198.734354848
686,1.0
687,1.0
688,2.0
2,21, 1,21, 0, 5,10.00,20.00,Monday
250,22.752825398713856
251,6583110.208947163
336,0.0
385,22.76
386,28.44
387,-0.017029509067540416
388,0.0
425,0.0
450,0.0
451,0.0
452,-1.6738538454738472
453,0.0
490,0.0
515,0.0
516,0.0
542,0.0
592,4756489.490351227
632,1552527.702378889
686,1.0
687,1.0
688,2.0
2,21, 1,21, 0, 5,20.00,30.00,Monday
250,21.69593779976487
251,5166148.048056254
336,0.0
385,21.426666666666687
386,28.44000000000002
387,-0.028062325904789548
388,0.0
425,0.0
450,0.0
451,0.0
452,-1.6669792161437087
453,0.0
490,0.0
515,0.0
516,0.0
542,0.0
592,2266710.3037086665
632,2794035.0579566895
686,0.5145556962060576
687,0.3765008194041929
688,1.1666666666666674
2,21, 1,21, 0, 5,30.00,40.00,Monday
250,22.654335175688452
251,7259331.933452683
336,0.0
385,22.76
386,28.44
387,-0.036313805243954944
388,0.0
425,0.0
450,0.0
451,0.0
452,-1.6517365665055803
453,0.0
490,0.0
515,0.0
516,0.0
542,0.0
592,4743509.899470214
632,2507263.2395859007
686,1.0
687,1.0
688,2.0
2,21, 1,21, 0, 5,40.00,50.00,Monday
250,22.75285097154503
251,6493271.566144515
336,0.0
385,22.76
386,28.44
387,-0.04284926979105685
388,0.0
425,0.0
450,0.0
451,0.0
452,-1.6258202803591844
453,0.0
490,0.0
515,0.0
516,0.0
542,0.0
592,4735373.127626922
632,1483750.8848026588
686,1.0
687,1.0
688,2.0
2,21, 1,21, 0, 5,50.00,60.00,Monday
250,21.700595436105687
251,5071199.20120292
336,0.0
385,21.426666666666634
386,28.439999999999966
387,-0.04531567873918519
388,0.0
425,0.0
450,0.0
451,0.0
452,-1.5989236366027992
453,0.0
490,0.0
515,0.0
516,0.0
542,0.0
592,2206130.474432124
632,2762155.9246232803
686,0.5095834587822349
687,0.3506597867621245
688,1.166666666666665
2,21, 1,21, 0, 6, 0.00,10.00,Monday
250,22.654845343612692
251,7247731.105759954
336,0.0
385,22.76
386,28.44
387,-0.054401748379551695
388,0.0
425,0.0
450,0.0
451,0.0
452,-1.5727594895162522
453,0.0
490,0.0
515,0.0
516,0.0
542,0.0
592,4724096.017600501
632,2513891.5291439337
686,1.0
687,1.0
688,2.0
2,21, 1,21, 0, 6,10.00,20.00,Monday
250,22.752895346104008
251,6568600.253981498
336,0.0
385,22.76
386,28.44
387,-0.07297566603643264
388,0.0
425,0.0
450,0.0
451,0.0
452,-1.5518965907491833
453,0.0
490,0.0
515,0.0
516,0.0
542,0.0
592,4719511.703795732
632,1574880.87393098
686,1.0
687,1.0
688,2.0
2,21, 1,21, 0, 6,20.00,30.00,Monday
250,21.69308614027713
251,5226022.452290634
336,0.0
385,21.426666666666687
386,28.44000000000002
387,-0.09346246650519616
388,0.0
425,0.0
450,0.0
451,0.0
452,-1.5503716346142564
453,0.0
490,0.0
515,0.0
516,0.0
542,0.0
592,2288244.01028983
632,2830171.4903012803
686,0.5179800180756429
687,0.3971487725466012
688,1.1666666666666674
2,21, 1,21, 0, 6,30.00,40.00,Monday
250,22.654297333356666
251,7404922.1338321045
336,0.0
385,22.76
386,28.44
387,-0.11861200957316236
388,0.0
425,0.0
450,0.0
451,0.0
452,-1.559685155632705
453,0.0
490,0.0
515,0.0
516,0.0
542,0.0
592,4711881.1080039125
632,2685302.3293937026
686,1.0
687,1.0
688,2.0
2,21, 1,21, 0, 6,40.00,50.00,Monday
250,22.752881906151142
251,6718631.924251711
336,0.0
385,22.76
386,28.44
387,-0.15211310853827015
388,0.0
425,0.0
450,0.0
451,0.0
452,-1.5816994099399933
453,0.0
490,0.0
515,0.0
516,0.0
542,0.0
592,4706347.647781162
632,1738132.1234601375
686,1.0
687,1.0
688,2.0
2,21, 1,21, 0, 6,50.00,60.00,Monday
250,21.68552460557966
251,5381295.267397659
336,0.0
385,21.426666666666634
386,28.439999999999966
387,-0.18087399357906442
388,0.0
425,0.0
450,0.0
451,0.0
452,-1.608630072548513
453,0.0
490,0.0
515,0.0
516,0.0
542,0.0
592,2370013.562325295
632,2899206.68014087
686,0.5264412589627555
687,0.4438519402804739
688,1.166666666666665
2,21, 1,21, 0, 7, 0.00,10.00,Monday
250,22.65368854396062
251,7561329.258407295
336,0.0
385,22.76
386,28.44
387,-0.21693634216653068
388,0.0
425,0.0
450,0.0
451,0.0
452,-1.6550398640738087
453,0.0
490,0.0
515,0.0
516,0.0
542,0.0
592,4724758.335381964
632,2830819.6885068477
686,1.0
687,1.0
688,2.0
2,21, 1,21, 0, 7,10.00,20.00,Monday
250,22.752852698046368
251,6818391.918884775
336,0.0
385,22.76
386,28.44
387,-0.2685784009606497
388,0.0
425,0.0
450,0.0
451,0.0
452,-1.7444949021077512
453,0.0
490,0.0
515,0.0
516,0.0
542,0.0
592,4744383.305675364
632,1799917.798112048
686,1.0
687,1.0
688,2.0
2,21, 1,21, 0, 7,20.00,30.00,Monday
250,21.682125932595632
251,5447624.805437863
336,0.0
385,21.426666666666687
386,28.44000000000002
387,-0.3177063134110473
388,0.0
425,0.0
450,0.0
451,0.0
452,-1.8616009309907318
453,0.0
490,0.0
515,0.0
516,0.0
542,0.0
592,2428700.6316308333
632,2906191.5470061773
686,0.5295432058600327
687,0.45615753052596
688,1.1666666666666674
2,21, 1,21, 0, 7,30.00,40.00,Monday
250,22.04578478267846
251,5316506.123603132
336,0.0
385,22.09333333333335
386,28.440000000000023
387,-0.3751082636542079
388,0.0
425,0.0
450,0.0
451,0.0
452,-2.016641706450039
453,0.0
490,0.0
515,0.0
516,0.0
542,0.0
592,3261656.417638473
632,2030728.6139347106
686,0.6871231239506578
687,0.6666666666666672
688,1.6666666666666679
2,21, 1,21, 0, 7,40.00,50.00,Monday
250,22.278251134003245
251,6619600.044696139
336,0.0
385,22.76
386,28.44
387,-0.4538117842731823
388,0.0
425,0.0
450,0.0
451,0.0
452,-2.236658411147396
453,0.0
490,0.0
515,0.0
516,0.0
542,0.0
592,4807250.034520058
632,2335093.71306113
686,1.0
687,1.0
688,2.0
2,21, 1,21, 0, 7,50.00,60.00,Monday
250,22.714117657500683
251,7744315.611752817
336,0.0
385,22.76
386,28.44
387,-0.5317113077552412
388,0.0
425,0.0
450,0.0
451,0.0
452,-2.4640602029920124
453,0.0
490,0.0
515,0.0
516,0.0
542,0.0
592,4823963.668208675
632,2759738.6555509134
686,1.0
687,1.0
688,2.0
2,21, 1,21, 0, 8, 0.00,10.00,Monday
250,21.691638776241085
251,5211925.129416715
336,0.0
385,21.42666666666667
386,28.439999999999998
387,-0.5957483540368289
388,0.0
425,0.0
450,0.0
451,0.0
452,-2.669533485195923
453,0.0
490,0.0
515,0.0
516,0.0
542,0.0
592,2325015.312408422
632,2781976.5857893205
686,0.5175497637133774
687,0.382664602463506
688,1.1666666666666665
2,21, 1,21, 0, 8,10.00,20.00,Monday
250,22.654535169225674
251,7259820.979937181
336,0.0
385,22.760000000000005
386,28.44000000000001
387,-0.6553402851777114
388,0.0
425,0.0
450,0.0
451,0.0
452,-2.8149917625393153
453,0.0
490,0.0
515,0.0
516,0.0
542,0.0
592,4846039.529354064
632,2406299.260836916
686,1.0000000000000002
687,1.0000000000000002
688,2.0000000000000004
2,21, 1,21, 0, 8,20.00,30.00,Monday
250,22.752915323906755
251,6463280.108356061
336,0.0
385,22.76
386,28.44
387,-0.7121486042886688
388,0.0
425,0.0
450,0.0
451,0.0
452,-2.8573181977280115
453,0.0
490,0.0
515,0.0
516,0.0
542,0.0
592,4854370.779576259
632,1334684.7895928754
686,1.0
687,1.0
688,2.0
2,21, 1,21, 0, 8,30.00,40.00,Monday
250,21.70437192674256
251,4983603.567105847
336,0.0
385,21.426666666666655
386,28.439999999999987
387,-0.7398288642186747
388,0.0
425,0.0
450,0.0
451,0.0
452,-2.754720366256984
453,0.0
490,0.0
515,0.0
516,0.0
542,0.0
592,2205907.522769061
632,2680398.776845558
686,0.49807540467035516
687,0.33333333333333287
688,0.9999999999999989
2,21, 1,21, 0, 8,40.00,50.00,Monday
250,22.655019117837703
251,7036277.6179704
336,0.0
385,22.76
386,28.44
387,-0.7537918135770345
388,0.0
425,0.0
450,0.0
451,0.0
452,-2.5403430424733653
453,0.0
490,0.0
515,0.0
516,0.0
542,0.0
592,4877583.1823263895
632,2147733.2378401654
686,1.0
687,1.0
688,2.0
2,21, 1,21, 0, 8,50.00,60.00,Monday
250,21.80911744096512
251,4407215.007860737
336,0.0
385,21.76
386,28.44
387,-0.7519768758052396
388,0.0
425,0.0
450,0.0
451,0.0
452,-2.1548757071827813
453,0.0
490,0.0
515,0.0
516,0.0
542,0.0
592,3127845.838565708
632,951326.8061985259
686,0.6943026897987017
687,0.5
688,1.5
2,21, 1,21, 0, 9, 0.00,10.00,Monday
250,22.667472317339403
251,7640085.502566408
336,0.0
385,22.76
386,28.44
387,-0.7216683384844931
388,0.0
425,0.0
450,0.0
451,0.0
452,-1.6956626292691828
453,0.0
490,0.0
515,0.0
516,0.0
542,0.0
592,4182567.876546275
632,3442274.713813755
686,0.9880582521330191
687,0.5
688,1.5
2,21, 1,21, 0, 9,10.00,20.00,Monday
250,21.79483345488765
251,4103447.7283582035
336,0.0
385,21.76
386,28.44
387,-0.666709807234108
388,0.0
425,0.0
450,0.0
451,0.0
452,-1.1651319434366194
453,0.0
490,0.0
515,0.0
516,0.0
542,0.0
592,2956739.2899974873
632,871553.1035126073
686,0.6397831537904123
687,0.5
688,1.5
2,21, 1,21, 0, 9,20.00,30.00,Monday
250,22.66633365935323
251,7480039.588695094
336,0.0
385,22.76
386,28.44
387,-0.593843980672694
388,0.0
425,0.0
450,0.0
451,0.0
452,-0.573775955377045
453,0.0
490,0.0
515,0.0
516,0.0
542,0.0
592,4093671.415376293
632,3379515.0783387697
686,0.9545900405756549
687,0.5
688,1.5
2,21, 1,21, 0, 9,30.00,40.00,Monday
250,21.530807362127895
251,4443167.513089173
336,0.0
385,21.426666666666684
386,28.440000000000023
387,-0.5265426579643913
388,0.0
425,0.0
450,0.0
451,0.0
452,-0.057075255136933734
453,0.0
490,0.0
515,0.0
516,0.0
542,0.0
592,3304600.211945488
632,916922.9836563834
686,0.6666666666666672
687,0.6666666666666672
688,1.3333333333333344
2,21, 1,21, 0, 9,40.00,50.00,Monday
250,22.0835324134828
251,4404838.273061289
336,0.0
385,22.09333333333335
386,28.440000000000023
387,-0.43667015128238185
388,0.0
425,0.0
450,0.0
451,0.0
452,0.6188656176693856
453,0.0
490,0.0
515,0.0
516,0.0
542,0.0
592,2534321.976036885
632,1923145.981067646
686,0.576714008076522
687,0.3333333333333336
688,1.0000000000000009
2,21, 1,21, 0, 9,50.00,60.00,Monday
250,21.757517892626343
251,4298985.83942549
336,0.0
385,21.560000000000002
386,28.440000000000005
387,-0.37009758191857967
388,0.0
425,0.0
450,0.0
451,0.0
452,1.0912498665523904
453,0.0
490,0.0
515,0.0
516,0.0
542,0.0
592,2158749.0326030846
632,2170596.2680792003
686,0.44478716761715187
687,0.4
688,1.0
2,21, 1,21, 0,10, 0.00,10.00,Monday
250,22.019655393350483
251,5814705.659369641
336,0.0
385,22.093333333333334
386,28.440000000000005
387,-0.2923382610600901
388,0.0
425,0.0
450,0.0
451,0.0
452,1.5888760051545443
453,0.0
490,0.0
515,0.0
516,0.0
542,0.0
592,3197073.598160371
632,2687388.060171213
686,0.7506444660675207
687,0.3333333333333333
688,1.3333333333333335
2,21, 1,21, 0,10,10.00,20.00,Monday
250,22.18766419061221
251,4293602.152307577
336,0.0
385,22.093333333333327
386,28.43999999999999
387,-0.17093181309060757
388,0.0
425,0.0
450,0.0
451,0.0
452,2.2512256349805093
453,0.0
490,0.0
515,0.0
516,0.0
542,0.0
592,3372598.2820167667
632,860486.2920350318
686,0.6666666666666664
687,0.6666666666666664
688,1.3333333333333328
2,21, 1,21, 0,10,20.00,30.00,Monday
250,21.786467742504243
251,4103652.758765126
336,0.0
385,21.560000000000002
386,28.440000000000005
387,-0.08158631423086835
388,0.0
425,0.0
450,0.0
451,0.0
452,2.73478266575122
453,0.0
490,0.0
515,0.0
516,0.0
542,0.0
592,2046571.774127254
632,2087050.1581231041
686,0.4284158604330371
687,0.3305105866893977
688,1.0
2,21, 1,21, 0,10,30.00,40.00,Monday
250,22.017246298589416
251,5550075.838870501
336,0.0
385,22.093333333333344
386,28.440000000000012
387,0.021340815909419136
388,0.0
425,0.0
450,0.0
451,0.0
452,3.288237227816425
453,0.0
490,0.0
515,0.0
516,0.0
542,0.0
592,3052180.1125024166
632,2587245.2657312183
686,0.6946506059922019
687,0.3333333333333336
688,1.333333333333334
2,21, 1,21, 0,10,40.00,50.00,Monday
250,21.748421852482316
251,5124656.480972854
336,0.0
385,21.76
386,28.44
387,0.1379287259270307
388,0.0
425,0.0
450,0.0
451,0.0
452,3.917824387678923
453,0.0
490,0.0
515,0.0
516,0.0
542,0.0
592,3052676.4761859053
632,2128494.470502209
686,0.6267212550751695
687,0.5
688,1.25
2,21, 1,21, 0,10,50.00,60.00,Monday
250,22.016515267170647
251,5368536.00512798
336,0.0
385,22.09333333333335
386,28.440000000000023
387,0.2758459007353232
388,0.0
425,0.0
450,0.0
451,0.0
452,4.639968456136018
453,0.0
490,0.0
515,0.0
516,0.0
542,0.0
592,2975378.6727988203
632,2495767.164562854
686,0.663708886137105
687,0.3333333333333336
688,1.3333333333333344
2,21, 1,21, 0,11, 0.00,10.00,Monday
250,21.766290820690344
251,4826170.147438535
336,0.0
385,21.76
386,28.44
387,0.42871479161929216
388,0.0
425,0.0
450,0.0
451,0.0
452,5.425402736163964
453,0.0
490,0.0
515,0.0
516,0.0
542,0.0
592,2991807.2066076254
632,1885880.3521455994
686,0.6024329860505868
687,0.5
688,1.25
2,21, 1,21, 0,11,10.00,20.00,Monday
250,21.893652768725953
251,4651862.973364075
336,0.0
385,21.76
386,28.44
387,0.6667322773610529
388,0.0
425,0.0
450,0.0
451,0.0
452,6.482741387752496
453,0.0
490,0.0
515,0.0
516,0.0
542,0.0
592,2697950.5808818643
632,1965034.4895916276
686,0.5796220001998083
687,0.3453370042375172
688,1.25
2,21, 1,21, 0,11,20.00,30.00,Monday
250,21.90220777357553
251,4519299.00742458
336,0.0
385,21.76
386,28.44
387,0.8882718444129145
388,0.0
425,0.0
450,0.0
451,0.0
452,7.440950958627979
453,0.0
490,0.0
515,0.0
516,0.0
542,0.0
592,2585133.59917932
632,1949828.583670951
686,0.5690398561786616
687,0.28746548640487174
688,1.25
2,21, 1,21, 0,11,30.00,40.00,Monday
250,21.906938094151926
251,4432508.854727992
336,0.0
385,21.76
386,28.44
387,1.108063319268075
388,0.0
425,0.0
450,0.0
451,0.0
452,8.380160328058194
453,0.0
490,0.0
515,0.0
516,0.0
542,0.0
592,2518412.6879160088
632,1932760.0308401561
686,0.5615943886835226
687,0.254188180862476
688,1.25
2,21, 1,21, 0,11,40.00,50.00,Monday
250,22.00575390439066
251,4680019.29535737
336,0.0
385,22.09333333333335
386,28.440000000000023
387,1.2860443238996804
388,0.0
425,0.0
450,0.0
451,0.0
452,9.123311972613225
453,0.0
490,0.0
515,0.0
516,0.0
542,0.0
592,2440468.8502610563
632,2410902.975151957
686,0.5106100165021741
687,0.3333333333333336
688,1.3333333333333344
2,21, 1,21, 0,11,50.00,60.00,Monday
250,21.782423362897976
251,4394597.629624571
336,0.0
385,21.76
386,28.44
387,1.4711314473781054
388,0.0
425,0.0
450,0.0
451,0.0
452,9.810015745195958
453,0.0
490,0.0
515,0.0
516,0.0
542,0.0
592,2742469.5867273575
632,1709955.07718654
686,0.5661914083551645
687,0.3848895205501626
688,1.25
2,21, 1,21, 0,12, 0.00,10.00,Monday
250,22.009440068784826
251,4692763.759231204
336,0.0
385,22.093333333333334
386,28.440000000000005
387,1.6685663961647377
388,0.0
425,0.0
450,0.0
451,0.0
452,10.434528406482492
453,0.0
490,0.0
515,0.0
516,0.0
542,0.0
592,2581409.417725078
632,2258376.2229178557
686,0.5439308925685791
687,0.3333333333333333
688,1.3333333333333335
2,21, 1,21, 0,12,10.00,20.00,Monday
250,21.787656771688084
251,4349201.424038529
336,0.0
385,21.76
386,28.44
387,1.8628233261824096
388,0.0
425,0.0
450,0.0
451,0.0
452,10.940408019595823
453,0.0
490,0.0
515,0.0
516,0.0
542,0.0
592,2704650.621629639
632,1702120.6769576448
686,0.561845236014595
687,0.364766643404641
688,1.25
2,21, 1,21, 0,12,20.00,30.00,Monday
250,22.00874075173833
251,4653734.426734997
336,0.0
385,22.093333333333327
386,28.43999999999999
387,2.0533878617219927
388,0.0
425,0.0
450,0.0
451,0.0
452,11.341409062293476
453,0.0
490,0.0
515,0.0
516,0.0
542,0.0
592,2566612.6489838674
632,2234887.103105102
686,0.5382383737792896
687,0.3333333333333332
688,1.3333333333333328
2,21, 1,21, 0,12,30.00,40.00,Monday
250,21.78522114185963
251,4343922.51731579
336,0.0
385,21.76000000000001
386,28.44000000000001
387,2.2264226837887335
388,0.0
425,0.0
450,0.0
451,0.0
452,11.612753111970186
453,0.0
490,0.0
515,0.0
516,0.0
542,0.0
592,2721835.7719203555
632,1679696.8489695806
686,0.5596887652214892
687,0.3773466525204492
688,1.25
2,21, 1,21, 0,12,40.00,50.00,Monday
250,22.00848245581793
251,4632673.092910353
336,0.0
385,22.09333333333335
386,28.440000000000023
387,2.3843673670957912
388,0.0
425,0.0
450,0.0
451,0.0
452,11.74672640819562
453,0.0
490,0.0
515,0.0
516,0.0
542,0.0
592,2564584.9810726484
632,2215897.81962142
686,0.5358703379435243
687,0.3333333333333336
688,1.3333333333333344
2,21, 1,21, 0,12,50.00,60.00,Monday
250,21.790424170123753
251,4285614.029448609
336,0.0
385,21.76
386,28.44
387,2.518459859911203
388,0.0
425,0.0
450,0.0
451,0.0
452,11.743925497381184
453,0.0
490,0.0
515,0.0
516,0.0
542,0.0
592,2663370.382879977
632,1681318.3642808485
686,0.5564804777159559
687,0.33999242387762585
688,1.25
2,21, 1,21, 0,13, 0.00,10.00,Monday
250,22.008053171028607
251,4582690.325414695
336,0.0
385,22.093333333333334
386,28.440000000000005
387,2.6364792659034224
388,0.0
425,0.0
450,0.0
451,0.0
452,11.669619235594894
453,0.0
490,0.0
515,0.0
516,0.0
542,0.0
592,2524992.168533368
632,2211217.2479133764
686,0.5252316002182565
687,0.3333333333333333
688,1.3333333333333335
2,21, 1,21, 0,13,10.00,20.00,Monday
250,21.794359022888074
251,4214791.160332482
336,0.0
385,21.76
386,28.44
387,2.736766521998372
388,0.0
425,0.0
450,0.0
451,0.0
452,11.588317506876807
453,0.0
490,0.0
515,0.0
516,0.0
542,0.0
592,2601577.7994208396
632,1673578.184555779
686,0.551430534947806
687,0.31311560504761415
688,1.25
2,21, 1,21, 0,13,20.00,30.00,Monday
250,22.006808471112706
251,4464583.3092835285
336,0.0
385,22.093333333333327
386,28.43999999999999
387,2.827803048366525
388,0.0
425,0.0
450,0.0
451,0.0
452,11.528911401611659
453,0.0
490,0.0
515,0.0
516,0.0
542,0.0
592,2447496.2566939574
632,2178382.5099189356
686,0.5061468271487242
687,0.3333333333333332
688,1.3333333333333328
2,21, 1,21, 0,13,30.00,40.00,Monday
250,21.794924896035205
251,4152783.965063593
336,0.0
385,21.76000000000001
386,28.44000000000001
387,2.9102254074282885
388,0.0
425,0.0
450,0.0
451,0.0
452,11.49503915403714
453,0.0
490,0.0
515,0.0
516,0.0
542,0.0
592,2566885.8262642073
632,1646985.218436825
686,0.5451442176755571
687,0.3083921394792644
688,1.25
2,21, 1,21, 0,13,40.00,50.00,Monday
250,22.005744126851916
251,4371917.116266628
336,0.0
385,22.09333333333335
386,28.440000000000023
387,2.9900361868495167
388,0.0
425,0.0
450,0.0
451,0.0
452,11.475464756182314
453,0.0
490,0.0
515,0.0
516,0.0
542,0.0
592,2392721.6702242503
632,2144921.883616587
686,0.4928714389375737
687,0.3333333333333336
688,1.3333333333333344
2,21, 1,21, 0,13,50.00,60.00,Monday
250,21.804988440070947
251,4012798.3939590347
336,0.0
385,21.76
386,28.44
387,3.065501120490777
388,0.0
425,0.0
450,0.0
451,0.0
452,11.463565793148344
453,0.0
490,0.0
515,0.0
516,0.0
542,0.0
592,2430435.408098847
632,1647353.1017888102
686,0.532417121830616
687,0.25
688,1.0
2,21, 1,21, 0,14, 0.00,10.00,Monday
250,22.004186906656678
251,4214890.143317122
336,0.0
385,22.093333333333334
386,28.440000000000005
387,3.1416437217611657
388,0.0
425,0.0
450,0.0
451,0.0
452,11.42239555022375
453,0.0
490,0.0
515,0.0
516,0.0
542,0.0
592,2280817.2393172225
632,2114639.627477466
686,0.46307577994128807
687,0.3333333333333333
688,1.3333333333333335
2,21, 1,21, 0,14,10.00,20.00,Monday
250,21.811790507506686
251,3899523.7049849075
336,0.0
385,21.76
386,28.44
387,3.2136747474225764
388,0.0
425,0.0
450,0.0
451,0.0
452,11.317547888430022
453,0.0
490,0.0
515,0.0
516,0.0
542,0.0
592,2334980.4629094275
632,1635068.0161572301
686,0.5051486474456566
687,0.25
688,1.0
2,21, 1,21, 0,14,20.00,30.00,Monday
250,22.003311777837695
251,4138319.3647313137
336,0.0
385,22.093333333333327
386,28.43999999999999
387,3.281479512720102
388,0.0
425,0.0
450,0.0
451,0.0
452,11.148711216636924
453,0.0
490,0.0
515,0.0
516,0.0
542,0.0
592,2231782.6828099666
632,2094635.4547755108
686,0.44793322989355633
687,0.3333333333333332
688,1.3333333333333328
2,21, 1,21, 0,14,30.00,40.00,Monday
250,21.81492970204405
251,3846746.726680119
336,0.0
385,21.76000000000001
386,28.44000000000001
387,3.3355924261099044
388,0.0
425,0.0
450,0.0
451,0.0
452,10.893394308380083
453,0.0
490,0.0
515,0.0
516,0.0
542,0.0
592,2292957.5071785934
632,1627358.8095896028
686,0.491779190587829
687,0.25
688,1.0
2,21, 1,21, 0,14,40.00,50.00,Monday
250,22.00301604335789
251,4118704.522556879
336,0.0
385,22.09333333333335
386,28.440000000000023
387,3.3743924911212386
388,0.0
425,0.0
450,0.0
451,0.0
452,10.521637678473459
453,0.0
490,0.0
515,0.0
516,0.0
542,0.0
592,2224111.6415456356
632,2084822.3021191389
686,0.4435384361353367
687,0.3333333333333336
688,1.3333333333333344
2,21, 1,21, 0,14,50.00,60.00,Monday
250,21.813457663917877
251,3859749.0031030998