Program Version,EnergyPlus, Version 24.2.0-94a887817b, YMD=2025.02.12 11:46
1,5,Environment Title[],Latitude[deg],Longitude[deg],Time Zone[],Elevation[m]
2,8,Day of Simulation[],Month[],Day of Month[],DST Indicator[1=yes 0=no],Hour[],StartMinute[],EndMinute[],DayType
3,5,Cumulative Day of Simulation[],Month[],Day of Month[],DST Indicator[1=yes 0=no],DayType  ! When Daily Meters Requested
4,2,Cumulative Days of Simulation[],Month[]  ! When Monthly Meters Requested
5,1,Cumulative Days of Simulation[] ! When Run Period Meters Requested
6,1,Calendar Year of Simulation[] ! When Annual Meters Requested
11,9,Electricity:Facility [J] !Monthly [Value,Min,Day,Hour,Minute,Max,Day,Hour,Minute]
23,9,Electricity:Building [J] !Monthly [Value,Min,Day,Hour,Minute,Max,Day,Hour,Minute]
59,9,InteriorLights:Electricity [J] !Monthly [Value,Min,Day,Hour,Minute,Max,Day,Hour,Minute]
521,9,Electricity:HVAC [J] !Monthly [Value,Min,Day,Hour,Minute,Max,Day,Hour,Minute]
637,9,NaturalGas:Facility [J] !Monthly [Value,Min,Day,Hour,Minute,Max,Day,Hour,Minute]
649,9,NaturalGas:HVAC [J] !Monthly [Value,Min,Day,Hour,Minute,Max,Day,Hour,Minute]
13,11,Electricity:Facility [J] !RunPeriod [Value,Min,Month,Day,Hour,Minute,Max,Month,Day,Hour,Minute]
25,11,Electricity:Building [J] !RunPeriod [Value,Min,Month,Day,Hour,Minute,Max,Month,Day,Hour,Minute]
61,11,InteriorLights:Electricity [J] !RunPeriod [Value,Min,Month,Day,Hour,Minute,Max,Month,Day,Hour,Minute]
523,11,Electricity:HVAC [J] !RunPeriod [Value,Min,Month,Day,Hour,Minute,Max,Month,Day,Hour,Minute]
639,11,NaturalGas:Facility [J] !RunPeriod [Value,Min,Month,Day,Hour,Minute,Max,Month,Day,Hour,Minute]
651,11,NaturalGas:HVAC [J] !RunPeriod [Value,Min,Month,Day,Hour,Minute,Max,Month,Day,Hour,Minute]
End of Data Dictionary
1,RUN PERIOD 1,  41.98, -87.92,  -6.00, 201.00
4,31, 1
11,9542810207.829494,400084.5644071179,11,19,50,3557506.726033243,23,14,10
23,1927149032.1903355,112000.44049690478,11,20,40,1061994.3196968676,31,14,10
59,969127086.0710891,29966.823935409397, 1, 1,10,599336.4787081879, 1, 8,10
521,7615661175.639207,0.0,11,14,20,2578343.3771823416,27,19,50
637,17701886377.632404,0.0, 1, 8,30,21191869.68395962,31, 7,50
649,17701886377.632404,0.0, 1, 8,30,21191869.68395962,31, 7,50
4,59, 2
11,7920382447.172148,333626.98014238116, 9,15,20,3572952.2865759376,21,12,60
23,1699853374.2388818,99999999999999.0,11,20,40,1062527.8789125392, 4, 9,60
59,847222046.3018596,99999999999999.0, 1, 1,10,-99999999999999.0, 1, 8,10
521,6220529072.9333,99999999999999.0,11,14,20,2614078.2479472393, 5, 2,20
637,14414273379.442106,99999999999999.0, 1, 8,30,21943415.02786778, 3, 7,60
649,14414273379.442106,99999999999999.0, 1, 8,30,21943415.02786778, 3, 7,60
4,90, 3
11,7929390137.148601,100778.91228936712,31,16,40,-99999999999999.0,21,12,60
23,1793247532.5690298,97907.47575681141,31,16,50,1071384.20022839,18, 9,60
59,896487504.8516636,99999999999999.0, 1, 1,10,-99999999999999.0, 1, 8,10
521,6136142604.579565,99999999999999.0,11,14,20,-99999999999999.0, 5, 2,20
637,10904820585.999666,99999999999999.0, 1, 8,30,-99999999999999.0, 3, 7,60
649,10904820585.999666,99999999999999.0, 1, 8,30,-99999999999999.0, 3, 7,60
4,120, 4
11,4919463904.299807,29966.823935409397,12,19,20,-99999999999999.0,21,12,60
23,1723714227.200098,29966.823935409397,11,19,10,-99999999999999.0,18, 9,60
59,928492072.8146774,99999999999999.0, 1, 1,10,-99999999999999.0, 1, 8,10
521,3195749677.099725,99999999999999.0,11,14,20,-99999999999999.0, 5, 2,20
637,4459595451.539678,99999999999999.0, 1, 8,30,-99999999999999.0, 3, 7,60
649,4459595451.539678,99999999999999.0, 1, 8,30,-99999999999999.0, 3, 7,60
4,151, 5
11,3561266265.734211,99999999999999.0,12,19,20,-99999999999999.0,21,12,60
23,1698628976.695931,99999999999999.0,11,19,10,-99999999999999.0,18, 9,60
59,969127086.0710846,99999999999999.0, 1, 1,10,-99999999999999.0, 1, 8,10
521,1862637289.0382938,99999999999999.0,11,14,20,-99999999999999.0, 5, 2,20
637,1261972551.0874453,99999999999999.0, 1, 8,30,-99999999999999.0, 3, 7,60
649,1261972551.0874453,99999999999999.0, 1, 8,30,-99999999999999.0, 3, 7,60
4,181, 6
11,3214753168.0609474,99999999999999.0,12,19,20,-99999999999999.0,21,12,60
23,1430882856.5993676,99999999999999.0,11,19,10,-99999999999999.0,18, 9,60
59,855852491.5952511,99999999999999.0, 1, 1,10,-99999999999999.0, 1, 8,10
521,1783870311.461623,99999999999999.0,11,14,20,-99999999999999.0, 5, 2,20
637,98289630.71047102,99999999999999.0, 1, 8,30,-99999999999999.0, 3, 7,60
649,98289630.71047102,99999999999999.0, 1, 8,30,-99999999999999.0, 3, 7,60
4,212, 7
11,3984235748.936903,99999999999999.0,12,19,20,-99999999999999.0,21,12,60
23,1535087348.8758123,99999999999999.0,11,19,10,-99999999999999.0,18, 9,60
59,969127086.0710891,99999999999999.0, 1, 1,10,-99999999999999.0, 1, 8,10
521,2449148400.061135,99999999999999.0,11,14,20,-99999999999999.0, 5, 2,20
637,8746796.909515848,99999999999999.0, 1, 8,30,-99999999999999.0, 3, 7,60
649,8746796.909515848,99999999999999.0, 1, 8,30,-99999999999999.0, 3, 7,60
4,243, 8
11,3557952875.6057553,99999999999999.0,12,19,20,-99999999999999.0,21,12,60
23,1510016714.4162023,99999999999999.0,11,19,10,-99999999999999.0,18, 9,60
59,932807295.4613681,99999999999999.0, 1, 1,10,-99999999999999.0, 1, 8,10
521,2047936161.1895738,99999999999999.0,11,14,20,-99999999999999.0, 5, 2,20
637,24024638.890979733,99999999999999.0, 1, 8,30,-99999999999999.0, 3, 7,60
649,24024638.890979733,99999999999999.0, 1, 8,30,-99999999999999.0, 3, 7,60
4,273, 9
11,3031750400.3703785,99999999999999.0,12,19,20,-99999999999999.0,21,12,60
23,1512711758.4058964,99999999999999.0,11,19,10,-99999999999999.0,18, 9,60
59,892172282.2049642,99999999999999.0, 1, 1,10,-99999999999999.0, 1, 8,10
521,1519038641.964485,99999999999999.0,11,14,20,-99999999999999.0, 5, 2,20
637,116035566.82554226,99999999999999.0, 1, 8,30,-99999999999999.0, 3, 7,60
649,116035566.82554226,99999999999999.0, 1, 8,30,-99999999999999.0, 3, 7,60
4,304,10
11,3927066405.8631744,99999999999999.0,12,19,20,-99999999999999.0,21,12,60
23,1753062162.561301,99999999999999.0,11,19,10,-99999999999999.0,18, 9,60
59,969127086.0710891,99999999999999.0, 1, 1,10,-99999999999999.0, 1, 8,10
521,2174004243.3018727,99999999999999.0,11,14,20,-99999999999999.0, 5, 2,20
637,2524319547.3178954,99999999999999.0, 1, 8,30,-99999999999999.0, 3, 7,60
649,2524319547.3178954,99999999999999.0, 1, 8,30,-99999999999999.0, 3, 7,60
4,334,11
11,6638471765.353339,99999999999999.0,12,19,20,-99999999999999.0,21,12,60
23,1729249703.4042892,99999999999999.0,11,19,10,-99999999999999.0,18, 9,60
59,892172282.2049675,99999999999999.0, 1, 1,10,-99999999999999.0, 1, 8,10
521,4909222061.949056,99999999999999.0,11,14,20,-99999999999999.0, 5, 2,20
637,9200211334.059902,99999999999999.0, 1, 8,30,-99999999999999.0, 3, 7,60
649,9200211334.059902,99999999999999.0, 1, 8,30,-99999999999999.0, 3, 7,60
4,365,12
11,8409514176.05262,99999999999999.0,12,19,20,-99999999999999.0,21,12,60
23,1823365530.4614334,99999999999999.0,11,19,10,-99999999999999.0,18, 9,60
59,932807295.461376,99999999999999.0, 1, 1,10,-99999999999999.0, 1, 8,10
521,6586148645.591188,99999999999999.0,11,14,20,-99999999999999.0, 5, 2,20
637,11040172834.56644,99999999999999.0, 1, 8,30,-99999999999999.0, 3, 7,60
649,11040172834.56644,99999999999999.0, 1, 8,30,-99999999999999.0, 3, 7,60
5,365
13,66637057502.427635,29966.823935409397, 4,12,19,20,3572952.2865759376, 2,21,12,60
25,20136969217.61472,29966.823935409397, 4,11,19,10,1071384.20022839, 3,18, 9,60
61,11054521615.177876,29966.823935409397, 1, 1, 1,10,599336.4787081879, 1, 1, 8,10
523,46500088284.809044,0.0, 1,11,14,20,2614078.2479472393, 2, 5, 2,20
639,71754348694.98183,0.0, 1, 1, 8,30,21943415.02786778, 2, 3, 7,60
651,71754348694.98183,0.0, 1, 1, 8,30,21943415.02786778, 2, 3, 7,60
1,RUN PERIOD 2,  41.98, -87.92,  -6.00, 201.00
4,1, 7
11,117485307.8106357,99999999999999.0,12,19,20,-99999999999999.0,21,12,60
23,64598308.16877657,99999999999999.0,11,19,10,-99999999999999.0,18, 9,60
59,40635013.25641525,99999999999999.0, 1, 1,10,-99999999999999.0, 1, 8,10
521,52886999.64185917,99999999999999.0,11,14,20,-99999999999999.0, 5, 2,20
637,0.0,99999999999999.0, 1, 8,30,-99999999999999.0, 3, 7,60
649,0.0,99999999999999.0, 1, 8,30,-99999999999999.0, 3, 7,60
5,1
13,117485307.8106357,99999999999999.0, 4,12,19,20,-99999999999999.0, 2,21,12,60
25,64598308.16877657,99999999999999.0, 4,11,19,10,-99999999999999.0, 3,18, 9,60
61,40635013.25641525,99999999999999.0, 1, 1, 1,10,-99999999999999.0, 1, 1, 8,10
523,52886999.64185917,99999999999999.0, 1,11,14,20,-99999999999999.0, 2, 5, 2,20
639,0.0,99999999999999.0, 1, 1, 8,30,-99999999999999.0, 2, 3, 7,60
651,0.0,99999999999999.0, 1, 1, 8,30,-99999999999999.0, 2, 3, 7,60
End of Data
 Number of Records Written=          90
