Program Version,EnergyPlus, Version 24.2.0-94a887817b, YMD=2025.02.12 11:46
1,5,Environment Title[],Latitude[deg],Longitude[deg],Time Zone[],Elevation[m]
2,8,Day of Simulation[],Month[],Day of Month[],DST Indicator[1=yes 0=no],Hour[],StartMinute[],EndMinute[],DayType
3,5,Cumulative Day of Simulation[],Month[],Day of Month[],DST Indicator[1=yes 0=no],DayType  ! When Daily Report Variables Requested
4,2,Cumulative Days of Simulation[],Month[]  ! When Monthly Report Variables Requested
5,1,Cumulative Days of Simulation[] ! When Run Period Report Variables Requested
6,1,Calendar Year of Simulation[] ! When Annual Report Variables Requested
250,1,LIVING ZONE,Zone Air Temperature [C] !TimeStep,REPORTSCH
251,1,LIVING ZONE,Zone Air System Sensible Heating Energy [J] !TimeStep,REPORTSCH
336,1,LIVING ZONE,Zone Air System Sensible Cooling Energy [J] !TimeStep,REPORTSCH
385,1,LIVING ZONE,Zone Thermostat Heating Setpoint Temperature [C] !TimeStep,REPORTSCH
386,1,LIVING ZONE,Zone Thermostat Cooling Setpoint Temperature [C] !TimeStep,REPORTSCH
387,1,GARAGE ZONE,Zone Air Temperature [C] !TimeStep,REPORTSCH
388,1,GARAGE ZONE,Zone Air System Sensible Heating Energy [J] !TimeStep,REPORTSCH
425,1,GARAGE ZONE,Zone Air System Sensible Cooling Energy [J] !TimeStep,REPORTSCH
450,1,GARAGE ZONE,Zone Thermostat Heating Setpoint Temperature [C] !TimeStep,REPORTSCH
451,1,GARAGE ZONE,Zone Thermostat Cooling Setpoint Temperature [C] !TimeStep,REPORTSCH
452,1,ATTIC ZONE,Zone Air Temperature [C] !TimeStep,REPORTSCH
453,1,ATTIC ZONE,Zone Air System Sensible Heating Energy [J] !TimeStep,REPORTSCH
490,1,ATTIC ZONE,Zone Air System Sensible Cooling Energy [J] !TimeStep,REPORTSCH
515,1,ATTIC ZONE,Zone Thermostat Heating Setpoint Temperature [C] !TimeStep,REPORTSCH
516,1,ATTIC ZONE,Zone Thermostat Cooling Setpoint Temperature [C] !TimeStep,REPORTSCH
542,1,ACDXCOIL 1,Cooling Coil Total Cooling Energy [J] !TimeStep,REPORTSCH
592,1,HEAT PUMP DX HEATING COIL 1,Heating Coil Heating Energy [J] !TimeStep,REPORTSCH
632,1,SUPP HEATING COIL 1,Heating Coil Heating Energy [J] !TimeStep,REPORTSCH
686,1,TWOSPEED HEAT PUMP 1,Unitary System DX Coil Cycling Ratio [] !TimeStep,REPORTSCH
687,1,TWOSPEED HEAT PUMP 1,Unitary System DX Coil Speed Ratio [] !TimeStep,REPORTSCH
688,1,TWOSPEED HEAT PUMP 1,Unitary System DX Coil Speed Level [] !TimeStep,REPORTSCH
End of Data Dictionary
1,RUN PERIOD 1,  41.98, -87.92,  -6.00, 201.00
2,21, 1,21, 0, 1, 0.00,10.00,Monday
250,24.660117420048813
251,7468962.392805534
336,0.0
385,25.12
386,25.84
387,0.6640552909011013
388,0.0
425,0.0
450,0.0
451,0.0
452,-1.5767993221754557
453,0.0
490,0.0
515,0.0
516,0.0
542,0.0
592,4876975.115827742
632,3122956.932258417
686,1.0
687,1.0
688,2.0
2,21, 1,21, 0, 1,10.00,20.00,Monday
250,25.076403821890793
251,8592447.588955726
336,0.0
385,25.12
386,25.84
387,0.6353553213396793
388,0.0
425,0.0
450,0.0
451,0.0
452,-1.5659666622128348
453,0.0
490,0.0
515,0.0
516,0.0
542,0.0
592,4860297.128483824
632,3593749.7367149875
686,1.0
687,1.0
688,2.0
2,21, 1,21, 0, 1,20.00,30.00,Monday
250,23.985341623663693
251,6450440.303503639
336,0.0
385,23.786666666666683
386,25.840000000000025
387,0.6122120019672367
388,0.0
425,0.0
450,0.0
451,0.0
452,-1.5588621569522485
453,0.0
490,0.0
515,0.0
516,0.0
542,0.0
592,2711025.671902462
632,3654216.4883082504
686,0.5825787063299184
687,0.5000000000000004
688,1.1666666666666674
2,21, 1,21, 0, 1,30.00,40.00,Monday
250,24.422194053893055
251,6348606.069551769
336,0.0
385,24.453333333333354
386,25.84000000000002
387,0.587985659099977
388,0.0
425,0.0
450,0.0
451,0.0
452,-1.553227283159487
453,0.0
490,0.0
515,0.0
516,0.0
542,0.0
592,3579037.193682947
632,2686700.3339518257
686,0.7699810367068317
687,0.6666666666666672
688,1.6666666666666679
2,21, 1,21, 0, 1,40.00,50.00,Monday
250,24.66030766262215
251,7533102.777256764
336,0.0
385,25.12
386,25.84
387,0.5590178042593613
388,0.0
425,0.0
450,0.0
451,0.0
452,-1.5484526184122296
453,0.0
490,0.0
515,0.0
516,0.0
542,0.0
592,4813693.503262465
632,3251677.895222899
686,1.0
687,1.0
688,2.0
2,21, 1,21, 0, 1,50.00,60.00,Monday
250,25.07646588461639
251,8658871.259203983
336,0.0
385,25.12
386,25.84
387,0.5334949387058882
388,0.0
425,0.0
450,0.0
451,0.0
452,-1.5460320104880305
453,0.0
490,0.0
515,0.0
516,0.0
542,0.0
592,4797025.27600521
632,3723430.8407102893
686,1.0
687,1.0
688,2.0
2,21, 1,21, 0, 2, 0.00,10.00,Monday
250,23.982744754650714
251,6501196.80365816
336,0.0
385,23.78666666666667
386,25.840000000000003
387,0.5119470398381938
388,0.0
425,0.0
450,0.0
451,0.0
452,-1.5467485397385663
453,0.0
490,0.0
515,0.0
516,0.0
542,0.0
592,2695781.3477364453
632,3720980.9182171375
686,0.5858464835507683
687,0.5
688,1.1666666666666667
2,21, 1,21, 0, 2,10.00,20.00,Monday
250,24.42289087760326
251,6389622.832140212
336,0.0
385,24.453333333333333
386,25.84
387,0.48888360064082226
388,0.0
425,0.0
450,0.0
451,0.0
452,-1.5505829474520059
453,0.0
490,0.0
515,0.0
516,0.0
542,0.0
592,3568192.892357439
632,2735311.2952686516
686,0.7736222658877502
687,0.6666666666666667
688,1.6666666666666667
2,21, 1,21, 0, 2,20.00,30.00,Monday
250,24.66125735784126
251,7556515.480409821
336,0.0
385,25.12
386,25.84
387,0.46073122020293616
388,0.0
425,0.0
450,0.0
451,0.0
452,-1.5586723041248847
453,0.0
490,0.0
515,0.0
516,0.0
542,0.0
592,4797866.817670107
632,3290312.837785544
686,1.0
687,1.0
688,2.0
2,21, 1,21, 0, 2,30.00,40.00,Monday
250,25.076560910326677
251,8668246.74889814
336,0.0
385,25.12
386,25.84
387,0.435489075517394
388,0.0
425,0.0
450,0.0
451,0.0
452,-1.5694042799142935
453,0.0
490,0.0
515,0.0
516,0.0
542,0.0
592,4797025.27600521
632,3732579.4512652606
686,1.0
687,1.0
688,2.0
2,21, 1,21, 0, 2,40.00,50.00,Monday
250,23.982404311381973
251,6507913.684264795
336,0.0
385,23.786666666666633
386,25.839999999999964
387,0.4137172790845507
388,0.0
425,0.0
450,0.0
451,0.0
452,-1.5824242083268671
453,0.0
490,0.0
515,0.0
516,0.0
542,0.0
592,2697009.550850323
632,3726587.9899819978
686,0.5862013278647188
687,0.49999999999999933
688,1.166666666666665
2,21, 1,21, 0, 2,50.00,60.00,Monday
250,24.422963771183436
251,6395932.890854627
336,0.0
385,24.453333333333354
386,25.84000000000002
387,0.3901275415795787
388,0.0
425,0.0
450,0.0
451,0.0
452,-1.5986719874280408
453,0.0
490,0.0
515,0.0
516,0.0
542,0.0
592,3569484.5902679544
632,2740023.753546991
686,0.7739954783825468
687,0.6666666666666672
688,1.6666666666666679
2,21, 1,21, 0, 3, 0.00,10.00,Monday
250,24.66160293422601
251,7574627.809367727
336,0.0
385,25.12
386,25.84
387,0.3616048473689135
388,0.0
425,0.0
450,0.0
451,0.0
452,-1.6175288056126955
453,0.0
490,0.0
515,0.0
516,0.0
542,0.0
592,4797866.186402484
632,3308571.1843718956
686,1.0
687,1.0
688,2.0
2,21, 1,21, 0, 3,10.00,20.00,Monday
250,25.076611262941928
251,8697135.592299126
336,0.0
385,25.12
386,25.84
387,0.33693750733328565
388,0.0
425,0.0
450,0.0
451,0.0
452,-1.6296896829017227
453,0.0
490,0.0
515,0.0
516,0.0
542,0.0
592,4797025.27600521
632,3761391.209571751
686,1.0
687,1.0
688,2.0
2,21, 1,21, 0, 3,20.00,30.00,Monday
250,23.98038514470597
251,6546333.31566664
336,0.0
385,23.786666666666683
386,25.840000000000025
387,0.3167969705787623
388,0.0
425,0.0
450,0.0
451,0.0
452,-1.6338458178690027
453,0.0
490,0.0
515,0.0
516,0.0
542,0.0
592,2703758.0755770043
632,3758938.4783756686
686,0.5881511145130627
687,0.5000000000000004
688,1.1666666666666674
2,21, 1,21, 0, 3,30.00,40.00,Monday
250,24.423810142218358
251,6449938.9299898455
336,0.0
385,24.453333333333354
386,25.84000000000002
387,0.29599549875373876
388,0.0
425,0.0
450,0.0
451,0.0
452,-1.633783236543018
453,0.0
490,0.0
515,0.0
516,0.0
542,0.0
592,3584035.2413413785
632,2775543.0706194146
686,0.7781996229768899
687,0.6666666666666672
688,1.6666666666666679
2,21, 1,21, 0, 3,40.00,50.00,Monday
250,24.66280839539946
251,7624323.2538214605
336,0.0
385,25.12
386,25.84
387,0.2715502584682612
388,0.0
425,0.0
450,0.0
451,0.0
452,-1.629216294279529
453,0.0
490,0.0
515,0.0
516,0.0
542,0.0
592,4797856.614819537
632,3357505.6884025275
686,1.0
687,1.0
688,2.0
2,21, 1,21, 0, 3,50.00,60.00,Monday
250,25.076755584701168
251,8745798.58651748
336,0.0
385,25.12
386,25.84
387,0.25081851291358703
388,0.0
425,0.0
450,0.0
451,0.0
452,-1.6215333350828092
453,0.0
490,0.0
515,0.0
516,0.0
542,0.0
592,4797025.27600521
632,3809747.91904545
686,1.0
687,1.0
688,2.0
2,21, 1,21, 0, 4, 0.00,10.00,Monday
250,23.974198956812035
251,6663433.4900863
336,0.0
385,23.78666666666667
386,25.840000000000003
387,0.22966795001668833
388,0.0
425,0.0
450,0.0
451,0.0
452,-1.6137869202614779
453,0.0
490,0.0
515,0.0
516,0.0
542,0.0
592,2721678.6079391567
632,3860189.8123211637
686,0.5941663993815811
687,0.5
688,1.1666666666666667
2,21, 1,21, 0, 4,10.00,20.00,Monday
250,24.42712837758826
251,6649500.839669662
336,0.0
385,24.453333333333333
386,25.84
387,0.2037577314369921
388,0.0
425,0.0
450,0.0
451,0.0
452,-1.6070668749339898
453,0.0
490,0.0
515,0.0
516,0.0
542,0.0
592,3632876.6450532363
632,2910714.9533230574
686,0.7945940282731326
687,0.6666666666666667
688,1.6666666666666667
2,21, 1,21, 0, 4,20.00,30.00,Monday
250,24.667091967591354
251,7877747.318554369
336,0.0
385,25.12
386,25.84
387,0.16914341350579573
388,0.0
425,0.0
450,0.0
451,0.0
452,-1.6023197403800198
453,0.0
490,0.0
515,0.0
516,0.0
542,0.0
592,4782879.303211773
632,3622525.315355907
686,1.0
687,1.0
688,2.0
2,21, 1,21, 0, 4,30.00,40.00,Monday
250,25.07730797849713
251,9073787.65707587
336,0.0
385,25.12
386,25.84
387,0.1363277865966514
388,0.0
425,0.0
450,0.0
451,0.0
452,-1.6031444630912133
453,0.0
490,0.0
515,0.0
516,0.0
542,0.0
592,4776577.136259316
632,4157079.385294617
686,1.0
687,1.0
688,2.0
2,21, 1,21, 0, 4,40.00,50.00,Monday
250,23.956808144602455
251,6992758.910566842
336,0.0
385,23.786666666666633
386,25.839999999999964
387,0.10653844881737706
388,0.0
425,0.0
450,0.0
451,0.0
452,-1.6101012565123705
453,0.0
490,0.0
515,0.0
516,0.0
542,0.0
592,2768280.1281296983
632,4148756.4513702583
686,0.6113593441670201
687,0.49999999999999933
688,1.166666666666665
2,21, 1,21, 0, 4,50.00,60.00,Monday
250,24.43273728934617
251,7007604.594820263
336,0.0
385,24.453333333333354
386,25.84000000000002
387,0.07321554436039439
388,0.0
425,0.0
450,0.0
451,0.0
452,-1.620573188216165
453,0.0
490,0.0
515,0.0
516,0.0
542,0.0
592,3718030.05582848
632,3156958.132223378
686,0.8244316154916763
687,0.6666666666666672
688,1.6666666666666679
2,21, 1,21, 0, 5, 0.00,10.00,Monday
250,24.673241155460065
251,8082429.569982496
336,0.0
385,25.12
386,25.84
387,0.04013021206467222
388,0.0
425,0.0
450,0.0
451,0.0
452,-1.6310732378149742
453,0.0
490,0.0
515,0.0
516,0.0
542,0.0
592,4760794.646590898
632,3842372.9030501954
686,1.0
687,1.0
688,2.0
2,21, 1,21, 0, 5,10.00,20.00,Monday
250,25.077949190726265
251,9168731.816146133
336,0.0
385,25.12
386,25.84
387,0.020278599500297492
388,0.0
425,0.0
450,0.0
451,0.0
452,-1.633601747169636
453,0.0
490,0.0
515,0.0
516,0.0
542,0.0
592,4753796.85020029
632,4273188.512107034
686,1.0
687,1.0
688,2.0
2,21, 1,21, 0, 5,20.00,30.00,Monday
250,23.958111981220796
251,6969025.069106275
336,0.0
385,23.786666666666683
386,25.840000000000025
387,0.010426017622791061
388,0.0
425,0.0
450,0.0
451,0.0
452,-1.6263978673892707
453,0.0
490,0.0
515,0.0
516,0.0
542,0.0
592,2752368.1574431667
632,4140405.636604637
686,0.6106461393718798
687,0.5000000000000004
688,1.1666666666666674
2,21, 1,21, 0, 5,30.00,40.00,Monday
250,24.430201044135533
251,6857787.614690036
336,0.0
385,24.453333333333354
386,25.84000000000002
387,0.002950379122550763
388,0.0
425,0.0
450,0.0
451,0.0
452,-1.6110841654294945
453,0.0
490,0.0
515,0.0
516,0.0
542,0.0
592,3657768.628518633
632,3079263.90310587
686,0.8122297241664715
687,0.6666666666666672
688,1.6666666666666679
2,21, 1,21, 0, 5,40.00,50.00,Monday
250,24.670942513258264
251,7943548.618861397
336,0.0
385,25.12
386,25.84
387,-0.00317145010959603
388,0.0
425,0.0
450,0.0
451,0.0
452,-1.5849710357416738
453,0.0
490,0.0
515,0.0
516,0.0
542,0.0
592,4734004.141332913
632,3733232.033976778
686,1.0
687,1.0
688,2.0
2,21, 1,21, 0, 5,50.00,60.00,Monday
250,25.07769281261401
251,9027263.59668329
336,0.0
385,25.12
386,25.84
387,-0.006415642367925771
388,0.0
425,0.0
450,0.0
451,0.0
452,-1.5556857033131828
453,0.0
490,0.0
515,0.0
516,0.0
542,0.0
592,4725491.416569134
632,4160631.715222516
686,1.0
687,1.0
688,2.0
2,21, 1,21, 0, 6, 0.00,10.00,Monday
250,23.960992109281428
251,6914571.349824539
336,0.0
385,23.78666666666667
386,25.840000000000003
387,-0.015553929510848016
388,0.0
425,0.0
450,0.0
451,0.0
452,-1.5320425976383865
453,0.0
490,0.0
515,0.0
516,0.0
542,0.0
592,2729972.6020285795
632,4107294.816648197
686,0.6083985233037502
687,0.5
688,1.1666666666666667
2,21, 1,21, 0, 6,10.00,20.00,Monday
250,24.43111639133657
251,6893988.229572383
336,0.0
385,24.453333333333333
386,25.84
387,-0.03125216630433049
388,0.0
425,0.0
450,0.0
451,0.0
452,-1.5159685473328908
453,0.0
490,0.0
515,0.0
516,0.0
542,0.0
592,3652047.421550057
632,3117095.3735741796
686,0.8158367042567807
687,0.6666666666666667
688,1.6666666666666667
2,21, 1,21, 0, 6,20.00,30.00,Monday
250,24.67218556412017
251,8070378.411721969
336,0.0
385,25.12
386,25.84
387,-0.05601519072200469
388,0.0
425,0.0
450,0.0
451,0.0
452,-1.5097022091710546
453,0.0
490,0.0
515,0.0
516,0.0
542,0.0
592,4713673.7587305335
632,3879928.191595287
686,1.0
687,1.0
688,2.0
2,21, 1,21, 0, 6,30.00,40.00,Monday
250,25.077886410695065
251,9243395.786016285
336,0.0
385,25.12
386,25.84
387,-0.08210282940384614
388,0.0
425,0.0
450,0.0
451,0.0
452,-1.5177689745520957
453,0.0
490,0.0
515,0.0
516,0.0
542,0.0
592,4708228.858139927
632,4393721.155790875
686,1.0
687,1.0
688,2.0
2,21, 1,21, 0, 6,40.00,50.00,Monday
250,23.949492092292548
251,7132028.2672596965
336,0.0
385,23.786666666666633
386,25.839999999999964
387,-0.10797467004308535
388,0.0
425,0.0
450,0.0
451,0.0
452,-1.5375708488467328
453,0.0
490,0.0
515,0.0
516,0.0
542,0.0
592,2758621.581512498
632,4299971.838642733
686,0.6200842414772832
687,0.49999999999999933
688,1.166666666666665
2,21, 1,21, 0, 6,50.00,60.00,Monday
250,24.434883048954667
251,7129775.213875495
336,0.0
385,24.453333333333354
386,25.84000000000002
387,-0.1378791769019514
388,0.0
425,0.0
450,0.0
451,0.0
452,-1.5660490425273572
453,0.0
490,0.0
515,0.0
516,0.0
542,0.0
592,3705563.1086260495
632,3281367.7431486896
686,0.836157629329219
687,0.6666666666666672
688,1.6666666666666679
2,21, 1,21, 0, 7, 0.00,10.00,Monday
250,24.676150251442763
251,8273079.912192751
336,0.0
385,25.12
386,25.84
387,-0.18059155405956925
388,0.0
425,0.0
450,0.0
451,0.0
452,-1.6183488059402458
453,0.0
490,0.0
515,0.0
516,0.0
542,0.0
592,4721162.750886335
632,4070417.021641226
686,1.0
687,1.0
688,2.0
2,21, 1,21, 0, 7,10.00,20.00,Monday
250,25.078300142181888
251,9403328.86572178
336,0.0
385,25.12
386,25.84
387,-0.22677459533782907
388,0.0
425,0.0
450,0.0
451,0.0
452,-1.70032058932903
453,0.0
490,0.0
515,0.0
516,0.0
542,0.0
592,4741052.506580858
632,4519784.02112904
686,1.0
687,1.0
688,2.0
2,21, 1,21, 0, 7,20.00,30.00,Monday
250,23.94320198544196
251,7250108.999526638
336,0.0
385,23.786666666666683
386,25.840000000000025
387,-0.27500930433636495
388,0.0
425,0.0
450,0.0
451,0.0
452,-1.8170013365090987
453,0.0
490,0.0
515,0.0
516,0.0
542,0.0
592,2808174.4550487795
632,4370845.527031097
686,0.6248055173786526
687,0.5000000000000004
688,1.1666666666666674
2,21, 1,21, 0, 7,30.00,40.00,Monday
250,24.435779991915297
251,7224835.532357221
336,0.0
385,24.453333333333354
386,25.84000000000002
387,-0.33352918552436017
388,0.0
425,0.0
450,0.0
451,0.0
452,-1.975235542810839
453,0.0
490,0.0
515,0.0
516,0.0
542,0.0
592,3789533.0145011307
632,3287962.6896648835
686,0.8418952035299463
687,0.6666666666666672
688,1.6666666666666679
2,21, 1,21, 0, 7,40.00,50.00,Monday
250,24.67712771042055
251,8322471.826979967
336,0.0
385,25.12
386,25.84
387,-0.41337873794720514
388,0.0
425,0.0
450,0.0
451,0.0
452,-2.197056510842946
453,0.0
490,0.0
515,0.0
516,0.0
542,0.0
592,4801436.3536734255
632,4037833.801154677
686,1.0
687,1.0
688,2.0
2,21, 1,21, 0, 7,50.00,60.00,Monday
250,25.078398969207353
251,9457748.190140314
336,0.0
385,25.12
386,25.84
387,-0.49147466278611784
388,0.0
425,0.0
450,0.0
451,0.0
452,-2.424253821005909
453,0.0
490,0.0
515,0.0
516,0.0
542,0.0
592,4818833.098640988
632,4496121.291659914
686,1.0
687,1.0
688,2.0
2,21, 1,21, 0, 8, 0.00,10.00,Monday
250,23.960105351145224
251,6930846.855717763
336,0.0
385,23.78666666666667
386,25.840000000000003
387,-0.5552308696397928
388,0.0
425,0.0
450,0.0
451,0.0
452,-2.6288923649675544
453,0.0
490,0.0
515,0.0
516,0.0
542,0.0
592,2788449.1611075187
632,4065595.4321670663
686,0.6076779578204742
687,0.5
688,1.1666666666666667
2,21, 1,21, 0, 8,10.00,20.00,Monday
250,24.428595256291455
251,6790077.126156001
336,0.0
385,24.453333333333333
386,25.84
387,-0.6116956156045228
388,0.0
425,0.0
450,0.0
451,0.0
452,-2.7647320951206984
453,0.0
490,0.0
515,0.0
516,0.0
542,0.0
592,3704116.249484595
632,2972994.5329119656
686,0.8040441966888541
687,0.6666666666666667
688,1.6666666666666667
2,21, 1,21, 0, 8,20.00,30.00,Monday
250,24.67015155121035
251,7877095.3655192265
336,0.0
385,25.12
386,25.84
387,-0.6674041998234111
388,0.0
425,0.0
450,0.0
451,0.0
452,-2.8048931835282196
453,0.0
490,0.0
515,0.0
516,0.0
542,0.0
592,4851754.362305354
632,3551031.7855186006
686,1.0
687,1.0
688,2.0
2,21, 1,21, 0, 8,30.00,40.00,Monday
250,25.07766131346434
251,8927297.388516836
336,0.0
385,25.12
386,25.84
387,-0.7017514413772523
388,0.0
425,0.0
450,0.0
451,0.0
452,-2.713312600130214
453,0.0
490,0.0
515,0.0
516,0.0
542,0.0
592,4860858.6798649505
632,3925430.2505099727
686,1.0
687,1.0
688,2.0
2,21, 1,21, 0, 8,40.00,50.00,Monday
250,23.97394762193769
251,6667502.081893237
336,0.0
385,23.786666666666633
386,25.839999999999964
387,-0.7122538836173768
388,0.0
425,0.0
450,0.0
451,0.0
452,-2.499191659813947
453,0.0
490,0.0
515,0.0
516,0.0
542,0.0
592,2763582.1565848216
632,3822516.5401971415
686,0.5936367355053247
687,0.49999999999999933
688,1.166666666666665
2,21, 1,21, 0, 8,50.00,60.00,Monday
250,24.42382223476703
251,6484069.387472469
336,0.0
385,24.453333333333354
386,25.84000000000002
387,-0.7071713644280206
388,0.0
425,0.0
450,0.0
451,0.0
452,-2.181681635311092
453,0.0
490,0.0
515,0.0
516,0.0
542,0.0
592,3649846.5898740133
632,2743706.155236982
686,0.7793948117944562
687,0.6666666666666672
688,1.6666666666666679
2,21, 1,21, 0, 9, 0.00,10.00,Monday
250,25.05255851902192
251,8133902.103314761
336,0.0
385,25.12
386,25.84
387,-0.6815202160407712
388,0.0
425,0.0
450,0.0
451,0.0
452,-1.766732469936089
453,0.0
490,0.0
515,0.0
516,0.0
542,0.0
592,4899244.476337859
632,3157925.450170452
686,1.0
687,1.0
688,2.0
2,21, 1,21, 0, 9,10.00,20.00,Monday
250,23.997310964274888
251,6206087.619524266
336,0.0
385,23.78666666666667
386,25.840000000000003
387,-0.6368939062809003
388,0.0
425,0.0
450,0.0
451,0.0
452,-1.291778723378691
453,0.0
490,0.0
515,0.0
516,0.0
542,0.0
592,2708288.6834395397
632,3408739.107132327
686,0.5706507266095884
687,0.5
688,1.1666666666666665
2,21, 1,21, 0, 9,20.00,30.00,Monday
250,24.41509715604242
251,5941772.784588585
336,0.0
385,24.453333333333326
386,25.83999999999999
387,-0.5751711342964764
388,0.0
425,0.0
450,0.0
451,0.0
452,-0.745177918221038
453,0.0
490,0.0
515,0.0
516,0.0
542,0.0
592,3534125.5188658005
632,2358409.934768292
686,0.7356046213833011
687,0.6666666666666664
688,1.666666666666666
2,21, 1,21, 0, 9,30.00,40.00,Monday
250,24.44717309442621
251,7278763.140162499
336,0.0
385,24.453333333333344
386,25.84000000000001
387,-0.477269909626881
388,0.0
425,0.0
450,0.0
451,0.0
452,0.015194710005682545
453,0.0
490,0.0
515,0.0
516,0.0
542,0.0
592,3191814.9316040967
632,3929491.182028435
686,0.7660484164457785
687,0.3333333333333332
688,1.3333333333333335
2,21, 1,21, 0, 9,40.00,50.00,Monday
250,24.44822110786808
251,7239087.596523277
336,0.0
385,24.453333333333354
386,25.84000000000002
387,-0.39189254339958995
388,0.0
425,0.0
450,0.0
451,0.0
452,0.6590014155073193
453,0.0
490,0.0
515,0.0
516,0.0
542,0.0
592,3208514.542636809
632,3869035.214633941
686,0.7673557982394422
687,0.3333333333333336
688,1.3333333333333344
2,21, 1,21, 0, 9,50.00,60.00,Monday
250,25.05452861218637
251,7930873.685832156
336,0.0
385,25.12
386,25.84
387,-0.31875524464556393
388,0.0
425,0.0
450,0.0
451,0.0
452,1.174023887793457
453,0.0
490,0.0
515,0.0
516,0.0
542,0.0
592,4987886.410218769
632,2859813.8244844163
686,1.0
687,1.0
688,2.0
2,21, 1,21, 0,10, 0.00,10.00,Monday
250,24.010945227263313
251,5950196.754990124
336,0.0
385,23.78666666666667
386,25.840000000000003
387,-0.24623735752700088
388,0.0
425,0.0
450,0.0
451,0.0
452,1.6386279498073195
453,0.0
490,0.0
515,0.0
516,0.0
542,0.0
592,2715762.212675351
632,3141064.316124688
686,0.5567080998173263
687,0.5
688,1.1666666666666667
2,21, 1,21, 0,10,10.00,20.00,Monday
250,24.410537832446423
251,5659217.149811685
336,0.0
385,24.453333333333333
386,25.84
387,-0.1595367971553571
388,0.0
425,0.0
450,0.0
451,0.0
452,2.1488751365788605
453,0.0
490,0.0
515,0.0
516,0.0
542,0.0
592,3540966.8202147093
632,2089830.5017550248
686,0.7137454816893066
687,0.6666666666666667
688,1.6666666666666667
2,21, 1,21, 0,10,20.00,30.00,Monday
250,24.441614695350513
251,6989007.436420057
336,0.0
385,24.453333333333326
386,25.83999999999999
387,-0.024228585675246356
388,0.0
425,0.0
450,0.0
451,0.0
452,2.8397773639381656
453,0.0
490,0.0
515,0.0
516,0.0
542,0.0
592,3055614.9275497235
632,3807810.984921799
686,0.7046511282816429
687,0.3333333333333332
688,1.3333333333333328
2,21, 1,21, 0,10,30.00,40.00,Monday
250,24.441755683668546
251,6900452.561317625
336,0.0
385,24.453333333333344
386,25.84000000000001
387,0.10740840361645243
388,0.0
425,0.0
450,0.0
451,0.0
452,3.4712293474162417
453,0.0
490,0.0
515,0.0
516,0.0
542,0.0
592,3047529.8526673093
632,3728487.1301833205
686,0.6970264665491152
687,0.3333333333333332
688,1.3333333333333335
2,21, 1,21, 0,10,40.00,50.00,Monday
250,24.43987204565724
251,6790864.989873753
336,0.0
385,24.453333333333354
386,25.84000000000002
387,0.24792812487982996
388,0.0
425,0.0
450,0.0
451,0.0
452,4.148687914760508
453,0.0
490,0.0
515,0.0
516,0.0
542,0.0
592,2990970.506612217
632,3686452.1039760206
686,0.6764338693142952
687,0.3333333333333336
688,1.3333333333333344
2,21, 1,21, 0,10,50.00,60.00,Monday
250,24.437905951845654
251,6679458.402197195
336,0.0
385,24.453333333333354
386,25.84000000000002
387,0.4062325993500279
388,0.0
425,0.0
450,0.0
451,0.0
452,4.906582533951614
453,0.0
490,0.0
515,0.0
516,0.0
542,0.0
592,2931611.150320336
632,3645747.7768963845
686,0.6553563824582801
687,0.3333333333333336
688,1.3333333333333344
2,21, 1,21, 0,11, 0.00,10.00,Monday
250,24.435996049437428
251,6569436.549630747
336,0.0
385,24.453333333333333
386,25.840000000000003
387,0.5762121603133659
388,0.0
425,0.0
450,0.0
451,0.0
452,5.728485490175022
453,0.0
490,0.0
515,0.0
516,0.0
542,0.0
592,2867776.4519828283
632,3610455.3189929356
686,0.6355248357489626
687,0.3333333333333333
688,1.3333333333333335
2,21, 1,21, 0,11,10.00,20.00,Monday
250,24.434058476881702
251,6456726.895830716
336,0.0
385,24.453333333333333
386,25.84
387,0.7574884904025806
388,0.0
425,0.0
450,0.0
451,0.0
452,6.595629429406397
453,0.0
490,0.0
515,0.0
516,0.0
542,0.0
592,2802683.044192668
632,3573859.249864574
686,0.615499661352738
687,0.33333333333333337
688,1.3333333333333333
2,21, 1,21, 0,11,20.00,30.00,Monday
250,24.219649381995772
251,5600529.260706894
336,0.0
385,24.12
386,25.84
387,0.9076978516670636
388,0.0
425,0.0
450,0.0
451,0.0
452,7.369619278766924
453,0.0
490,0.0
515,0.0
516,0.0
542,0.0
592,3932604.2076550303
632,1512871.468255754
686,0.75
687,0.75
688,1.5
2,21, 1,21, 0,11,30.00,40.00,Monday
250,24.170948019259704
251,6121761.670079839
336,0.0
385,24.12
386,25.84
387,1.1401078372585889
388,0.0
425,0.0
450,0.0
451,0.0
452,8.394545416874047
453,0.0
490,0.0
515,0.0
516,0.0
542,0.0
592,3152976.4035156406
632,2889100.780816427
686,0.6378290127982935
687,0.5
688,1.25
2,21, 1,21, 0,11,40.00,50.00,Monday
250,24.17428524362438
251,5949596.134008331
336,0.0
385,24.12
386,25.84
387,1.3681146689773838
388,0.0
425,0.0
450,0.0
451,0.0
452,9.267985734696985
453,0.0
490,0.0
515,0.0
516,0.0
542,0.0
592,3162257.777788361
632,2711826.444819319
686,0.6373561515565594
687,0.5
688,1.25
2,21, 1,21, 0,11,50.00,60.00,Monday
250,24.43019936830197
251,4688151.314119985
336,0.0
385,24.453333333333354
386,25.84000000000002
387,1.5454351035725151
388,0.0
425,0.0
450,0.0
451,0.0
452,9.917020840526034
453,0.0
490,0.0
515,0.0
516,0.0
542,0.0
592,3482550.2330722837
632,1200944.7407858137
686,0.6666666666666672
687,0.6329083782197771
688,1.3333333333333344
2,21, 1,21, 0,12, 0.00,10.00,Monday
250,24.06042913701606
251,4766986.846209886
336,0.0
385,23.92
386,25.84
387,1.7224014522522277
388,0.0
425,0.0
450,0.0
451,0.0
452,10.483391533406145
453,0.0
490,0.0
515,0.0
516,0.0
542,0.0
592,2425625.437944399
632,2394559.075720928
686,0.4792595600942813
687,0.4
688,1.0
2,21, 1,21, 0,12,10.00,20.00,Monday
250,24.38393563979733
251,6431495.128332674
336,0.0
385,24.453333333333333
386,25.84
387,1.909671177110551
388,0.0
425,0.0
450,0.0
451,0.0
452,10.976505136163304
453,0.0
490,0.0
515,0.0
516,0.0
542,0.0
592,3770838.0221211873
632,2712319.0564656965
686,0.8560799370071573
687,0.33333333333333337
688,1.3333333333333333
2,21, 1,21, 0,12,20.00,30.00,Monday
250,24.48829991158287
251,4705148.176709637
336,0.0
385,24.453333333333326
386,25.83999999999999
387,2.163309947885396
388,0.0
425,0.0
450,0.0
451,0.0
452,11.474882454436711
453,0.0
490,0.0
515,0.0
516,0.0
542,0.0
592,3547445.3555280203
632,1114967.1397138275
686,0.6666666666666664
687,0.6666666666666664
688,1.3333333333333328
2,21, 1,21, 0,12,30.00,40.00,Monday
250,24.083068892841567
251,4588128.691508385
336,0.0
385,23.919999999999995
386,25.83999999999999
387,2.3079612166758308
388,0.0
425,0.0
450,0.0
451,0.0
452,11.686266135828916
453,0.0
490,0.0
515,0.0
516,0.0
542,0.0
592,2379478.0150797646
632,2256494.3272384675
686,0.46460231175052136
687,0.3999999999999997
688,0.9999999999999993
2,21, 1,21, 0,12,40.00,50.00,Monday
250,24.38290024021697
251,6272463.198631146
336,0.0
385,24.453333333333354
386,25.84000000000002
387,2.4442370068445514
388,0.0
425,0.0
450,0.0
451,0.0
452,11.786083168632715
453,0.0
490,0.0
515,0.0
516,0.0
542,0.0
592,3669838.7544778567
632,2662275.8944446086
686,0.8256884870491137
687,0.3333333333333336
688,1.3333333333333344
2,21, 1,21, 0,12,50.00,60.00,Monday
250,24.496250100220124
251,4626448.140551129
336,0.0
385,24.453333333333354
386,25.84000000000002
387,2.615201459282294
388,0.0
425,0.0
450,0.0
451,0.0
452,11.783876380221947
453,0.0
490,0.0
515,0.0
516,0.0
542,0.0
592,3562201.741799791
632,1021652.441517818
686,0.6666666666666672
687,0.6666666666666672
688,1.3333333333333344
2,21, 1,21, 0,13, 0.00,10.00,Monday
250,24.089654732842998
251,4521793.142312724
336,0.0
385,23.92
386,25.84
387,2.7060875462302993
388,0.0
425,0.0
450,0.0
451,0.0
452,11.692223886113082
453,0.0
490,0.0
515,0.0
516,0.0
542,0.0
592,2362355.612715043
632,2206126.2109844405
686,0.45886848354714826
687,0.4
688,1.0
2,21, 1,21, 0,13,10.00,20.00,Monday
250,24.381587049461316
251,6142147.212905067
336,0.0
385,24.453333333333333
386,25.84
387,2.7907672995709225
388,0.0
425,0.0
450,0.0
451,0.0
452,11.600186372257113
453,0.0
490,0.0
515,0.0
516,0.0
542,0.0
592,3586553.16587374
632,2621574.2204330456
686,0.8040222760388267
687,0.33333333333333337
688,1.3333333333333333
2,21, 1,21, 0,13,20.00,30.00,Monday
250,24.51091156323418
251,4499087.571539754
336,0.0
385,24.453333333333326
386,25.83999999999999
387,2.8996365951841105
388,0.0
425,0.0
450,0.0
451,0.0
452,11.512872935394213
453,0.0
490,0.0
515,0.0
516,0.0
542,0.0
592,3554691.3010860677
632,902027.854036522
686,0.6666666666666664
687,0.6666666666666664
688,1.3333333333333328
2,21, 1,21, 0,13,30.00,40.00,Monday
250,24.108257986104924
251,4347971.547158204
336,0.0
385,23.919999999999995
386,25.83999999999999
387,2.965358679102696
388,0.0
425,0.0
450,0.0
451,0.0
452,11.485654259321443
453,0.0
490,0.0
515,0.0
516,0.0
542,0.0
592,2306529.7893256
632,2084825.6671820325
686,0.445611973434468
687,0.3999999999999997
688,0.9999999999999993
2,21, 1,21, 0,13,40.00,50.00,Monday
250,24.379811279246915
251,5922960.880907224
336,0.0
385,24.453333333333354
386,25.84000000000002
387,3.0331589615385335
388,0.0
425,0.0
450,0.0
451,0.0
452,11.46942374562573
453,0.0
490,0.0
515,0.0
516,0.0
542,0.0
592,3432735.4599267477
632,2568568.8261704245
686,0.7658569397860209
687,0.3333333333333336
688,1.3333333333333344
2,21, 1,21, 0,13,50.00,60.00,Monday
250,24.528425226790684
251,4352324.606047862
336,0.0
385,24.453333333333354
386,25.84000000000002
387,3.126186934116023
388,0.0
425,0.0
450,0.0
451,0.0
452,11.455067421019216
453,0.0
490,0.0
515,0.0
516,0.0
542,0.0
592,3547173.065614734
632,763013.0220791597
686,0.6666666666666672
687,0.6666666666666672
688,1.3333333333333344
2,21, 1,21, 0,14, 0.00,10.00,Monday
250,24.12560791689807
251,4215215.639451029
336,0.0
385,23.92
386,25.84
387,3.188128301011614
388,0.0
425,0.0
450,0.0
451,0.0
452,11.41475986179604
453,0.0
490,0.0
515,0.0
516,0.0
542,0.0
592,2259092.016362246
632,1996623.953563309
686,0.4369329013920552
687,0.3892183727303129
688,1.0
2,21, 1,21, 0,14,10.00,20.00,Monday
250,24.378125192691616
251,5735233.192285629
336,0.0
385,24.453333333333333
386,25.84
387,3.252145094010956
388,0.0
425,0.0
450,0.0
451,0.0
452,11.310726919541263
453,0.0
490,0.0
515,0.0
516,0.0
542,0.0
592,3309463.6179965846
632,2516193.259238041
686,0.730119615043955
687,0.33333333333333337
688,1.3333333333333333
2,21, 1,21, 0,14,20.00,30.00,Monday
250,24.541114958540103
251,4250311.098229789
336,0.0
385,24.453333333333326
386,25.83999999999999
387,3.336491360237678
388,0.0
425,0.0
450,0.0
451,0.0
452,11.110007367478639
453,0.0
490,0.0
515,0.0
516,0.0
542,0.0
592,3570964.859740202
632,637391.1193098214
686,0.6666666666666664
687,0.6666666666666664
688,1.3333333333333328
2,21, 1,21, 0,14,30.00,40.00,Monday
250,24.133837255890242
251,4148186.585419815
336,0.0
385,23.919999999999995
386,25.83999999999999
387,3.379107454154399
388,0.0
425,0.0
450,0.0
451,0.0
452,10.86731381840796
453,0.0
490,0.0
515,0.0
516,0.0
542,0.0