Program Version,EnergyPlus, Version 24.2.0-94a887817b, YMD=2025.02.04 17:10
1,5,Environment Title[],Latitude[deg],Longitude[deg],Time Zone[],Elevation[m]
2,8,Day of Simulation[],Month[],Day of Month[],DST Indicator[1=yes 0=no],Hour[],StartMinute[],EndMinute[],DayType
3,5,Cumulative Day of Simulation[],Month[],Day of Month[],DST Indicator[1=yes 0=no],DayType  ! When Daily Meters Requested
4,2,Cumulative Days of Simulation[],Month[]  ! When Monthly Meters Requested
5,1,Cumulative Days of Simulation[] ! When Run Period Meters Requested
6,1,Calendar Year of Simulation[] ! When Annual Meters Requested
11,9,Electricity:Facility [J] !Monthly [Value,Min,Day,Hour,Minute,Max,Day,Hour,Minute]
23,9,Electricity:Building [J] !Monthly [Value,Min,Day,Hour,Minute,Max,Day,Hour,Minute]
59,9,InteriorLights:Electricity [J] !Monthly [Value,Min,Day,Hour,Minute,Max,Day,Hour,Minute]
521,9,Electricity:HVAC [J] !Monthly [Value,Min,Day,Hour,Minute,Max,Day,Hour,Minute]
637,9,NaturalGas:Facility [J] !Monthly [Value,Min,Day,Hour,Minute,Max,Day,Hour,Minute]
649,9,NaturalGas:HVAC [J] !Monthly [Value,Min,Day,Hour,Minute,Max,Day,Hour,Minute]
13,11,Electricity:Facility [J] !RunPeriod [Value,Min,Month,Day,Hour,Minute,Max,Month,Day,Hour,Minute]
25,11,Electricity:Building [J] !RunPeriod [Value,Min,Month,Day,Hour,Minute,Max,Month,Day,Hour,Minute]
61,11,InteriorLights:Electricity [J] !RunPeriod [Value,Min,Month,Day,Hour,Minute,Max,Month,Day,Hour,Minute]
523,11,Electricity:HVAC [J] !RunPeriod [Value,Min,Month,Day,Hour,Minute,Max,Month,Day,Hour,Minute]
639,11,NaturalGas:Facility [J] !RunPeriod [Value,Min,Month,Day,Hour,Minute,Max,Month,Day,Hour,Minute]
651,11,NaturalGas:HVAC [J] !RunPeriod [Value,Min,Month,Day,Hour,Minute,Max,Month,Day,Hour,Minute]
End of Data Dictionary
1,YEARSIMULATION,  41.98, -87.92,  -6.00, 201.00
4,31, 1
11,8817394526.318306,235080.03812220602,11,19,30,3566566.9538343986,26,14,60
23,1945239833.1866162,108520.6921185439,11,20,20,1078679.3532544689,31,13,60
59,1025558832.980205,31711.775911572455, 1, 1,10,634235.5182314491, 1, 8,10
521,6872154693.131704,0.0,11,13,50,2569350.2467606375,27,20,30
637,15676736305.040157,0.0, 1,10,60,19586911.345717005,31, 7,30
649,15676736305.040157,0.0, 1,10,60,19586911.345717005,31, 7,30
4,59, 2
11,7226474894.231765,99999999999999.0,11,19,30,-99999999999999.0,26,14,60
23,1715224688.3375378,99999999999999.0,11,20,20,-99999999999999.0,31,13,60
59,896555328.5719398,99999999999999.0, 1, 1,10,-99999999999999.0, 1, 8,10
521,5511250205.894224,99999999999999.0,11,13,50,-99999999999999.0,27,20,30
637,12843860127.28034,99999999999999.0, 1,10,60,20565088.381196856, 3, 7,60
649,12843860127.28034,99999999999999.0, 1,10,60,20565088.381196856, 3, 7,60
4,90, 3
11,7193333941.212615,94279.47812041224,31,16,60,-99999999999999.0,26,14,60
23,1864951231.2296968,94279.47812041224,31,16,60,-99999999999999.0,31,13,60
59,987124160.5753826,99999999999999.0, 1, 1,10,-99999999999999.0, 1, 8,10
521,5328382709.98289,99999999999999.0,11,13,50,-99999999999999.0,27,20,30
637,9380533939.636059,99999999999999.0, 1,10,60,-99999999999999.0, 3, 7,60
649,9380533939.636059,99999999999999.0, 1,10,60,-99999999999999.0, 3, 7,60
4,120, 4
11,4137073300.011246,31711.775911572455, 5, 4,30,-99999999999999.0,26,14,60
23,1705935778.476691,31711.775911572455, 5, 3,30,-99999999999999.0,31,13,60
59,944122992.4392945,99999999999999.0, 1, 1,10,-99999999999999.0, 1, 8,10
521,2431137521.534547,99999999999999.0,11,13,50,-99999999999999.0,27,20,30
637,3819518248.4442196,99999999999999.0, 1,10,60,-99999999999999.0, 3, 7,60
649,3819518248.4442196,99999999999999.0, 1,10,60,-99999999999999.0, 3, 7,60
4,151, 5
11,2826372987.4454465,99999999999999.0, 5, 4,30,-99999999999999.0,26,14,60
23,1763620798.9507744,99999999999999.0, 5, 3,30,-99999999999999.0,31,13,60
59,1025558832.980205,99999999999999.0, 1, 1,10,-99999999999999.0, 1, 8,10
521,1062752188.4946979,99999999999999.0,11,13,50,-99999999999999.0,27,20,30
637,793130045.2025481,99999999999999.0, 1,10,60,-99999999999999.0, 3, 7,60
649,793130045.2025481,99999999999999.0, 1,10,60,-99999999999999.0, 3, 7,60
4,181, 6
11,2640391404.878385,99999999999999.0, 5, 4,30,-99999999999999.0,26,14,60
23,1566933757.7280693,99999999999999.0, 5, 3,30,-99999999999999.0,31,13,60
59,944122992.4392939,99999999999999.0, 1, 1,10,-99999999999999.0, 1, 8,10
521,1073457647.1503252,99999999999999.0,11,13,50,-99999999999999.0,27,20,30
637,34125427.22983522,99999999999999.0, 1,10,60,-99999999999999.0, 3, 7,60
649,34125427.22983522,99999999999999.0, 1,10,60,-99999999999999.0, 3, 7,60
4,212, 7
11,3244141274.618121,99999999999999.0, 5, 4,30,-99999999999999.0,26,14,60
23,1594785262.533014,99999999999999.0, 5, 3,30,-99999999999999.0,31,13,60
59,987124160.5753828,99999999999999.0, 1, 1,10,-99999999999999.0, 1, 8,10
521,1649356012.0851288,99999999999999.0,11,13,50,-99999999999999.0,27,20,30
637,0.0,99999999999999.0, 1,10,60,-99999999999999.0, 3, 7,60
649,0.0,99999999999999.0, 1,10,60,-99999999999999.0, 3, 7,60
4,243, 8
11,2945363684.1546316,99999999999999.0, 5, 4,30,-99999999999999.0,26,14,60
23,1675952706.2737734,99999999999999.0, 5, 3,30,-99999999999999.0,31,13,60
59,1025558832.980205,99999999999999.0, 1, 1,10,-99999999999999.0, 1, 8,10
521,1269410977.8808644,99999999999999.0,11,13,50,-99999999999999.0,27,20,30
637,4048598.076159855,99999999999999.0, 1,10,60,-99999999999999.0, 3, 7,60
649,4048598.076159855,99999999999999.0, 1,10,60,-99999999999999.0, 3, 7,60
4,273, 9
11,2270213010.0814657,99999999999999.0, 5, 4,30,-99999999999999.0,26,14,60
23,1530615039.281004,99999999999999.0, 5, 3,30,-99999999999999.0,31,13,60
59,905688320.0344722,99999999999999.0, 1, 1,10,-99999999999999.0, 1, 8,10
521,739597970.8004586,99999999999999.0,11,13,50,-99999999999999.0,27,20,30
637,46690506.24135865,99999999999999.0, 1,10,60,-99999999999999.0, 3, 7,60
649,46690506.24135865,99999999999999.0, 1,10,60,-99999999999999.0, 3, 7,60
4,304,10
11,3341276652.481092,99999999999999.0, 5, 4,30,-99999999999999.0,26,14,60
23,1790765033.744839,99999999999999.0, 5, 3,30,-99999999999999.0,31,13,60
59,1025558832.980205,99999999999999.0, 1, 1,10,-99999999999999.0, 1, 8,10
521,1550511618.7362564,99999999999999.0,11,13,50,-99999999999999.0,27,20,30
637,1946975107.1490297,99999999999999.0, 1,10,60,-99999999999999.0, 3, 7,60
649,1946975107.1490297,99999999999999.0, 1,10,60,-99999999999999.0, 3, 7,60
4,334,11
11,6032407378.218564,99999999999999.0, 5, 4,30,-99999999999999.0,26,14,60
23,1801970199.8346498,99999999999999.0, 5, 3,30,-99999999999999.0,31,13,60
59,982557664.8441166,99999999999999.0, 1, 1,10,-99999999999999.0, 1, 8,10
521,4230437178.3839207,99999999999999.0,11,13,50,-99999999999999.0,27,20,30
637,7764255541.222351,99999999999999.0, 1,10,60,-99999999999999.0, 3, 7,60
649,7764255541.222351,99999999999999.0, 1,10,60,-99999999999999.0, 3, 7,60
4,365,12
11,7466497613.477916,99999999999999.0, 5, 4,30,-99999999999999.0,26,14,60
23,1784547874.7139468,99999999999999.0, 5, 3,30,-99999999999999.0,31,13,60
59,948689488.1705606,99999999999999.0, 1, 1,10,-99999999999999.0, 1, 8,10
521,5681949738.763979,99999999999999.0,11,13,50,-99999999999999.0,27,20,30
637,9772411861.220776,99999999999999.0, 1,10,60,-99999999999999.0, 3, 7,60
649,9772411861.220776,99999999999999.0, 1,10,60,-99999999999999.0, 3, 7,60
5,365
13,58140940667.129166,31711.775911572455, 4, 5, 4,30,3566566.9538343986, 1,26,14,60
25,20740542204.28942,31711.775911572455, 4, 5, 3,30,1078679.3532544689, 1,31,13,60
61,11698220439.571596,31711.775911572455, 1, 1, 1,10,634235.5182314491, 1, 1, 8,10
523,37400398462.839294,0.0, 1,11,13,50,2569350.2467606375, 1,27,20,30
639,62082285706.74277,0.0, 1, 1,10,60,20565088.381196856, 2, 3, 7,60
651,62082285706.74277,0.0, 1, 1,10,60,20565088.381196856, 2, 3, 7,60
End of Data
 Number of Records Written=          78
