Program Version,EnergyPlus, Version 24.2.0-94a887817b, YMD=2025.02.04 17:21
1,5,Environment Title[],Latitude[deg],Longitude[deg],Time Zone[],Elevation[m]
2,8,Day of Simulation[],Month[],Day of Month[],DST Indicator[1=yes 0=no],Hour[],StartMinute[],EndMinute[],DayType
3,5,Cumulative Day of Simulation[],Month[],Day of Month[],DST Indicator[1=yes 0=no],DayType  ! When Daily Report Variables Requested
4,2,Cumulative Days of Simulation[],Month[]  ! When Monthly Report Variables Requested
5,1,Cumulative Days of Simulation[] ! When Run Period Report Variables Requested
6,1,Calendar Year of Simulation[] ! When Annual Report Variables Requested
250,1,LIVING ZONE,Zone Air Temperature [C] !TimeStep,REPORTSCH
251,1,LIVING ZONE,Zone Air System Sensible Heating Energy [J] !TimeStep,REPORTSCH
336,1,LIVING ZONE,Zone Air System Sensible Cooling Energy [J] !TimeStep,REPORTSCH
385,1,LIVING ZONE,Zone Thermostat Heating Setpoint Temperature [C] !TimeStep,REPORTSCH
386,1,LIVING ZONE,Zone Thermostat Cooling Setpoint Temperature [C] !TimeStep,REPORTSCH
387,1,GARAGE ZONE,Zone Air Temperature [C] !TimeStep,REPORTSCH
388,1,GARAGE ZONE,Zone Air System Sensible Heating Energy [J] !TimeStep,REPORTSCH
425,1,GARAGE ZONE,Zone Air System Sensible Cooling Energy [J] !TimeStep,REPORTSCH
450,1,GARAGE ZONE,Zone Thermostat Heating Setpoint Temperature [C] !TimeStep,REPORTSCH
451,1,GARAGE ZONE,Zone Thermostat Cooling Setpoint Temperature [C] !TimeStep,REPORTSCH
452,1,ATTIC ZONE,Zone Air Temperature [C] !TimeStep,REPORTSCH
453,1,ATTIC ZONE,Zone Air System Sensible Heating Energy [J] !TimeStep,REPORTSCH
490,1,ATTIC ZONE,Zone Air System Sensible Cooling Energy [J] !TimeStep,REPORTSCH
515,1,ATTIC ZONE,Zone Thermostat Heating Setpoint Temperature [C] !TimeStep,REPORTSCH
516,1,ATTIC ZONE,Zone Thermostat Cooling Setpoint Temperature [C] !TimeStep,REPORTSCH
542,1,ACDXCOIL 1,Cooling Coil Total Cooling Energy [J] !TimeStep,REPORTSCH
592,1,HEAT PUMP DX HEATING COIL 1,Heating Coil Heating Energy [J] !TimeStep,REPORTSCH
632,1,SUPP HEATING COIL 1,Heating Coil Heating Energy [J] !TimeStep,REPORTSCH
686,1,TWOSPEED HEAT PUMP 1,Unitary System DX Coil Cycling Ratio [] !TimeStep,REPORTSCH
687,1,TWOSPEED HEAT PUMP 1,Unitary System DX Coil Speed Ratio [] !TimeStep,REPORTSCH
688,1,TWOSPEED HEAT PUMP 1,Unitary System DX Coil Speed Level [] !TimeStep,REPORTSCH
End of Data Dictionary
1,YEARSIMULATION,  41.98, -87.92,  -6.00, 201.00
2,21, 1,21, 0, 1, 0.00,10.00,Sunday
250,21.927278044094756
251,5337955.11354241
336,0.0
385,21.666666666666668
386,26.72
387,0.605205768961694
388,0.0
425,0.0
450,0.0
451,0.0
452,-1.635537268528052
453,0.0
490,0.0
515,0.0
516,0.0
542,0.0
592,2411490.84464773
632,2831927.81746618
686,0.5233830983564894
687,0.416455232237339
688,1.1666666666666667
2,21, 1,21, 0, 1,10.00,20.00,Sunday
250,22.89393507853994
251,7498193.682988195
336,0.0
385,23.0
386,26.72
387,0.5786645196354765
388,0.0
425,0.0
450,0.0
451,0.0
452,-1.6250004270442657
453,0.0
490,0.0
515,0.0
516,0.0
542,0.0
592,4862618.968003615
632,2657143.254646158
686,1.0
687,1.0
688,2.0
2,21, 1,21, 0, 1,20.00,30.00,Sunday
250,22.992862708388326
251,6754749.718192495
336,0.0
385,23.0
386,26.72
387,0.5483316351082825
388,0.0
425,0.0
450,0.0
451,0.0
452,-1.6147824387643632
453,0.0
490,0.0
515,0.0
516,0.0
542,0.0
592,4846045.1517432425
632,1662488.5480759677
686,1.0
687,1.0
688,2.0
2,21, 1,21, 0, 1,30.00,40.00,Sunday
250,21.924658242485414
251,5394350.942606563
336,0.0
385,21.666666666666654
386,26.719999999999978
387,0.5250581411671542
388,0.0
425,0.0
450,0.0
451,0.0
452,-1.609701184566096
453,0.0
490,0.0
515,0.0
516,0.0
542,0.0
592,2426326.8163674325
632,2871498.1352380435
686,0.5266038453316284
687,0.437158531954009
688,1.1666666666666659
2,21, 1,21, 0, 1,40.00,50.00,Sunday
250,22.89384911436736
251,7556716.343199676
336,0.0
385,23.0
386,26.72
387,0.5008633602748572
388,0.0
425,0.0
450,0.0
451,0.0
452,-1.6061679303746512
453,0.0
490,0.0
515,0.0
516,0.0
542,0.0
592,4815139.5871450845
632,2763862.025121285
686,1.0
687,1.0
688,2.0
2,21, 1,21, 0, 1,50.00,60.00,Sunday
250,22.992874434682694
251,6807888.510131296
336,0.0
385,23.0
386,26.72
387,0.47244200809206816
388,0.0
425,0.0
450,0.0
451,0.0
452,-1.603783110037917
453,0.0
490,0.0
515,0.0
516,0.0
542,0.0
592,4798578.049986134
632,1763094.759458293
686,1.0
687,1.0
688,2.0
2,21, 1,21, 0, 2, 0.00,10.00,Sunday
250,21.92280729631913
251,5434153.800547778
336,0.0
385,21.666666666666668
386,26.72
387,0.45016420384012373
388,0.0
425,0.0
450,0.0
451,0.0
452,-1.604402833654562
453,0.0
490,0.0
515,0.0
516,0.0
542,0.0
592,2437421.0726045445
632,2898819.8049158836
686,0.5289072635296485
687,0.45179338799238933
688,1.1666666666666667
2,21, 1,21, 0, 2,10.00,20.00,Sunday
250,22.2852401015457
251,5294576.913786897
336,0.0
385,22.333333333333332
386,26.72
387,0.42751131489941474
388,0.0
425,0.0
450,0.0
451,0.0
452,-1.6082784649558977
453,0.0
490,0.0
515,0.0
516,0.0
542,0.0
592,3260593.822920066
632,2032004.1346144024
686,0.6842642175484052
687,0.6666666666666667
688,1.6666666666666667
2,21, 1,21, 0, 2,20.00,30.00,Sunday
250,22.519368576663304
251,6607990.005379731
336,0.0
385,23.0
386,26.72
387,0.3996427004954383
388,0.0
425,0.0
450,0.0
451,0.0
452,-1.6166076354237537
453,0.0
490,0.0
515,0.0
516,0.0
542,0.0
592,4797620.314629947
632,2362696.492938531
686,1.0
687,1.0
688,2.0
2,21, 1,21, 0, 2,30.00,40.00,Sunday
250,22.954233272165105
251,7705208.92947069
336,0.0
385,23.0
386,26.72
387,0.37415231559737283
388,0.0
425,0.0
450,0.0
451,0.0
452,-1.6278097486641991
453,0.0
490,0.0
515,0.0
516,0.0
542,0.0
592,4799103.563750176
632,2773123.506679317
686,1.0
687,1.0
688,2.0
2,21, 1,21, 0, 2,40.00,50.00,Sunday
250,21.9152978736429
251,5549994.221299961
336,0.0
385,21.66666666666664
386,26.71999999999996
387,0.3519165499203813
388,0.0
425,0.0
450,0.0
451,0.0
452,-1.6415096297990224
453,0.0
490,0.0
515,0.0
516,0.0
542,0.0
592,2505017.491127227
632,2945197.3195200157
686,0.5354886907032624
687,0.4862819432304196
688,1.166666666666665
2,21, 1,21, 0, 2,50.00,60.00,Sunday
250,22.286537140453014
251,5383591.726244371
336,0.0
385,22.33333333333335
386,26.72000000000002
387,0.3277698791532119
388,0.0
425,0.0
450,0.0
451,0.0
452,-1.6586635891358497
453,0.0
490,0.0
515,0.0
516,0.0
542,0.0
592,3283499.750295048
632,2092230.7314931077
686,0.6908631164943073
687,0.6666666666666672
688,1.6666666666666679
2,21, 1,21, 0, 3, 0.00,10.00,Sunday
250,22.52206278960004
251,6691930.9608778255
336,0.0
385,23.0
386,26.72
387,0.298547616037374
388,0.0
425,0.0
450,0.0
451,0.0
452,-1.6787925852679346
453,0.0
490,0.0
515,0.0
516,0.0
542,0.0
592,4797637.635458259
632,2445623.1728075272
686,1.0
687,1.0
688,2.0
2,21, 1,21, 0, 3,10.00,20.00,Sunday
250,22.95456150219782
251,7781823.87261893
336,0.0
385,23.0
386,26.72
387,0.2732624789717045
388,0.0
425,0.0
450,0.0
451,0.0
452,-1.6921376311236944
453,0.0
490,0.0
515,0.0
516,0.0
542,0.0
592,4799101.132177552
632,2849049.4936784944
686,1.0
687,1.0
688,2.0
2,21, 1,21, 0, 3,20.00,30.00,Sunday
250,21.91150725206907
251,5625747.944717631
336,0.0
385,21.666666666666682
386,26.72000000000002
387,0.25259979115865855
388,0.0
425,0.0
450,0.0
451,0.0
452,-1.6973118919817896
453,0.0
490,0.0
515,0.0
516,0.0
542,0.0
592,2536639.608801523
632,2988779.9570266106
686,0.5394731302541279
687,0.5000000000000004
688,1.1666666666666674
2,21, 1,21, 0, 3,30.00,40.00,Sunday
250,22.287977425809384
251,5471864.170933828
336,0.0
385,22.33333333333335
386,26.72000000000002
387,0.23124930812518057
388,0.0
425,0.0
450,0.0
451,0.0
452,-1.698318269374293
453,0.0
490,0.0
515,0.0
516,0.0
542,0.0
592,3306601.526946898
632,2150829.4702463713
686,0.6975180653810937
687,0.6666666666666672
688,1.6666666666666679
2,21, 1,21, 0, 3,40.00,50.00,Sunday
250,22.524347790507168
251,6769471.592853285
336,0.0
385,23.0
386,26.72
387,0.20615883337859697
388,0.0
425,0.0
450,0.0
451,0.0
452,-1.6949610605374297
453,0.0
490,0.0
515,0.0
516,0.0
542,0.0
592,4797654.971576857
632,2521905.435371822
686,1.0
687,1.0
688,2.0
2,21, 1,21, 0, 3,50.00,60.00,Sunday
250,22.954837337523244
251,7854935.000659734
336,0.0
385,23.0
386,26.72
387,0.1848692853773657
388,0.0
425,0.0
450,0.0
451,0.0
452,-1.6882483055619706
453,0.0
490,0.0
515,0.0
516,0.0
542,0.0
592,4799099.053847829
632,2921574.3689067923
686,1.0
687,1.0
688,2.0
2,21, 1,21, 0, 4, 0.00,10.00,Sunday
250,21.904480902883996
251,5759081.345931414
336,0.0
385,21.666666666666668
386,26.72
387,0.16322048392550492
388,0.0
425,0.0
450,0.0
451,0.0
452,-1.6812120145403067
453,0.0
490,0.0
515,0.0
516,0.0
542,0.0
592,2557545.6563641615
632,3103446.841537439
686,0.5461847931700505
687,0.5
688,1.1666666666666667
2,21, 1,21, 0, 4,10.00,20.00,Sunday
250,22.291588046516722
251,5682197.274210621
336,0.0
385,22.333333333333332
386,26.72
387,0.136794120283535
388,0.0
425,0.0
450,0.0
451,0.0
452,-1.6751197586357867
453,0.0
490,0.0
515,0.0
516,0.0
542,0.0
592,3357827.11204445
632,2293162.4798565474
686,0.7142082731637245
687,0.6666666666666667
688,1.6666666666666667
2,21, 1,21, 0, 4,20.00,30.00,Sunday
250,22.529350011776828
251,7026254.728084211
336,0.0
385,23.0
386,26.72
387,0.10161529734463545
388,0.0
425,0.0
450,0.0
451,0.0
452,-1.6709316331689519
453,0.0
490,0.0
515,0.0
516,0.0
542,0.0
592,4784493.729052826
632,2788344.934469014
686,1.0
687,1.0
688,2.0
2,21, 1,21, 0, 4,30.00,40.00,Sunday
250,22.955484127045636
251,8179817.783769159
336,0.0
385,23.0
386,26.72
387,0.06835135087247106
388,0.0
425,0.0
450,0.0
451,0.0
452,-1.6720671598051466
453,0.0
490,0.0
515,0.0
516,0.0
542,0.0
592,4779389.190395809
632,3264875.794972429
686,1.0
687,1.0
688,2.0
2,21, 1,21, 0, 4,40.00,50.00,Sunday
250,21.88736390533795
251,6083965.469392753
336,0.0
385,21.66666666666664
386,26.71999999999996
387,0.03823586456642251
388,0.0
425,0.0
450,0.0
451,0.0
452,-1.67913761123484
453,0.0
490,0.0
515,0.0
516,0.0
542,0.0
592,2604103.470293862
632,3387274.4486937146
686,0.5627104340821287
687,0.49999999999999933
688,1.166666666666665
2,21, 1,21, 0, 4,50.00,60.00,Sunday
250,22.297331051460915
251,6034581.5384441
336,0.0
385,22.33333333333335
386,26.72000000000002
387,0.004631869823787495
388,0.0
425,0.0
450,0.0
451,0.0
452,-1.6896681539303127
453,0.0
490,0.0
515,0.0
516,0.0
542,0.0
592,3440962.391383075
632,2535262.241324149
686,0.7426419435573679
687,0.6666666666666672
688,1.6666666666666679
2,21, 1,21, 0, 5, 0.00,10.00,Sunday
250,22.53599004658078
251,7233140.607772961
336,0.0
385,23.0
386,26.72
387,-0.02867344276779387
388,0.0
425,0.0
450,0.0
451,0.0
452,-1.7002507253778558
453,0.0
490,0.0
515,0.0
516,0.0
542,0.0
592,4763710.061422986
632,3009186.9756366503
686,1.0
687,1.0
688,2.0
2,21, 1,21, 0, 5,10.00,20.00,Sunday
250,22.956189607756553
251,8283681.5828771945
336,0.0
385,23.0
386,26.72
387,-0.048700428673408645
388,0.0
425,0.0
450,0.0
451,0.0
452,-1.7029211504017434
453,0.0
490,0.0
515,0.0
516,0.0
542,0.0
592,4756585.17852501
632,3389802.900305421
686,1.0
687,1.0
688,2.0
2,21, 1,21, 0, 5,20.00,30.00,Sunday
250,21.887839416174522
251,6075991.392338857
336,0.0
385,21.666666666666682
386,26.72000000000002
387,-0.05871997452277715
388,0.0
425,0.0
450,0.0
451,0.0
452,-1.6959335514574627
453,0.0
490,0.0
515,0.0
516,0.0
542,0.0
592,2590499.223267891
632,3392687.730674097
686,0.5626232804261492
687,0.5000000000000004
688,1.1666666666666674
2,21, 1,21, 0, 5,30.00,40.00,Sunday
250,22.295017779235273
251,5909349.307452167
336,0.0
385,22.33333333333335
386,26.72000000000002
387,-0.06644261600298004
388,0.0
425,0.0
450,0.0
451,0.0
452,-1.6809142402300143
453,0.0
490,0.0
515,0.0
516,0.0
542,0.0
592,3387078.378057896
632,2474745.4464128716
686,0.732278119182425
687,0.6666666666666672
688,1.6666666666666679
2,21, 1,21, 0, 5,40.00,50.00,Sunday
250,22.53403285460028
251,7117306.9769785805
336,0.0
385,23.0
386,26.72
387,-0.07297221620571068
388,0.0
425,0.0
450,0.0
451,0.0
452,-1.6551435821680194
453,0.0
490,0.0
515,0.0
516,0.0
542,0.0
592,4734538.2686074255
632,2925258.058290837
686,1.0
687,1.0
688,2.0
2,21, 1,21, 0, 5,50.00,60.00,Sunday
250,22.955973799778057
251,8164778.788292728
336,0.0
385,23.0
386,26.72
387,-0.07627881987899054
388,0.0
425,0.0
450,0.0
451,0.0
452,-1.6261869328829697
453,0.0
490,0.0
515,0.0
516,0.0
542,0.0
592,4727525.444107027
632,3300476.901835854
686,1.0
687,1.0
688,2.0
2,21, 1,21, 0, 6, 0.00,10.00,Sunday
250,21.889880578475818
251,6037432.61177507
336,0.0
385,21.666666666666668
386,26.72
387,-0.08550212040270698
388,0.0
425,0.0
450,0.0
451,0.0
452,-1.6028139534318784
453,0.0
490,0.0
515,0.0
516,0.0
542,0.0
592,2570473.6712172553
632,3373440.7951296614
686,0.5610063331184851
687,0.5
688,1.1666666666666667
2,21, 1,21, 0, 6,10.00,20.00,Sunday
250,22.29604392401728
251,5956154.080162527
336,0.0
385,22.333333333333332
386,26.72
387,-0.10137850049560324
388,0.0
425,0.0
450,0.0
451,0.0
452,-1.5869124011739402
453,0.0
490,0.0
515,0.0
516,0.0
542,0.0
592,3384124.296468243
632,2519917.5820116545
686,0.7362943919280985
687,0.6666666666666667
688,1.6666666666666667
2,21, 1,21, 0, 6,20.00,30.00,Sunday
250,22.53559090919127
251,7247717.841826349
336,0.0
385,23.0
386,26.72
387,-0.12643860674404928
388,0.0
425,0.0
450,0.0
451,0.0
452,-1.5806980066890814
453,0.0
490,0.0
515,0.0
516,0.0
542,0.0
592,4715366.026970059
632,3074320.4147270783
686,1.0
687,1.0
688,2.0
2,21, 1,21, 0, 6,30.00,40.00,Sunday
250,22.956209724831027
251,8378564.56183631
336,0.0
385,23.0
386,26.72
387,-0.15280815619282273
388,0.0
425,0.0
450,0.0
451,0.0
452,-1.588720755560239
453,0.0
490,0.0
515,0.0
516,0.0
542,0.0
592,4710991.120997958
632,3530410.9476132127
686,1.0
687,1.0
688,2.0
2,21, 1,21, 0, 6,40.00,50.00,Sunday
250,21.87856608178286
251,6252036.125948292
336,0.0
385,21.66666666666664
386,26.71999999999996
387,-0.17892805511348597
388,0.0
425,0.0
450,0.0
451,0.0
452,-1.608437650466685
453,0.0
490,0.0
515,0.0
516,0.0
542,0.0
592,2599450.309917297
632,3562720.548150087
686,0.5721838675713004
687,0.49999999999999933
688,1.166666666666665
2,21, 1,21, 0, 6,50.00,60.00,Sunday
250,22.299875588916418
251,6188480.656013151
336,0.0
385,22.33333333333335
386,26.72000000000002
387,-0.20910541840907373
388,0.0
425,0.0
450,0.0
451,0.0
452,-1.636836335515882
453,0.0
490,0.0
515,0.0
516,0.0
542,0.0
592,3436761.773915994
632,2681379.7530039228
686,0.755618930099394
687,0.6666666666666672
688,1.6666666666666679
2,21, 1,21, 0, 7, 0.00,10.00,Sunday
250,22.539816446519993
251,7417204.511240532
336,0.0
385,23.0
386,26.72
387,-0.25215810971173624
388,0.0
425,0.0
450,0.0
451,0.0
452,-1.6890492028285138
453,0.0
490,0.0
515,0.0
516,0.0
542,0.0
592,4725184.101759926
632,3229330.8377210237
686,1.0
687,1.0
688,2.0
2,21, 1,21, 0, 7,10.00,20.00,Sunday
250,22.956656144946972
251,8516967.838781169
336,0.0
385,23.0
386,26.72
387,-0.2986110630356433
388,0.0
425,0.0
450,0.0
451,0.0
452,-1.7707458302531152
453,0.0
490,0.0
515,0.0
516,0.0
542,0.0
592,4744521.230126884
632,3634176.4383263546
686,1.0
687,1.0
688,2.0
2,21, 1,21, 0, 7,20.00,30.00,Sunday
250,21.873155708418118
251,6354066.723182434
336,0.0
385,21.666666666666682
386,26.72000000000002
387,-0.34712631512300846
388,0.0
425,0.0
450,0.0
451,0.0
452,-1.8869908227070802
453,0.0
490,0.0
515,0.0
516,0.0
542,0.0
592,2647075.6138602747
632,3619033.9596012835
686,0.5765547315209487
687,0.5000000000000004
688,1.1666666666666674
2,21, 1,21, 0, 7,30.00,40.00,Sunday
250,22.300635372639448
251,6258352.900178193
336,0.0
385,22.33333333333335
386,26.72000000000002
387,-0.4058880769922818
388,0.0
425,0.0
450,0.0
451,0.0
452,-2.044813376179352
453,0.0
490,0.0
515,0.0
516,0.0
542,0.0
592,3513142.464480313
632,2671063.6140175033
686,0.7601999268384745
687,0.6666666666666672
688,1.6666666666666679
2,21, 1,21, 0, 7,40.00,50.00,Sunday
250,22.540737480922957
251,7476551.04628955
336,0.0
385,23.0
386,26.72
387,-0.4857195536049794
388,0.0
425,0.0
450,0.0
451,0.0
452,-2.2667374756475778
453,0.0
490,0.0
515,0.0
516,0.0
542,0.0
592,4807572.638775459
632,3205004.2902912823
686,1.0
687,1.0
688,2.0
2,21, 1,21, 0, 7,50.00,60.00,Sunday
250,22.956750341440298
251,8580773.041289488
336,0.0
385,23.0
386,26.72
387,-0.5636872814573971
388,0.0
425,0.0
450,0.0
451,0.0
452,-2.4940604015260623
453,0.0
490,0.0
515,0.0
516,0.0
542,0.0
592,4823010.703667866
632,3619225.3881636197
686,1.0
687,1.0
688,2.0
2,21, 1,21, 0, 8, 0.00,10.00,Sunday
250,21.86998304724252
251,6413350.443297619
336,0.0
385,21.666666666666668
386,26.72
387,-0.6273162834911369
388,0.0
425,0.0
450,0.0
451,0.0
452,-2.698684354815637
453,0.0
490,0.0
515,0.0
516,0.0
542,0.0
592,2692240.857745471
632,3634353.449859369
686,0.5785405251081828
687,0.5
688,1.1666666666666667
2,21, 1,21, 0, 8,10.00,20.00,Sunday
250,22.30022780739675
251,6256583.875606348
336,0.0
385,22.333333333333332
386,26.72
387,-0.6837374722300305
388,0.0
425,0.0
450,0.0
451,0.0
452,-2.835245514134776
453,0.0
490,0.0
515,0.0
516,0.0
542,0.0
592,3552110.4741986585
632,2632145.5202932996
686,0.7589578730019694
687,0.6666666666666667
688,1.6666666666666667
2,21, 1,21, 0, 8,20.00,30.00,Sunday
250,22.540180816296676
251,7430333.936914721
336,0.0
385,23.0
386,26.72
387,-0.7395075457479621
388,0.0
425,0.0
450,0.0
451,0.0
452,-2.8768018218262137
453,0.0
490,0.0
515,0.0
516,0.0
542,0.0
592,4858307.5287064565
632,3108005.005235497
686,1.0
687,1.0
688,2.0
2,21, 1,21, 0, 8,30.00,40.00,Sunday
250,22.956669490650203
251,8463166.898243427
336,0.0
385,23.0
386,26.72
387,-0.7740636595761619
388,0.0
425,0.0
450,0.0
451,0.0
452,-2.7868109256438967
453,0.0
490,0.0
515,0.0
516,0.0
542,0.0
592,4865073.731208674
632,3459667.6270383485
686,1.0
687,1.0
688,2.0
2,21, 1,21, 0, 8,40.00,50.00,Sunday
250,21.880720876615875
251,6209084.2232654095
336,0.0
385,21.66666666666664
386,26.71999999999996
387,-0.7849095220535738
388,0.0
425,0.0
450,0.0
451,0.0
452,-2.5749391238964026
453,0.0
490,0.0
515,0.0
516,0.0
542,0.0
592,2678072.2956260284
632,3440767.924260542
686,0.5678511340036007
687,0.49999999999999933
688,1.166666666666665
2,21, 1,21, 0, 8,50.00,60.00,Sunday
250,22.296056161920774
251,5997951.763645762
336,0.0
385,22.33333333333335
386,26.72000000000002
387,-0.7803235332522857
388,0.0
425,0.0
450,0.0
451,0.0
452,-2.2602167858807523
453,0.0
490,0.0
515,0.0
516,0.0
542,0.0
592,3510728.6914800927
632,2434396.5666905837
686,0.738434754917929
687,0.6666666666666672
688,1.6666666666666679
2,21, 1,21, 0, 9, 0.00,10.00,Sunday
250,22.931652336903007
251,7978842.367419303
336,0.0
385,23.0
386,26.72
387,-0.7553007282130937
388,0.0
425,0.0
450,0.0
451,0.0
452,-1.8461974849445077
453,0.0
490,0.0
515,0.0
516,0.0
542,0.0
592,4903911.068862606
632,3000173.7213797313
686,1.0
687,1.0
688,2.0
2,21, 1,21, 0, 9,10.00,20.00,Sunday
250,21.88743524175377
251,6060028.635869938
336,0.0
385,21.666666666666668
386,26.72
387,-0.7114188822127245
388,0.0
425,0.0
450,0.0
451,0.0
452,-1.3719707461090072
453,0.0
490,0.0
515,0.0
516,0.0
542,0.0
592,2675554.15400624
632,3292254.2652816568
686,0.5602093942384367
687,0.5
688,1.1666666666666665
2,21, 1,21, 0, 9,20.00,30.00,Sunday
250,22.292746517886357
251,5799532.605847254
336,0.0
385,22.333333333333325
386,26.719999999999988
387,-0.650786502535502
388,0.0
425,0.0
450,0.0
451,0.0
452,-0.8261024037072395
453,0.0
490,0.0
515,0.0
516,0.0
542,0.0
592,3492764.9550574594
632,2269215.8229618506
686,0.7228635108724902
687,0.6666666666666664
688,1.666666666666666
2,21, 1,21, 0, 9,30.00,40.00,Sunday
250,22.324677401059823
251,7163429.329841237
336,0.0
385,22.333333333333343
386,26.72000000000001
387,-0.5548169985950704
388,0.0
425,0.0
450,0.0
451,0.0
452,-0.06468396076405392
453,0.0
490,0.0
515,0.0
516,0.0
542,0.0
592,3095867.7823816347
632,3925438.0169724827
686,0.737002354319034
687,0.3333333333333332
688,1.3333333333333335
2,21, 1,21, 0, 9,40.00,50.00,Sunday
250,22.32580752595686
251,7129800.554343291
336,0.0
385,22.33333333333335
386,26.72000000000002
387,-0.47007089248525313
388,0.0
425,0.0
450,0.0
451,0.0
452,0.5803244059341539
453,0.0
490,0.0
515,0.0
516,0.0
542,0.0
592,3116704.255990251
632,3866330.1884408197
686,0.7396096797048674
687,0.3333333333333336
688,1.3333333333333344
2,21, 1,21, 0, 9,50.00,60.00,Sunday
250,22.934276804469086
251,7823882.375523177
336,0.0
385,23.0
386,26.72
387,-0.3972651814942546
388,0.0
425,0.0
450,0.0
451,0.0
452,1.0951645626645305
453,0.0
490,0.0
515,0.0
516,0.0
542,0.0
592,4991577.68580394
632,2749702.1353632137
686,1.0
687,1.0
688,2.0
2,21, 1,21, 0,10, 0.00,10.00,Sunday
250,21.899270230172487
251,5837701.136573462
336,0.0
385,21.666666666666668
386,26.72
387,-0.32514742271497366
388,0.0
425,0.0
450,0.0
451,0.0
452,1.5588796182831253
453,0.0
490,0.0
515,0.0
516,0.0
542,0.0
592,2688170.463652637
632,3053595.5920965993
686,0.5482058331644994
687,0.5
688,1.1666666666666667
2,21, 1,21, 0,10,10.00,20.00,Sunday
250,22.288732230999983
251,5550916.904837153
336,0.0
385,22.333333333333332
386,26.72
387,-0.2390231562699855
388,0.0
425,0.0
450,0.0
451,0.0
452,2.068140653409346
453,0.0
490,0.0
515,0.0
516,0.0
542,0.0
592,3508037.135838859
632,2023632.4811221021
686,0.7038183772124156
687,0.6666666666666667
688,1.6666666666666667
2,21, 1,21, 0,10,20.00,30.00,Sunday
250,22.31963352501341
251,6904542.207065261
336,0.0
385,22.333333333333325
386,26.719999999999988
387,-0.1045911468512866
388,0.0
425,0.0
450,0.0
451,0.0
452,2.759140413589197
453,0.0
490,0.0
515,0.0
516,0.0
542,0.0
592,2979113.6753328233
632,3811761.742122387
686,0.6819480789038668
687,0.3333333333333332
688,1.3333333333333328
2,21, 1,21, 0,10,30.00,40.00,Sunday
250,22.319855998094564
251,6821444.142054366
336,0.0
385,22.333333333333343
386,26.72000000000001
387,0.026037297139588994
388,0.0
425,0.0
450,0.0
451,0.0
452,3.39062643630596
453,0.0
490,0.0
515,0.0
516,0.0
542,0.0
592,2975094.79868237
632,3733292.4516867963
686,0.6756006038360901
687,0.3333333333333332
688,1.3333333333333335
2,21, 1,21, 0,10,40.00,50.00,Sunday
250,22.31808096107445
251,6717560.587425822
336,0.0
385,22.33333333333335
386,26.72000000000002
387,0.16398704130388705
388,0.0
425,0.0
450,0.0
451,0.0
452,4.067886885298936
453,0.0
490,0.0
515,0.0
516,0.0
542,0.0
592,2922197.1441670125
632,3692703.062918216
686,0.6562011350746515
687,0.3333333333333336
688,1.3333333333333344
2,21, 1,21, 0,10,50.00,60.00,Sunday
250,22.31621831747196
251,6611501.2341183685
336,0.0
385,22.33333333333335
386,26.72000000000002
387,0.3198329701756634
388,0.0
425,0.0
450,0.0
451,0.0
452,4.825771467263596
453,0.0
490,0.0
515,0.0
516,0.0
542,0.0
592,2866284.6288404334
632,3653328.7499877466
686,0.6362457642388482
687,0.3333333333333336
688,1.3333333333333344
2,21, 1,21, 0,11, 0.00,10.00,Sunday
250,22.314401939557435
251,6506509.809320668
336,0.0
385,22.333333333333332
386,26.72
387,0.48996878506572084
388,0.0
425,0.0
450,0.0
451,0.0
452,5.647813775234142
453,0.0
490,0.0
515,0.0
516,0.0
542,0.0
592,2805697.009908319
632,3619306.8029742194
686,0.6174174386837235
687,0.3333333333333333
688,1.3333333333333335
2,21, 1,21, 0,11,10.00,20.00,Sunday
250,22.312553629197172
251,6398599.853656217
336,0.0
385,22.333333333333332
386,26.72
387,0.6716605932114096
388,0.0
425,0.0
450,0.0
451,0.0
452,6.5150492627513525
453,0.0
490,0.0
515,0.0
516,0.0
542,0.0
592,2743684.09294017
632,3583941.10388705
686,0.5983448968382203
687,0.33333333333333337
688,1.3333333333333333
2,21, 1,21, 0,11,20.00,30.00,Sunday
250,22.104846290577033
251,5542757.079567347
336,0.0
385,22.0
386,26.72
387,0.8221581669669185
388,0.0
425,0.0
450,0.0
451,0.0
452,7.287972297982776
453,0.0
490,0.0
515,0.0
516,0.0
542,0.0
592,3935906.888518287
632,1449699.8989109437
686,0.75
687,0.75
688,1.5
2,21, 1,21, 0,11,30.00,40.00,Sunday
250,22.056050745932673
251,6084555.6780644115
336,0.0
385,22.0
386,26.72
387,1.0554804531436055
388,0.0
425,0.0
450,0.0
451,0.0
452,8.313117519907816
453,0.0
490,0.0
515,0.0
516,0.0
542,0.0
592,3130596.558506024
632,2872706.601912478
686,0.6306839234538242
687,0.5
688,1.25
2,21, 1,21, 0,11,40.00,50.00,Sunday
250,22.059178420581354
251,5914620.53190619
336,0.0
385,22.0
386,26.72
387,1.2843693433356607
388,0.0
425,0.0
450,0.0
451,0.0
452,9.186308277966539
453,0.0
490,0.0
515,0.0
516,0.0
542,0.0
592,3141103.773656033
632,2696473.1898592347
686,0.6305371378055364
687,0.5
688,1.25
2,21, 1,21, 0,11,50.00,60.00,Sunday
250,22.317170415620115
251,4658969.8777196
336,0.0
385,22.33333333333335
386,26.72000000000002
387,1.4622030642835193
388,0.0
425,0.0
450,0.0
451,0.0
452,9.835449017172019
453,0.0
490,0.0
515,0.0
516,0.0
542,0.0
592,3465976.770945433
632,1187954.422874565
686,0.6666666666666672
687,0.6193976830376091
688,1.3333333333333344
2,21, 1,21, 0,12, 0.00,10.00,Sunday
250,21.94687671380493
251,4744415.560363419
336,0.0
385,21.8
386,26.720000000000002
387,1.6388950061192977
388,0.0
425,0.0
450,0.0
451,0.0
452,10.401148974526205
453,0.0
490,0.0
515,0.0
516,0.0
542,0.0
592,2408583.780598844
632,2388086.783423873
686,0.47400619719005344
687,0.4
688,1.0
2,21, 1,21, 0,12,10.00,20.00,Sunday
250,22.26375243489797
251,6392839.621542022
336,0.0
385,22.333333333333332
386,26.72
387,1.825898423821682
388,0.0
425,0.0
450,0.0
451,0.0
452,10.893734677190062
453,0.0
490,0.0
515,0.0
516,0.0
542,0.0
592,3727251.45079753
632,2721820.9411635012
686,0.8402277378246583
687,0.33333333333333337
688,1.3333333333333333
2,21, 1,21, 0,12,20.00,30.00,Sunday
250,22.376094133780196
251,4663104.846324023
336,0.0
385,22.333333333333325
386,26.719999999999988
387,2.079198005566247
388,0.0
425,0.0
450,0.0
451,0.0
452,11.392233043564119
453,0.0
490,0.0
515,0.0
516,0.0
542,0.0
592,3550090.048843736
632,1070288.8874982968
686,0.6666666666666664
687,0.6666666666666664
688,1.3333333333333328
2,21, 1,21, 0,12,30.00,40.00,Sunday
250,21.969833663605584
251,4565139.8954895055
336,0.0
385,21.799999999999994
386,26.719999999999995
387,2.2237217099124367
388,0.0
425,0.0
450,0.0
451,0.0
452,11.603847793086292
453,0.0
490,0.0
515,0.0
516,0.0
542,0.0
592,2362778.786950856
632,2249108.2837276016
686,0.4595064448193935
687,0.3999999999999997
688,0.9999999999999993
2,21, 1,21, 0,12,40.00,50.00,Sunday
250,22.26268819414868
251,6233007.193118773
336,0.0
385,22.33333333333335
386,26.72000000000002
387,2.359843756608866
388,0.0
425,0.0
450,0.0
451,0.0
452,11.703330515902042
453,0.0
490,0.0
515,0.0
516,0.0
542,0.0
592,3625157.6551560583
632,2672198.072640349
686,0.8099033018381402
687,0.3333333333333336
688,1.3333333333333344
2,21, 1,21, 0,12,50.00,60.00,Sunday
250,22.3841392051077
251,4584159.6392633505
336,0.0
385,22.33333333333335
386,26.72000000000002
387,2.5306501156350865
388,0.0
425,0.0
450,0.0
451,0.0
452,11.701028832664667
453,0.0
490,0.0
515,0.0
516,0.0
542,0.0
592,3564858.856982877
632,976714.1259705615
686,0.6666666666666672
687,0.6666666666666672
688,1.3333333333333344
2,21, 1,21, 0,13, 0.00,10.00,Sunday
250,21.980154704499817
251,4463807.762123019
336,0.0
385,21.8
386,26.720000000000002
387,2.6213713233496985
388,0.0
425,0.0
450,0.0
451,0.0
452,11.609322472781148
453,0.0
490,0.0
515,0.0
516,0.0
542,0.0
592,2336506.8468498625
632,2172326.211500215
686,0.4514362115105928
687,0.4
688,1.0
2,21, 1,21, 0,13,10.00,20.00,Sunday
250,22.260995148888238
251,6057826.578835137
336,0.0
385,22.333333333333332
386,26.72
387,2.705813231800101
388,0.0
425,0.0
450,0.0
451,0.0
452,11.517106819875963
453,0.0
490,0.0
515,0.0
516,0.0
542,0.0
592,3509329.260567748
632,2622141.870958896
686,0.7800402664988834
687,0.33333333333333337
688,1.3333333333333333
2,21, 1,21, 0,13,20.00,30.00,Sunday
250,22.402142450595626
251,4432134.354537853
336,0.0
385,22.333333333333325
386,26.719999999999988
387,2.814402421302858
388,0.0
425,0.0
450,0.0
451,0.0
452,11.42922956516356
453,0.0
490,0.0
515,0.0
516,0.0
542,0.0
592,3557344.908989611
632,832434.6716595418
686,0.6666666666666664
687,0.6666666666666664
688,1.3333333333333328
2,21, 1,21, 0,13,30.00,40.00,Sunday
250,21.998548510182506
251,4300529.468348396
336,0.0
385,21.799999999999994
386,26.719999999999995
387,2.879871112667932
388,0.0
425,0.0
450,0.0
451,0.0
452,11.401745526364362
453,0.0
490,0.0
515,0.0
516,0.0
542,0.0
592,2284701.0136200897
632,2057305.7803294873
686,0.43926595863439377
687,0.3999999999999997
688,0.9999999999999993
2,21, 1,21, 0,13,40.00,50.00,Sunday
250,22.25924898632195
251,5846853.283831321
336,0.0
385,22.33333333333335
386,26.72000000000002
387,2.9473492463768265
388,0.0
425,0.0
450,0.0
451,0.0
452,11.385231242849375
453,0.0
490,0.0
515,0.0
516,0.0
542,0.0
592,3361141.0762865436
632,2571330.095520915
686,0.7436501806986293
687,0.3333333333333336
688,1.3333333333333344
2,21, 1,21, 0,13,50.00,60.00,Sunday
250,22.41877039251799
251,4291766.528020888
336,0.0
385,22.33333333333335
386,26.72000000000002
387,3.039946889994802
388,0.0
425,0.0
450,0.0
451,0.0
452,11.37042966000484
453,0.0
490,0.0
515,0.0
516,0.0
542,0.0
592,3549823.2511268705
632,699852.1001705914
686,0.6666666666666672
687,0.6666666666666672
688,1.3333333333333344
2,21, 1,21, 0,14, 0.00,10.00,Sunday
250,22.013363349911288
251,4166476.789359636
336,0.0
385,21.8
386,26.720000000000002
387,3.1016625811337657
388,0.0
425,0.0
450,0.0
451,0.0
452,11.329805655454937
453,0.0
490,0.0
515,0.0
516,0.0
542,0.0
592,2206627.604723648
632,2000920.5848446582
686,0.4286855081983033
687,0.3728924158212126
688,1.0
2,21, 1,21, 0,14,10.00,20.00,Sunday
250,22.25804066894569
251,5717487.2181461435
336,0.0
385,22.333333333333332
386,26.72
387,3.165475539426651
388,0.0
425,0.0
450,0.0
451,0.0
452,11.22545523264715
453,0.0
490,0.0
515,0.0
516,0.0
542,0.0
592,3276692.168076286
632,2534859.0852153157
686,0.7184701423097968
687,0.33333333333333337
688,1.3333333333333333
2,21, 1,21, 0,14,20.00,30.00,Sunday
250,22.426805155087326
251,4224278.28781102
336,0.0
385,22.333333333333325
386,26.719999999999988
387,3.2496066932003465
388,0.0
425,0.0
450,0.0
451,0.0
452,11.024067192376124
453,0.0
490,0.0
515,0.0
516,0.0
542,0.0
592,3573117.6369499955
632,609244.259565917
686,0.6666666666666664
687,0.6666666666666664
688,1.3333333333333328
2,21, 1,21, 0,14,30.00,40.00,Sunday
250,22.020050849048282
251,4110228.410596117
336,0.0
385,21.799999999999994
386,26.719999999999995
387,3.2921024399328322
388,0.0
425,0.0
450,0.0
451,0.0
452,10.781080169949629
453,0.0
490,0.0
515,0.0
516,0.0
542,0.0
592,2160018.855311554
632,1992734.9533628628
686,0.42445395650556034
687,0.342182102593821