Program Version,EnergyPlus, Version 24.1.0-9d7789a3ac, YMD=2025.04.05 15:39
1,5,Environment Title[],Latitude[deg],Longitude[deg],Time Zone[],Elevation[m]
2,8,Day of Simulation[],Month[],Day of Month[],DST Indicator[1=yes 0=no],Hour[],StartMinute[],EndMinute[],DayType
3,5,Cumulative Day of Simulation[],Month[],Day of Month[],DST Indicator[1=yes 0=no],DayType  ! When Daily Meters Requested
4,2,Cumulative Days of Simulation[],Month[]  ! When Monthly Meters Requested
5,1,Cumulative Days of Simulation[] ! When Run Period Meters Requested
6,1,Calendar Year of Simulation[] ! When Annual Meters Requested
11,9,Electricity:Facility [J] !Monthly [Value,Min,Day,Hour,Minute,Max,Day,Hour,Minute]
23,9,Electricity:Building [J] !Monthly [Value,Min,Day,Hour,Minute,Max,Day,Hour,Minute]
59,9,InteriorLights:Electricity [J] !Monthly [Value,Min,Day,Hour,Minute,Max,Day,Hour,Minute]
521,9,Electricity:HVAC [J] !Monthly [Value,Min,Day,Hour,Minute,Max,Day,Hour,Minute]
637,9,NaturalGas:Facility [J] !Monthly [Value,Min,Day,Hour,Minute,Max,Day,Hour,Minute]
649,9,NaturalGas:HVAC [J] !Monthly [Value,Min,Day,Hour,Minute,Max,Day,Hour,Minute]
13,11,Electricity:Facility [J] !RunPeriod [Value,Min,Month,Day,Hour,Minute,Max,Month,Day,Hour,Minute]
25,11,Electricity:Building [J] !RunPeriod [Value,Min,Month,Day,Hour,Minute,Max,Month,Day,Hour,Minute]
61,11,InteriorLights:Electricity [J] !RunPeriod [Value,Min,Month,Day,Hour,Minute,Max,Month,Day,Hour,Minute]
523,11,Electricity:HVAC [J] !RunPeriod [Value,Min,Month,Day,Hour,Minute,Max,Month,Day,Hour,Minute]
639,11,NaturalGas:Facility [J] !RunPeriod [Value,Min,Month,Day,Hour,Minute,Max,Month,Day,Hour,Minute]
651,11,NaturalGas:HVAC [J] !RunPeriod [Value,Min,Month,Day,Hour,Minute,Max,Month,Day,Hour,Minute]
End of Data Dictionary
1,RUN PERIOD 1,  41.98, -87.92,  -6.00, 201.00
4,31, 1
11,8292310061.792022,231412.6229828997,11,20,40,3542311.091903502,14,13,40
23,1929053034.9900165,108613.74370326236,11,20,50,1060175.6903232085,31,13,60
59,992584309.7587783,30692.15552748285, 1, 1,10,613843.110549657, 1, 8,10
521,6363257026.802004,0.0,11,13,30,2563559.699488748,27,21,20
637,13184789950.238745,0.0, 1, 8,50,18592853.46527261,31, 7,50
649,13184789950.238745,0.0, 1, 8,50,18592853.46527261,31, 7,50
4,59, 2
11,6722797997.506644,144426.810096956,14,19,40,-99999999999999.0,14,13,40
23,1701628814.334809,99999999999999.0,11,20,50,1060514.1186732473, 4, 9,30
59,867728621.0729777,99999999999999.0, 1, 1,10,-99999999999999.0, 1, 8,10
521,5021169183.171839,99999999999999.0,11,13,30,-99999999999999.0,27,21,20
637,10992550992.365982,99999999999999.0, 1, 8,50,19223990.651936013, 3, 8,10
649,10992550992.365982,99999999999999.0, 1, 8,50,19223990.651936013, 3, 8,10
4,90, 3
11,6475955210.287815,97282.89545942858,31,16,60,-99999999999999.0,14,13,40
23,1794513027.8054302,97282.89545942858,31,16,60,1071409.516949129,18, 9,60
59,918186524.7601575,99999999999999.0, 1, 1,10,-99999999999999.0, 1, 8,10
521,4681442182.4824,99999999999999.0,11,13,30,-99999999999999.0,27,21,20
637,7978486900.369978,99999999999999.0, 1, 8,50,-99999999999999.0, 3, 8,10
649,7978486900.369978,99999999999999.0, 1, 8,50,-99999999999999.0, 3, 8,10
4,120, 4
11,3872372657.8378515,30692.15552748285, 5, 2,10,-99999999999999.0,14,13,40
23,1739231659.44548,30692.15552748285, 5, 1,30,-99999999999999.0,18, 9,60
59,950965746.8635106,99999999999999.0, 1, 1,10,-99999999999999.0, 1, 8,10
521,2133140998.3923688,99999999999999.0,11,13,30,-99999999999999.0,27,21,20
637,2844939638.637814,99999999999999.0, 1, 8,50,-99999999999999.0, 3, 8,10
649,2844939638.637814,99999999999999.0, 1, 8,50,-99999999999999.0, 3, 8,10
4,151, 5
11,2847637901.1868486,99999999999999.0, 5, 2,10,-99999999999999.0,14,13,40
23,1739073567.8097897,99999999999999.0, 5, 1,30,-99999999999999.0,18, 9,60
59,992584309.7587823,99999999999999.0, 1, 1,10,-99999999999999.0, 1, 8,10
521,1108564333.3770795,99999999999999.0,11,13,30,-99999999999999.0,27,21,20
637,541874827.3075212,99999999999999.0, 1, 8,50,-99999999999999.0, 3, 8,10
649,541874827.3075212,99999999999999.0, 1, 8,50,-99999999999999.0, 3, 8,10
4,181, 6
11,2780477130.501,99999999999999.0, 5, 2,10,-99999999999999.0,14,13,40
23,1485405702.63803,99999999999999.0, 5, 1,30,-99999999999999.0,18, 9,60
59,876567961.8648906,99999999999999.0, 1, 1,10,-99999999999999.0, 1, 8,10
521,1295071427.862997,99999999999999.0,11,13,30,-99999999999999.0,27,21,20
637,15404001.855427133,99999999999999.0, 1, 8,50,-99999999999999.0, 3, 8,10
649,15404001.855427133,99999999999999.0, 1, 8,50,-99999999999999.0, 3, 8,10
4,212, 7
11,3631240203.5334897,99999999999999.0, 5, 2,10,-99999999999999.0,14,13,40
23,1611153287.6539543,99999999999999.0, 5, 1,30,-99999999999999.0,18, 9,60
59,992584309.7587783,99999999999999.0, 1, 1,10,-99999999999999.0, 1, 8,10
521,2020086915.879568,99999999999999.0,11,13,30,-99999999999999.0,27,21,20
637,0.0,99999999999999.0, 1, 8,50,-99999999999999.0, 3, 8,10
649,0.0,99999999999999.0, 1, 8,50,-99999999999999.0, 3, 8,10
4,243, 8
11,3152446338.6784096,99999999999999.0, 5, 2,10,-99999999999999.0,14,13,40
23,1587320176.6278431,99999999999999.0, 5, 1,30,-99999999999999.0,18, 9,60
59,955385417.2594715,99999999999999.0, 1, 1,10,-99999999999999.0, 1, 8,10
521,1565126162.05059,99999999999999.0,11,13,30,-99999999999999.0,27,21,20
637,836953.2932287613,99999999999999.0, 1, 8,50,-99999999999999.0, 3, 8,10
649,836953.2932287613,99999999999999.0, 1, 8,50,-99999999999999.0, 3, 8,10
4,273, 9
11,2490496066.3659387,99999999999999.0, 5, 2,10,-99999999999999.0,14,13,40
23,1562085070.9001343,99999999999999.0, 5, 1,30,-99999999999999.0,18, 9,60
59,913766854.3642006,99999999999999.0, 1, 1,10,-99999999999999.0, 1, 8,10
521,928410995.4658017,99999999999999.0,11,13,30,-99999999999999.0,27,21,20
637,16848825.141614288,99999999999999.0, 1, 8,50,-99999999999999.0, 3, 8,10
649,16848825.141614288,99999999999999.0, 1, 8,50,-99999999999999.0, 3, 8,10
4,304,10
11,3095800531.156526,99999999999999.0, 5, 2,10,-99999999999999.0,14,13,40
23,1768498561.2347233,99999999999999.0, 5, 1,30,-99999999999999.0,18, 9,60
59,992584309.7587783,99999999999999.0, 1, 1,10,-99999999999999.0, 1, 8,10
521,1327301969.9217975,99999999999999.0,11,13,30,-99999999999999.0,27,21,20
637,1303638352.2919216,99999999999999.0, 1, 8,50,-99999999999999.0, 3, 8,10
649,1303638352.2919216,99999999999999.0, 1, 8,50,-99999999999999.0, 3, 8,10
4,334,11
11,5467164609.4834175,99999999999999.0, 5, 2,10,-99999999999999.0,14,13,40
23,1728771953.2686539,99999999999999.0, 5, 1,30,-99999999999999.0,18, 9,60
59,913766854.3642014,99999999999999.0, 1, 1,10,-99999999999999.0, 1, 8,10
521,3738392656.2147627,99999999999999.0,11,13,30,-99999999999999.0,27,21,20
637,6606841259.47756,99999999999999.0, 1, 8,50,-99999999999999.0, 3, 8,10
649,6606841259.47756,99999999999999.0, 1, 8,50,-99999999999999.0, 3, 8,10
4,365,12
11,6719158005.937252,99999999999999.0, 5, 2,10,-99999999999999.0,14,13,40
23,1822945147.4402647,99999999999999.0, 5, 1,30,-99999999999999.0,18, 9,60
59,955385417.2594683,99999999999999.0, 1, 1,10,-99999999999999.0, 1, 8,10
521,4896212858.496975,99999999999999.0,11,13,30,-99999999999999.0,27,21,20
637,8510327542.133281,99999999999999.0, 1, 8,50,-99999999999999.0, 3, 8,10
649,8510327542.133281,99999999999999.0, 1, 8,50,-99999999999999.0, 3, 8,10
5,365
13,55547856714.26724,30692.15552748285, 4, 5, 2,10,3542311.091903502, 1,14,13,40
25,20469680004.149643,30692.15552748285, 4, 5, 1,30,1071409.516949129, 3,18, 9,60
61,11322090636.840137,30692.15552748285, 1, 1, 1,10,613843.110549657, 1, 1, 8,10
523,35078176710.11834,0.0, 1,11,13,30,2563559.699488748, 1,27,21,20
639,51996539243.11281,0.0, 1, 1, 8,50,19223990.651936013, 2, 3, 8,10
651,51996539243.11281,0.0, 1, 1, 8,50,19223990.651936013, 2, 3, 8,10
End of Data
 Number of Records Written=          78
