Program Version,EnergyPlus, Version 24.2.0-94a887817b, YMD=2025.02.11 00:15
1,5,Environment Title[],Latitude[deg],Longitude[deg],Time Zone[],Elevation[m]
2,8,Day of Simulation[],Month[],Day of Month[],DST Indicator[1=yes 0=no],Hour[],StartMinute[],EndMinute[],DayType
3,5,Cumulative Day of Simulation[],Month[],Day of Month[],DST Indicator[1=yes 0=no],DayType  ! When Daily Report Variables Requested
4,2,Cumulative Days of Simulation[],Month[]  ! When Monthly Report Variables Requested
5,1,Cumulative Days of Simulation[] ! When Run Period Report Variables Requested
6,1,Calendar Year of Simulation[] ! When Annual Report Variables Requested
250,1,LIVING ZONE,Zone Air Temperature [C] !TimeStep,REPORTSCH
251,1,LIVING ZONE,Zone Air System Sensible Heating Energy [J] !TimeStep,REPORTSCH
336,1,LIVING ZONE,Zone Air System Sensible Cooling Energy [J] !TimeStep,REPORTSCH
385,1,LIVING ZONE,Zone Thermostat Heating Setpoint Temperature [C] !TimeStep,REPORTSCH
386,1,LIVING ZONE,Zone Thermostat Cooling Setpoint Temperature [C] !TimeStep,REPORTSCH
387,1,GARAGE ZONE,Zone Air Temperature [C] !TimeStep,REPORTSCH
388,1,GARAGE ZONE,Zone Air System Sensible Heating Energy [J] !TimeStep,REPORTSCH
425,1,GARAGE ZONE,Zone Air System Sensible Cooling Energy [J] !TimeStep,REPORTSCH
450,1,GARAGE ZONE,Zone Thermostat Heating Setpoint Temperature [C] !TimeStep,REPORTSCH
451,1,GARAGE ZONE,Zone Thermostat Cooling Setpoint Temperature [C] !TimeStep,REPORTSCH
452,1,ATTIC ZONE,Zone Air Temperature [C] !TimeStep,REPORTSCH
453,1,ATTIC ZONE,Zone Air System Sensible Heating Energy [J] !TimeStep,REPORTSCH
490,1,ATTIC ZONE,Zone Air System Sensible Cooling Energy [J] !TimeStep,REPORTSCH
515,1,ATTIC ZONE,Zone Thermostat Heating Setpoint Temperature [C] !TimeStep,REPORTSCH
516,1,ATTIC ZONE,Zone Thermostat Cooling Setpoint Temperature [C] !TimeStep,REPORTSCH
542,1,ACDXCOIL 1,Cooling Coil Total Cooling Energy [J] !TimeStep,REPORTSCH
592,1,HEAT PUMP DX HEATING COIL 1,Heating Coil Heating Energy [J] !TimeStep,REPORTSCH
632,1,SUPP HEATING COIL 1,Heating Coil Heating Energy [J] !TimeStep,REPORTSCH
686,1,TWOSPEED HEAT PUMP 1,Unitary System DX Coil Cycling Ratio [] !TimeStep,REPORTSCH
687,1,TWOSPEED HEAT PUMP 1,Unitary System DX Coil Speed Ratio [] !TimeStep,REPORTSCH
688,1,TWOSPEED HEAT PUMP 1,Unitary System DX Coil Speed Level [] !TimeStep,REPORTSCH
End of Data Dictionary
1,RUN PERIOD 1,  41.98, -87.92,  -6.00, 201.00
2,21, 1,21, 0, 1, 0.00,10.00,Monday
250,23.35426113172423
251,6106958.692265077
336,0.0
385,23.136666666666667
386,26.06
387,0.6568054969642245
388,0.0
425,0.0
450,0.0
451,0.0
452,-1.5986816418773395
453,0.0
490,0.0
515,0.0
516,0.0
542,0.0
592,2665674.769999217
632,3349851.212744013
686,0.5644849669343315
687,0.5
688,1.1666666666666667
2,21, 1,21, 0, 1,10.00,20.00,Monday
250,23.766172530528106
251,5975704.392632958
336,0.0
385,23.803333333333335
386,26.059999999999995
387,0.6305489451311336
388,0.0
425,0.0
450,0.0
451,0.0
452,-1.5882744805996305
453,0.0
490,0.0
515,0.0
516,0.0
542,0.0
592,3494266.1782283373
632,2427324.906422915
686,0.739097698430611
687,0.6666666666666667
688,1.6666666666666667
2,21, 1,21, 0, 1,20.00,30.00,Monday
250,24.00335802954714
251,7202915.457425123
336,0.0
385,24.47
386,26.06
387,0.5997705355886482
388,0.0
425,0.0
450,0.0
451,0.0
452,-1.5779109113032919
453,0.0
490,0.0
515,0.0
516,0.0
542,0.0
592,4846973.390417641
632,2895470.461603537
686,1.0
687,1.0
688,2.0
2,21, 1,21, 0, 1,30.00,40.00,Monday
250,24.425729096855925
251,8318172.057104893
336,0.0
385,24.47
386,26.06
387,0.5730941725190938
388,0.0
425,0.0
450,0.0
451,0.0
452,-1.5715264286624786
453,0.0
490,0.0
515,0.0
516,0.0
542,0.0
592,4828658.377228091
632,3352896.472452086
686,1.0
687,1.0
688,2.0
2,21, 1,21, 0, 1,40.00,50.00,Monday
250,23.35100485971506
251,6170594.6242701
336,0.0
385,23.136666666666635
386,26.059999999999963
387,0.5509279129367933
388,0.0
425,0.0
450,0.0
451,0.0
452,-1.568715559946251
453,0.0
490,0.0
515,0.0
516,0.0
542,0.0
592,2644605.687342582
632,3435512.7843960505
686,0.5683764717718159
687,0.49999999999999933
688,1.166666666666665
2,21, 1,21, 0, 1,50.00,60.00,Monday
250,23.767445635325807
251,6046511.449453067
336,0.0
385,23.803333333333352
386,26.060000000000016
387,0.5274147239829221
388,0.0
425,0.0
450,0.0
451,0.0
452,-1.5669807048517896
453,0.0
490,0.0
515,0.0
516,0.0
542,0.0
592,3470153.4190793913
632,2516372.170133725
686,0.7452725643906348
687,0.6666666666666672
688,1.6666666666666679
2,21, 1,21, 0, 2, 0.00,10.00,Monday
250,24.005050130681582
251,7255601.336762675
336,0.0
385,24.47
386,26.06
387,0.49898891285128266
388,0.0
425,0.0
450,0.0
451,0.0
452,-1.5669550492764481
453,0.0
490,0.0
515,0.0
516,0.0
542,0.0
592,4799491.9662316535
632,2994509.2766975528
686,1.0
687,1.0
688,2.0
2,21, 1,21, 0, 2,10.00,20.00,Monday
250,24.425917339778472
251,8357718.494430849
336,0.0
385,24.47
386,26.06
387,0.473724811737275
388,0.0
425,0.0
450,0.0
451,0.0
452,-1.57043158208294
453,0.0
490,0.0
515,0.0
516,0.0
542,0.0
592,4797025.27600521
632,3423661.6964527853
686,1.0
687,1.0
688,2.0
2,21, 1,21, 0, 2,20.00,30.00,Monday
250,23.34977168808362
251,6194747.808058858
336,0.0
385,23.136666666666684
386,26.06000000000002
387,0.4521179736899804
388,0.0
425,0.0
450,0.0
451,0.0
452,-1.5778672748653801
453,0.0
490,0.0
515,0.0
516,0.0
542,0.0
592,2640828.5150595545
632,3463820.5979998424
686,0.5697949815983001
687,0.5000000000000004
688,1.1666666666666674
2,21, 1,21, 0, 2,30.00,40.00,Monday
250,23.76757389957408
251,6058501.884139607
336,0.0
385,23.803333333333352
386,26.060000000000016
387,0.42877337207505906
388,0.0
425,0.0
450,0.0
451,0.0
452,-1.5888130867463963
453,0.0
490,0.0
515,0.0
516,0.0
542,0.0
592,3472884.873480373
632,2525048.083663729
686,0.746061250769351
687,0.6666666666666672
688,1.6666666666666679
2,21, 1,21, 0, 2,40.00,50.00,Monday
250,24.00543841354655
251,7265750.237043811
336,0.0
385,24.47
386,26.06
387,0.4000654522355854
388,0.0
425,0.0
450,0.0
451,0.0
452,-1.6046003630296972
453,0.0
490,0.0
515,0.0
516,0.0
542,0.0
592,4799491.381620634
632,3004699.5324000265
686,1.0
687,1.0
688,2.0
2,21, 1,21, 0, 2,50.00,60.00,Monday
250,24.425960432344137
251,8366462.824344242
336,0.0
385,24.47
386,26.06
387,0.3742754044200736
388,0.0
425,0.0
450,0.0
451,0.0
452,-1.6210504409644728
453,0.0
490,0.0
515,0.0
516,0.0
542,0.0
592,4797025.27600521
632,3432319.8752422016
686,1.0
687,1.0
688,2.0
2,21, 1,21, 0, 3, 0.00,10.00,Monday
250,23.34881909230887
251,6212959.896943365
336,0.0
385,23.136666666666667
386,26.06
387,0.3525577399045702
388,0.0
425,0.0
450,0.0
451,0.0
452,-1.635551651748119
453,0.0
490,0.0
515,0.0
516,0.0
542,0.0
592,2644051.29342142
632,3479125.8472467763
686,0.5707252670778927
687,0.5
688,1.1666666666666667
2,21, 1,21, 0, 3,10.00,20.00,Monday
250,23.768078628156584
251,6089867.445836537
336,0.0
385,23.803333333333335
386,26.059999999999995
387,0.32981641172222737
388,0.0
425,0.0
450,0.0
451,0.0
452,-1.6473040250982403
453,0.0
490,0.0
515,0.0
516,0.0
542,0.0
592,3481107.314530802
632,2545888.4671776164
686,0.7484365835332213
687,0.6666666666666667
688,1.6666666666666667
2,21, 1,21, 0, 3,20.00,30.00,Monday
250,24.006323570457756
251,7306719.808270061
336,0.0
385,24.47
386,26.06
387,0.3028216018251961
388,0.0
425,0.0
450,0.0
451,0.0
452,-1.6549807540685013
453,0.0
490,0.0
515,0.0
516,0.0
542,0.0
592,4799489.374336953
632,3045359.95960693
686,1.0
687,1.0
688,2.0
2,21, 1,21, 0, 3,30.00,40.00,Monday
250,24.426077276593325
251,8418425.835794495
336,0.0
385,24.47
386,26.06
387,0.27980527615857237
388,0.0
425,0.0
450,0.0
451,0.0
452,-1.6554133785945466
453,0.0
490,0.0
515,0.0
516,0.0
542,0.0
592,4797025.27600521
632,3484062.9524706583
686,1.0
687,1.0
688,2.0
2,21, 1,21, 0, 3,40.00,50.00,Monday
250,23.346212361232897
251,6262564.123494025
336,0.0
385,23.136666666666635
386,26.059999999999963
387,0.2613323550764606
388,0.0
425,0.0
450,0.0
451,0.0
452,-1.6508624182573268
453,0.0
490,0.0
515,0.0
516,0.0
542,0.0
592,2652737.4339132956
632,3520904.776851965
686,0.5732326164857763
687,0.49999999999999933
688,1.166666666666665
2,21, 1,21, 0, 3,50.00,60.00,Monday
250,23.768885256839226
251,6142425.840755333
336,0.0
385,23.803333333333352
386,26.060000000000016
387,0.24238980030047594
388,0.0
425,0.0
450,0.0
451,0.0
452,-1.64325565427677
453,0.0
490,0.0
515,0.0
516,0.0
542,0.0
592,3495163.261977941
632,2580623.0008469536
686,0.7524967610329756
687,0.6666666666666672
688,1.6666666666666679
2,21, 1,21, 0, 4, 0.00,10.00,Monday
250,24.00792237077198
251,7422231.760156182
336,0.0
385,24.47
386,26.06
387,0.21586870960992
388,0.0
425,0.0
450,0.0
451,0.0
452,-1.6332301892366312
453,0.0
490,0.0
515,0.0
516,0.0
542,0.0
592,4794844.069039528
632,3164964.4488504566
686,1.0
687,1.0
688,2.0
2,21, 1,21, 0, 4,10.00,20.00,Monday
250,24.426319055845802
251,8603352.657251474
336,0.0
385,24.47
386,26.06
387,0.18795565016211477
388,0.0
425,0.0
450,0.0
451,0.0
452,-1.6260892588381295
453,0.0
490,0.0
515,0.0
516,0.0
542,0.0
592,4787110.239197659
632,3678500.8745158664
686,1.0
687,1.0
688,2.0
2,21, 1,21, 0, 4,20.00,30.00,Monday
250,23.33283035103769
251,6515766.981300566
336,0.0
385,23.136666666666684
386,26.06000000000002
387,0.1609341313255514
388,0.0
425,0.0
450,0.0
451,0.0
452,-1.6237585910239691
453,0.0
490,0.0
515,0.0
516,0.0
542,0.0
592,2689244.03141202
632,3742017.753774794
686,0.5862715344343297
687,0.5000000000000004
688,1.1666666666666674
2,21, 1,21, 0, 4,30.00,40.00,Monday
250,23.774607786272078
251,6488784.964597804
336,0.0
385,23.803333333333352
386,26.060000000000016
387,0.130524044750698
388,0.0
425,0.0
450,0.0
451,0.0
452,-1.625329743790541
453,0.0
490,0.0
515,0.0
516,0.0
542,0.0
592,3577727.5385629856
632,2817453.930154795
686,0.7809565600361755
687,0.6666666666666672
688,1.6666666666666679
2,21, 1,21, 0, 4,40.00,50.00,Monday
250,24.01468066651577
251,7737816.608956319
336,0.0
385,24.47
386,26.06
387,0.09176516750061744
388,0.0
425,0.0
450,0.0
451,0.0
452,-1.6323012158608396
453,0.0
490,0.0
515,0.0
516,0.0
542,0.0
592,4774689.68377468
632,3494264.9567709835
686,1.0
687,1.0
688,2.0
2,21, 1,21, 0, 4,50.00,60.00,Monday
250,24.42711032532544
251,8928206.982422318
336,0.0
385,24.47
386,26.06
387,0.055824176747401394
388,0.0
425,0.0
450,0.0
451,0.0
452,-1.6425248005550714
453,0.0
490,0.0
515,0.0
516,0.0
542,0.0
592,4765435.086161591
632,4023270.0495931497
686,1.0
687,1.0
688,2.0
2,21, 1,21, 0, 5, 0.00,10.00,Monday
250,23.321797656273322
251,6725460.446343502
336,0.0
385,23.136666666666667
386,26.06
387,0.03288973670235009
388,0.0
425,0.0
450,0.0
451,0.0
452,-1.6501491170263283
453,0.0
490,0.0
515,0.0
516,0.0
542,0.0
592,2714717.734962979
632,3929872.1731134625
686,0.5973480203318371
687,0.5
688,1.1666666666666667
2,21, 1,21, 0, 5,10.00,20.00,Monday
250,23.77602893552297
251,6595105.0568772275
336,0.0
385,23.803333333333335
386,26.059999999999995
387,0.0151054287009238
388,0.0
425,0.0
450,0.0
451,0.0
452,-1.6525616262045348
453,0.0
490,0.0
515,0.0
516,0.0
542,0.0
592,3590865.350831613
632,2903622.18367056
686,0.7897712341439989
687,0.6666666666666667
688,1.6666666666666667
2,21, 1,21, 0, 5,20.00,30.00,Monday
250,24.016387236517026
251,7713450.232801084
336,0.0
385,24.47
386,26.06
387,-0.0008037062528433958
388,0.0
425,0.0
450,0.0
451,0.0
452,-1.646335630233782
453,0.0
490,0.0
515,0.0
516,0.0
542,0.0
592,4750458.127781209
632,3491964.519016319
686,1.0
687,1.0
688,2.0
2,21, 1,21, 0, 5,30.00,40.00,Monday
250,24.42724011869779
251,8790636.526062625
336,0.0
385,24.47
386,26.06
387,-0.01081148597337869
388,0.0
425,0.0
450,0.0
451,0.0
452,-1.6310719408869836
453,0.0
490,0.0
515,0.0
516,0.0
542,0.0
592,4740495.740094985
632,3910183.902968015
686,1.0
687,1.0
688,2.0
2,21, 1,21, 0, 5,40.00,50.00,Monday
250,23.329192753531068
251,6586016.691960998
336,0.0
385,23.136666666666635
386,26.059999999999963
387,-0.01546447524798898
388,0.0
425,0.0
450,0.0
451,0.0
452,-1.6090955146658141
453,0.0
490,0.0
515,0.0
516,0.0
542,0.0
592,2677076.917959356
632,3825510.2616575817
686,0.5906970742534852
687,0.49999999999999933
688,1.166666666666665
2,21, 1,21, 0, 5,50.00,60.00,Monday
250,23.773744601789048
251,6445289.825071823
336,0.0
385,23.803333333333352
386,26.060000000000016
387,-0.018437052905400566
388,0.0
425,0.0
450,0.0
451,0.0
452,-1.5804396682274657
453,0.0
490,0.0
515,0.0
516,0.0
542,0.0
592,3529024.1103210202
632,2826615.7077587023
686,0.7777088988364594
687,0.6666666666666672
688,1.6666666666666679
2,21, 1,21, 0, 6, 0.00,10.00,Monday
250,24.01438276218487
251,7667568.761397416
336,0.0
385,24.47
386,26.06
387,-0.028097199201086137
388,0.0
425,0.0
450,0.0
451,0.0
452,-1.5482865592622113
453,0.0
490,0.0
515,0.0
516,0.0
542,0.0
592,4724052.207102948
632,3475714.1956934053
686,1.0
687,1.0
688,2.0
2,21, 1,21, 0, 6,10.00,20.00,Monday
250,24.42706748988728
251,8828099.97303056
336,0.0
385,24.47
386,26.06
387,-0.044778949111610705
388,0.0
425,0.0
450,0.0
451,0.0
452,-1.530853471697302
453,0.0
490,0.0
515,0.0
516,0.0
542,0.0
592,4717184.630480875
632,3971501.2746025072
686,1.0
687,1.0
688,2.0
2,21, 1,21, 0, 6,20.00,30.00,Monday
250,23.322597403250242
251,6710600.136769595
336,0.0
385,23.136666666666684
386,26.06000000000002
387,-0.06521637948028647
388,0.0
425,0.0
450,0.0
451,0.0
452,-1.5303208490284002
453,0.0
490,0.0
515,0.0
516,0.0
542,0.0
592,2688510.2846135236
632,3940823.254018309
686,0.5974930655761348
687,0.5000000000000004
688,1.1666666666666674
2,21, 1,21, 0, 6,30.00,40.00,Monday
250,23.777670891325965
251,6672821.0556391
336,0.0
385,23.803333333333352
386,26.060000000000016
387,-0.08997053241904115
388,0.0
425,0.0
450,0.0
451,0.0
452,-1.5399647140752561
453,0.0
490,0.0
515,0.0
516,0.0
542,0.0
592,3581240.3986340305
632,2983447.61973903
686,0.7970832671341339
687,0.6666666666666672
688,1.6666666666666679
2,21, 1,21, 0, 6,40.00,50.00,Monday
250,24.01861558188968
251,7876400.620482088
336,0.0
385,24.47
386,26.06
387,-0.12336983718025454
388,0.0
425,0.0
450,0.0
451,0.0
452,-1.5618592000224334
453,0.0
490,0.0
515,0.0
516,0.0
542,0.0
592,4707039.733358931
632,3697144.399677092
686,1.0
687,1.0
688,2.0
2,21, 1,21, 0, 6,50.00,60.00,Monday
250,24.42754907228869
251,9041640.271845303
336,0.0
385,24.47
386,26.06
387,-0.15550877628196264
388,0.0
425,0.0
450,0.0
451,0.0
452,-1.5902373725110233
453,0.0
490,0.0
515,0.0
516,0.0
542,0.0
592,4698633.733564452
632,4202494.152346052
686,1.0
687,1.0
688,2.0
2,21, 1,21, 0, 7, 0.00,10.00,Monday
250,23.31156849869561
251,6919155.025109775
336,0.0
385,23.136666666666667
386,26.06
387,-0.18899061297933734
388,0.0
425,0.0
450,0.0
451,0.0
452,-1.6354992659107703
453,0.0
490,0.0
515,0.0
516,0.0
542,0.0
592,2728452.315603962
632,4113185.022192506
686,0.6080757983884624
687,0.5
688,1.1666666666666667
2,21, 1,21, 0, 7,10.00,20.00,Monday
250,23.780517598660122
251,6868505.765576204
336,0.0
385,23.803333333333335
386,26.059999999999995
387,-0.23198127459064233
388,0.0
425,0.0
450,0.0
451,0.0
452,-1.7160867517226444
453,0.0
490,0.0
515,0.0
516,0.0
542,0.0
592,3659073.79347403
632,3087539.4715612205
686,0.8127684198154482
687,0.6666666666666667
688,1.6666666666666667
2,21, 1,21, 0, 7,20.00,30.00,Monday
250,24.021450499435034
251,8009060.987780945
336,0.0
385,24.47
386,26.06
387,-0.2933047462410656
388,0.0
425,0.0
450,0.0
451,0.0
452,-1.8527834923679198
453,0.0
490,0.0
515,0.0
516,0.0
542,0.0
592,4765744.540846909
632,3767064.3513893136
686,1.0
687,1.0
688,2.0
2,21, 1,21, 0, 7,30.00,40.00,Monday
250,24.427821527678915
251,9132335.152543914
336,0.0
385,24.47
386,26.06
387,-0.35575330843468544
388,0.0
425,0.0
450,0.0
451,0.0
452,-2.0147017584208413
453,0.0
490,0.0
515,0.0
516,0.0
542,0.0
592,4781101.268487236
632,4209943.902175721
686,1.0
687,1.0
688,2.0
2,21, 1,21, 0, 7,40.00,50.00,Monday
250,23.308472879533507
251,6976411.906530373
336,0.0
385,23.136666666666635
386,26.059999999999963
387,-0.4174368871243257
388,0.0
425,0.0
450,0.0
451,0.0
452,-2.1949556799603878
453,0.0
490,0.0
515,0.0
516,0.0
542,0.0
592,2778975.0794669637
632,4121194.0669757435
686,0.6093609182484715
687,0.49999999999999933
688,1.166666666666665
2,21, 1,21, 0, 7,50.00,60.00,Monday
250,23.781060908278967
251,6928604.753408475
336,0.0
385,23.803333333333352
386,26.060000000000016
387,-0.4900580219536845
388,0.0
425,0.0
450,0.0
451,0.0
452,-2.4144577619560197
453,0.0
490,0.0
515,0.0
516,0.0
542,0.0
592,3729621.778407992
632,3074404.7768814964
686,0.815990170283227
687,0.6666666666666672
688,1.6666666666666679
2,21, 1,21, 0, 8, 0.00,10.00,Monday
250,24.022180453424266
251,7727911.508851782
336,0.0
385,24.47
386,26.06
387,-0.5764743554853147
388,0.0
425,0.0
450,0.0
451,0.0
452,-2.6783098017060296
453,0.0
490,0.0
515,0.0
516,0.0
542,0.0
592,4834380.142897332
632,3416280.110820456
686,1.0
687,1.0
688,2.0
2,21, 1,21, 0, 8,10.00,20.00,Monday
250,24.427879780505968
251,8765152.209636144
336,0.0
385,24.47
386,26.06
387,-0.6389176845349052
388,0.0
425,0.0
450,0.0
451,0.0
452,-2.82435949232515
453,0.0
490,0.0
515,0.0
516,0.0
542,0.0
592,4839846.964497664
632,3783779.789576759
686,1.0
687,1.0
688,2.0
2,21, 1,21, 0, 8,20.00,30.00,Monday
250,23.330832632205755
251,6553476.838012905
336,0.0
385,23.136666666666684
386,26.06000000000002
387,-0.6770080109212575
388,0.0
425,0.0
450,0.0
451,0.0
452,-2.822136901031829
453,0.0
490,0.0
515,0.0
516,0.0
542,0.0
592,2731901.733412562
632,3737799.763923496
686,0.587577469235175
687,0.5000000000000004
688,1.1666666666666674
2,21, 1,21, 0, 8,30.00,40.00,Monday
250,23.772391545323323
251,6390648.827272741
336,0.0
385,23.803333333333352
386,26.060000000000016
387,-0.7059246494320282
388,0.0
425,0.0
450,0.0
451,0.0
452,-2.7238201739419052
453,0.0
490,0.0
515,0.0
516,0.0
542,0.0
592,3605161.993802152
632,2702314.7428805334
686,0.7710405730898146
687,0.6666666666666672
688,1.6666666666666679
2,21, 1,21, 0, 8,40.00,50.00,Monday
250,24.01266258847457
251,7476794.884892356
336,0.0
385,24.47
386,26.06
387,-0.7248936406247812
388,0.0
425,0.0
450,0.0
451,0.0
452,-2.4888893739231683
453,0.0
490,0.0
515,0.0
516,0.0
542,0.0
592,4876578.193451941
632,3133242.076225177
686,1.0
687,1.0
688,2.0
2,21, 1,21, 0, 8,50.00,60.00,Monday
250,24.426813616400466
251,8480895.782752715
336,0.0
385,24.47
386,26.06
387,-0.7226562700843522
388,0.0
425,0.0
450,0.0
451,0.0
452,-2.1740144676488864
453,0.0
490,0.0
515,0.0
516,0.0
542,0.0
592,4881868.245072941
632,3459949.760688138
686,1.0
687,1.0
688,2.0
2,21, 1,21, 0, 9, 0.00,10.00,Monday
250,23.363525668213924
251,5934993.095414537
336,0.0
385,23.136666666666667
386,26.06
387,-0.696398517977776
388,0.0
425,0.0
450,0.0
451,0.0
452,-1.7952298706519652
453,0.0
490,0.0
515,0.0
516,0.0
542,0.0
592,2650061.1191563024
632,3190347.8575155213
686,0.5565492497195813
687,0.5
688,1.1666666666666667
2,21, 1,21, 0, 9,10.00,20.00,Monday
250,23.76130755564952
251,5695556.193900183
336,0.0
385,23.803333333333335
386,26.059999999999995
387,-0.6508241991114654
388,0.0
425,0.0
450,0.0
451,0.0
452,-1.314422132993343
453,0.0
490,0.0
515,0.0
516,0.0
542,0.0
592,3450533.807191821
632,2214281.612197958
686,0.7155117328366563
687,0.6666666666666667
688,1.6666666666666667
2,21, 1,21, 0, 9,20.00,30.00,Monday
250,23.792998182574685
251,7049811.787631098
336,0.0
385,23.80333333333332
386,26.059999999999988
387,-0.5703510008724891
388,0.0
425,0.0
450,0.0
451,0.0
452,-0.6099304450618942
453,0.0
490,0.0
515,0.0
516,0.0
542,0.0
592,3028695.8019243823
632,3888124.2127715535
686,0.7234337210251088
687,0.3333333333333332
688,1.3333333333333328
2,21, 1,21, 0, 9,30.00,40.00,Monday
250,23.794035349142828
251,7010549.458303559
336,0.0
385,23.80333333333334
386,26.06000000000001
387,-0.4826767220748095
388,0.0
425,0.0
450,0.0
451,0.0
452,0.0371077062786746
453,0.0
490,0.0
515,0.0
516,0.0
542,0.0
592,3045902.306293639
632,3827553.4391490016
686,0.7250792594006571
687,0.3333333333333332
688,1.3333333333333335
2,21, 1,21, 0, 9,40.00,50.00,Monday
250,23.793631677738396
251,6985708.935683151
336,0.0
385,23.803333333333352
386,26.060000000000016
387,-0.4017573657483488
388,0.0
425,0.0
450,0.0
451,0.0
452,0.6510273379542284
453,0.0
490,0.0
515,0.0
516,0.0
542,0.0
592,3036366.6683900477
632,3814979.771343765
686,0.7192101585291987
687,0.3333333333333336
688,1.3333333333333344
2,21, 1,21, 0, 9,50.00,60.00,Monday
250,24.40399724982879
251,7675402.968006847
336,0.0
385,24.47
386,26.06
387,-0.33002015576461274
388,0.0
425,0.0
450,0.0
451,0.0
452,1.1568831383167089
453,0.0
490,0.0
515,0.0
516,0.0
542,0.0
592,4987886.41021877
632,2605529.6713145347
686,1.0
687,1.0
688,2.0
2,21, 1,21, 0,10, 0.00,10.00,Monday
250,23.375563829511048
251,5688081.233010283
336,0.0
385,23.136666666666667
386,26.06
387,-0.2576645078632411
388,0.0
425,0.0
450,0.0
451,0.0
452,1.619291570455728
453,0.0
490,0.0
515,0.0
516,0.0
542,0.0
592,2668722.2914521056
632,2921193.1174147096
686,0.5434550499636751
687,0.5
688,1.1666666666666667
2,21, 1,21, 0,10,10.00,20.00,Monday
250,23.756001423053554
251,5375777.745286845
336,0.0
385,23.803333333333335
386,26.059999999999995
387,-0.1709406275352099
388,0.0
425,0.0
450,0.0
451,0.0
452,2.127118046169144
453,0.0
490,0.0
515,0.0
516,0.0
542,0.0
592,3459312.184755692
632,1909774.8964888176
686,0.6912802785318723
687,0.6666666666666667
688,1.6666666666666667
2,21, 1,21, 0,10,20.00,30.00,Monday
250,23.786697407330067
251,6726181.310832976
336,0.0
385,23.80333333333332
386,26.059999999999988
387,-0.035280831322077946
388,0.0
425,0.0
450,0.0
451,0.0
452,2.8151934277542514
453,0.0
490,0.0
515,0.0
516,0.0
542,0.0
592,2876802.5244833766
632,3751734.693317351
686,0.6558177935559678
687,0.3333333333333332
688,1.3333333333333328
2,21, 1,21, 0,10,30.00,40.00,Monday
250,23.78682260038272
251,6638181.854096071
336,0.0
385,23.80333333333334
386,26.06000000000001
387,0.09692096999142032
388,0.0
425,0.0
450,0.0
451,0.0
452,3.4445248789967913
453,0.0
490,0.0
515,0.0
516,0.0
542,0.0
592,2869705.2038814262
632,3671958.396212
686,0.6487789490672972
687,0.3333333333333332
688,1.3333333333333335
2,21, 1,21, 0,10,40.00,50.00,Monday
250,23.784944014846097
251,6529058.83547982
336,0.0
385,23.803333333333352
386,26.060000000000016
387,0.23819351666800878
388,0.0
425,0.0
450,0.0
451,0.0
452,4.12016489946906
453,0.0
490,0.0
515,0.0
516,0.0
542,0.0
592,2813543.17103508
632,3629941.731809391
686,0.6286054008540098
687,0.3333333333333336
688,1.3333333333333344
2,21, 1,21, 0,10,50.00,60.00,Monday
250,23.78298200409714
251,6418121.103845992
336,0.0
385,23.803333333333352
386,26.060000000000016
387,0.39712253403435543
388,0.0
425,0.0
450,0.0
451,0.0
452,4.876494327275203
453,0.0
490,0.0
515,0.0
516,0.0
542,0.0
592,2754544.6723776804
632,3589283.6675309474
686,0.6079317862238177
687,0.3333333333333336
688,1.3333333333333344
2,21, 1,21, 0,11, 0.00,10.00,Monday
250,23.78106528806368
251,6308586.914670766
336,0.0
385,23.803333333333335
386,26.06
387,0.5677086639869243
388,0.0
425,0.0
450,0.0
451,0.0
452,5.696984472775286
453,0.0
490,0.0
515,0.0
516,0.0
542,0.0
592,2691124.2166579957
632,3554062.054665829
686,0.588379623424343
687,0.3333333333333333
688,1.3333333333333335
2,21, 1,21, 0,11,10.00,20.00,Monday
250,23.779120329669457
251,6196413.212444826
336,0.0
385,23.803333333333335
386,26.059999999999995
387,0.7495535639017725
388,0.0
425,0.0
450,0.0
451,0.0
452,6.562748246691214
453,0.0
490,0.0
515,0.0
516,0.0
542,0.0
592,2626452.0528829223
632,3517572.7546523195
686,0.5686336870369249
687,0.33333333333333337
688,1.3333333333333333
2,21, 1,21, 0,11,20.00,30.00,Monday
250,23.585224604560477
251,5330100.854964496
336,0.0
385,23.47
386,26.06
387,0.9001025147780376
388,0.0
425,0.0
450,0.0
451,0.0
452,7.335433796123036
453,0.0
490,0.0
515,0.0
516,0.0
542,0.0
592,3890511.166118275
632,1279603.4933011956
686,0.75
687,0.7209283895995349
688,1.5
2,21, 1,21, 0,11,30.00,40.00,Monday
250,23.537253318500667
251,5884416.743621586
336,0.0
385,23.47
386,26.06
387,1.1330878939650864
388,0.0
425,0.0
450,0.0
451,0.0
452,8.358734060841087
453,0.0
490,0.0
515,0.0
516,0.0
542,0.0
592,3082195.200053511
632,2716945.902203123
686,0.6189273643464468
687,0.5
688,1.25
2,21, 1,21, 0,11,40.00,50.00,Monday
250,23.54069678657656
251,5710621.142425571
336,0.0
385,23.47
386,26.06
387,1.3618377192461701
388,0.0
425,0.0
450,0.0
451,0.0
452,9.230516941839271
453,0.0
490,0.0
515,0.0
516,0.0
542,0.0
592,3090948.6902280506
632,2538422.019926409
686,0.6183806752943661
687,0.5
688,1.25
2,21, 1,21, 0,11,50.00,60.00,Monday
250,23.805493668383225
251,4509244.004324598
336,0.0
385,23.803333333333352
386,26.060000000000016
387,1.5390928510036481
388,0.0
425,0.0
450,0.0
451,0.0
452,9.878947091372043
453,0.0
490,0.0
515,0.0
516,0.0
542,0.0
592,3403341.4388509793
632,1100439.2261090428
686,0.6666666666666672
687,0.5795833317371335
688,1.3333333333333344
2,21, 1,21, 0,12, 0.00,10.00,Monday
250,23.434812213791975
251,4574655.662634874
336,0.0
385,23.27
386,26.06
387,1.7165411772742352
388,0.0
425,0.0
450,0.0
451,0.0
452,10.444230368228592
453,0.0
490,0.0
515,0.0
516,0.0
542,0.0
592,2370053.8018455096
632,2252871.5925762383
686,0.4643962638553594
687,0.4
688,1.0
2,21, 1,21, 0,12,10.00,20.00,Monday
250,23.73200182119129
251,6167342.011712557
336,0.0
385,23.80333333333333
386,26.059999999999995
387,1.9043359643335604
388,0.0
425,0.0
450,0.0
451,0.0
452,10.936275128335717
453,0.0
490,0.0
515,0.0
516,0.0
542,0.0
592,3579057.3550449237
632,2655973.1315179253
686,0.805672077576663
687,0.33333333333333337
688,1.3333333333333333
2,21, 1,21, 0,12,20.00,30.00,Monday
250,23.862269634275435
251,4526675.856465105
336,0.0
385,23.80333333333332
386,26.059999999999988
387,2.1590426088843073
388,0.0
425,0.0
450,0.0
451,0.0
452,11.433314643225259
453,0.0
490,0.0
515,0.0
516,0.0
542,0.0
592,3547445.3555280203
632,936829.1346541871
686,0.6666666666666664
687,0.6666666666666664
688,1.3333333333333328
2,21, 1,21, 0,12,30.00,40.00,Monday
250,23.45767764485613
251,4394902.8702872805
336,0.0
385,23.269999999999992
386,26.05999999999999
387,2.3041737596962015
388,0.0
425,0.0
450,0.0
451,0.0
452,11.644369111523906
453,0.0
490,0.0
515,0.0
516,0.0
542,0.0
592,2323682.2423348906
632,2114127.2911806926
686,0.44974399339401866
687,0.3999999999999997
688,0.9999999999999993
2,21, 1,21, 0,12,40.00,50.00,Monday
250,23.73069664610145
251,6006017.16168719
336,0.0
385,23.803333333333352
386,26.060000000000016
387,2.440894245430641
388,0.0
425,0.0
450,0.0
451,0.0
452,11.743616469932668
453,0.0
490,0.0
515,0.0
516,0.0
542,0.0
592,3476345.603163612
632,2605913.351251956
686,0.7750430578347778
687,0.3333333333333336
688,1.3333333333333344
2,21, 1,21, 0,12,50.00,60.00,Monday
250,23.870441552462662
251,4446265.20715218
336,0.0
385,23.803333333333352
386,26.060000000000016
387,2.612653576721645
388,0.0
425,0.0
450,0.0
451,0.0
452,11.740905201891351
453,0.0
490,0.0
515,0.0
516,0.0
542,0.0
592,3562201.741799791
632,841851.0255086632
686,0.6666666666666672
687,0.6666666666666672
688,1.3333333333333344
2,21, 1,21, 0,13, 0.00,10.00,Monday
250,23.464236807495524
251,4329455.505665758
336,0.0
385,23.27
386,26.06
387,2.7038986279634027
388,0.0
425,0.0
450,0.0
451,0.0
452,11.649127243477185
453,0.0
490,0.0
515,0.0
516,0.0
542,0.0
592,2306618.3583034156
632,2064598.6574548187
686,0.4440594315859178
687,0.4
688,1.0
2,21, 1,21, 0,13,10.00,20.00,Monday
250,23.729581798566308
251,5879761.790443606
336,0.0
385,23.80333333333333
386,26.059999999999995
387,2.7889088295431037
388,0.0
425,0.0
450,0.0
451,0.0
452,11.557021461387128
453,0.0
490,0.0
515,0.0
516,0.0
542,0.0
592,3396412.2586174943
632,2566024.209620387
686,0.7542490226160423
687,0.33333333333333337
688,1.3333333333333333
2,21, 1,21, 0,13,20.00,30.00,Monday
250,23.88479448111555
251,4321097.914575031
336,0.0
385,23.80333333333332
386,26.059999999999988
387,2.898336945524482
388,0.0
425,0.0
450,0.0
451,0.0
452,11.469666301839398
453,0.0
490,0.0
515,0.0
516,0.0
542,0.0
592,3554691.3010860663
632,724381.1753056492
686,0.6666666666666664
687,0.6666666666666664
688,1.3333333333333328
2,21, 1,21, 0,13,30.00,40.00,Monday
250,23.481639963362085
251,4172111.84788489
336,0.0
385,23.269999999999992
386,26.05999999999999
387,2.9643393120252344
388,0.0
425,0.0
450,0.0
451,0.0
452,11.44239475957505
453,0.0
490,0.0
515,0.0
516,0.0
542,0.0
592,2213163.6469302783
632,2000116.0620297338
686,0.4323772374170768
687,0.37044885838864106
688,0.9999999999999993
2,21, 1,21, 0,13,40.00,50.00,Monday
250,23.727659384260907
251,5662815.555864241
336,0.0
385,23.803333333333352
386,26.060000000000016
387,3.032420246635328
388,0.0
425,0.0
450,0.0
451,0.0
452,11.426069324060718
453,0.0
490,0.0
515,0.0
516,0.0
542,0.0
592,3245409.7289664736
632,2512820.129257369
686,0.7167144174523964
687,0.3333333333333336
688,1.3333333333333344
2,21, 1,21, 0,13,50.00,60.00,Monday
250,23.902163271800585
251,4175552.481270534
336,0.0
385,23.803333333333352
386,26.060000000000016
387,3.1259367586259295
388,0.0
425,0.0
450,0.0
451,0.0
452,11.411546775843204
453,0.0
490,0.0
515,0.0
516,0.0
542,0.0
592,3547173.065614732
632,586612.5824544233
686,0.6666666666666672
687,0.6666666666666672
688,1.3333333333333344
2,21, 1,21, 0,14, 0.00,10.00,Monday
250,23.49888309161306
251,4030838.9562278646
336,0.0
385,23.27
386,26.06
387,3.1879979408918095
388,0.0
425,0.0
450,0.0
451,0.0
452,11.371119181243362
453,0.0
490,0.0
515,0.0
516,0.0
542,0.0
592,2074076.100915317
632,2000958.6093431492
686,0.42256875976342595
687,0.30077092948498535
688,1.0
2,21, 1,21, 0,14,10.00,20.00,Monday
250,23.725827171260704
251,5474024.701748577
336,0.0
385,23.80333333333333
386,26.059999999999995
387,3.2520591017597953
388,0.0
425,0.0
450,0.0
451,0.0
452,11.266958362175279
453,0.0
490,0.0
515,0.0
516,0.0
542,0.0
592,3121523.32784978
632,2460550.76949792
686,0.6810782571904068
687,0.33333333333333337
688,1.3333333333333333
2,21, 1,21, 0,14,20.00,30.00,Monday
250,23.452004996228062
251,5147077.394805185
336,0.0
385,23.47
386,26.06
387,3.313156879789944
388,0.0
425,0.0
450,0.0
451,0.0
452,11.098476573726147
453,0.0
490,0.0
515,0.0
516,0.0
542,0.0
592,3167872.821515459
632,2055234.483952813
686,0.6264048320570282
687,0.5
688,1.25
2,21, 1,21, 0,14,30.00,40.00,Monday
250,23.727180110452828
251,5504227.9972703885
336,0.0
385,23.803333333333352
386,26.060000000000016
387,3.365161925174694
388,0.0
425,0.0
450,0.0
451,0.0