Program Version,EnergyPlus, Version 24.2.0-94a887817b, YMD=2025.02.11 00:15
1,5,Environment Title[],Latitude[deg],Longitude[deg],Time Zone[],Elevation[m]
2,8,Day of Simulation[],Month[],Day of Month[],DST Indicator[1=yes 0=no],Hour[],StartMinute[],EndMinute[],DayType
3,5,Cumulative Day of Simulation[],Month[],Day of Month[],DST Indicator[1=yes 0=no],DayType  ! When Daily Meters Requested
4,2,Cumulative Days of Simulation[],Month[]  ! When Monthly Meters Requested
5,1,Cumulative Days of Simulation[] ! When Run Period Meters Requested
6,1,Calendar Year of Simulation[] ! When Annual Meters Requested
11,9,Electricity:Facility [J] !Monthly [Value,Min,Day,Hour,Minute,Max,Day,Hour,Minute]
23,9,Electricity:Building [J] !Monthly [Value,Min,Day,Hour,Minute,Max,Day,Hour,Minute]
59,9,InteriorLights:Electricity [J] !Monthly [Value,Min,Day,Hour,Minute,Max,Day,Hour,Minute]
521,9,Electricity:HVAC [J] !Monthly [Value,Min,Day,Hour,Minute,Max,Day,Hour,Minute]
637,9,NaturalGas:Facility [J] !Monthly [Value,Min,Day,Hour,Minute,Max,Day,Hour,Minute]
649,9,NaturalGas:HVAC [J] !Monthly [Value,Min,Day,Hour,Minute,Max,Day,Hour,Minute]
13,11,Electricity:Facility [J] !RunPeriod [Value,Min,Month,Day,Hour,Minute,Max,Month,Day,Hour,Minute]
25,11,Electricity:Building [J] !RunPeriod [Value,Min,Month,Day,Hour,Minute,Max,Month,Day,Hour,Minute]
61,11,InteriorLights:Electricity [J] !RunPeriod [Value,Min,Month,Day,Hour,Minute,Max,Month,Day,Hour,Minute]
523,11,Electricity:HVAC [J] !RunPeriod [Value,Min,Month,Day,Hour,Minute,Max,Month,Day,Hour,Minute]
639,11,NaturalGas:Facility [J] !RunPeriod [Value,Min,Month,Day,Hour,Minute,Max,Month,Day,Hour,Minute]
651,11,NaturalGas:HVAC [J] !RunPeriod [Value,Min,Month,Day,Hour,Minute,Max,Month,Day,Hour,Minute]
End of Data Dictionary
1,RUN PERIOD 1,  41.98, -87.92,  -6.00, 201.00
4,31, 1
11,9213674558.213827,341438.0426515004,11,20,10,3498197.716616185,23,14,10
23,1831537479.8109617,107306.36572615166,11,20,50,1006669.6898981542,30,13,60
59,874422855.4878013,27038.43090562274, 1, 1,10,540768.6181124548, 1, 8,10
521,7382137078.40291,0.0,11,13,40,2578343.3771823416,27,19,50
637,16766052744.573812,0.0, 1,10,60,20835998.799580857,31, 7,60
649,16766052744.573812,0.0, 1,10,60,20835998.799580857,31, 7,60
4,59, 2
11,7642386058.611812,260477.48660590348, 9,15,50,-99999999999999.0,23,14,10
23,1616035000.2623289,99999999999999.0,11,20,50,-99999999999999.0,30,13,60
59,764430518.5637366,99999999999999.0, 1, 1,10,-99999999999999.0, 1, 8,10
521,6026351058.34949,99999999999999.0,11,13,40,2616155.20760285, 5, 1,60
637,13686538212.26498,99999999999999.0, 1,10,60,21403416.484554805, 3, 8,20
649,13686538212.26498,99999999999999.0, 1,10,60,21403416.484554805, 3, 8,20
4,90, 3
11,7592924293.891133,95783.12771358625,31,16,40,-99999999999999.0,23,14,10
23,1704313919.6455786,93319.72607061868,31,16,50,1015831.2821005448,18, 9,60
59,808881698.9725646,99999999999999.0, 1, 1,10,-99999999999999.0, 1, 8,10
521,5888610374.245557,99999999999999.0,11,13,40,-99999999999999.0, 5, 1,60
637,10249111826.587856,99999999999999.0, 1,10,60,-99999999999999.0, 3, 8,20
649,10249111826.587856,99999999999999.0, 1,10,60,-99999999999999.0, 3, 8,20
4,120, 4
11,4518454405.441093,27038.43090562274,12,19,10,-99999999999999.0,23,14,10
23,1634430479.1524231,27038.43090562274,11,19,10,-99999999999999.0,18, 9,60
59,837758743.1797653,99999999999999.0, 1, 1,10,-99999999999999.0, 1, 8,10
521,2884023926.2886744,99999999999999.0,11,13,40,-99999999999999.0, 5, 1,60
637,4237341601.9441786,99999999999999.0, 1,10,60,-99999999999999.0, 3, 8,20
649,4237341601.9441786,99999999999999.0, 1,10,60,-99999999999999.0, 3, 8,20
4,151, 5
11,3267630875.6215725,99999999999999.0,12,19,10,-99999999999999.0,23,14,10
23,1609628977.9902327,99999999999999.0,11,19,10,-99999999999999.0,18, 9,60
59,874422855.4878054,99999999999999.0, 1, 1,10,-99999999999999.0, 1, 8,10
521,1658001897.631309,99999999999999.0,11,13,40,-99999999999999.0, 5, 1,60
637,1086130140.1796865,99999999999999.0, 1,10,60,-99999999999999.0, 3, 8,20
649,1086130140.1796865,99999999999999.0, 1,10,60,-99999999999999.0, 3, 8,20
4,181, 6
11,3012052928.520461,99999999999999.0,12,19,10,-99999999999999.0,23,14,10
23,1355872167.1931136,99999999999999.0,11,19,10,-99999999999999.0,18, 9,60
59,772217586.6645429,99999999999999.0, 1, 1,10,-99999999999999.0, 1, 8,10
521,1656180761.3272965,99999999999999.0,11,13,40,-99999999999999.0, 5, 1,60
637,68406687.45415935,99999999999999.0, 1,10,60,-99999999999999.0, 3, 8,20
649,68406687.45415935,99999999999999.0, 1,10,60,-99999999999999.0, 3, 8,20
4,212, 7
11,3806737689.7002864,99999999999999.0,12,19,10,-99999999999999.0,23,14,10
23,1451848306.97367,99999999999999.0,11,19,10,-99999999999999.0,18, 9,60
59,874422855.4877862,99999999999999.0, 1, 1,10,-99999999999999.0, 1, 8,10
521,2354889382.726544,99999999999999.0,11,13,40,-99999999999999.0, 5, 1,60
637,3352416.651661479,99999999999999.0, 1,10,60,-99999999999999.0, 3, 8,20
649,3352416.651661479,99999999999999.0, 1,10,60,-99999999999999.0, 3, 8,20
4,243, 8
11,3364259216.2713346,99999999999999.0,12,19,10,-99999999999999.0,23,14,10
23,1430033211.5513828,99999999999999.0,11,19,10,-99999999999999.0,18, 9,60
59,841652277.2301848,99999999999999.0, 1, 1,10,-99999999999999.0, 1, 8,10
521,1934226004.7199051,99999999999999.0,11,13,40,-99999999999999.0, 5, 1,60
637,17103839.38397256,99999999999999.0, 1,10,60,-99999999999999.0, 3, 8,20
649,17103839.38397256,99999999999999.0, 1,10,60,-99999999999999.0, 3, 8,20
4,273, 9
11,2756347586.496264,99999999999999.0,12,19,10,-99999999999999.0,23,14,10
23,1432307349.0687985,99999999999999.0,11,19,10,-99999999999999.0,18, 9,60
59,804988164.9221551,99999999999999.0, 1, 1,10,-99999999999999.0, 1, 8,10
521,1324040237.4274542,99999999999999.0,11,13,40,-99999999999999.0, 5, 1,60
637,88511918.83238044,99999999999999.0, 1,10,60,-99999999999999.0, 3, 8,20
649,88511918.83238044,99999999999999.0, 1,10,60,-99999999999999.0, 3, 8,20
4,304,10
11,3578955005.793675,99999999999999.0,12,19,10,-99999999999999.0,23,14,10
23,1660368328.6134164,99999999999999.0,11,19,10,-99999999999999.0,18, 9,60
59,874422855.4878013,99999999999999.0, 1, 1,10,-99999999999999.0, 1, 8,10
521,1918586677.1802647,99999999999999.0,11,13,40,-99999999999999.0, 5, 1,60
637,2320810989.4741282,99999999999999.0, 1,10,60,-99999999999999.0, 3, 8,20
649,2320810989.4741282,99999999999999.0, 1,10,60,-99999999999999.0, 3, 8,20
4,334,11
11,6301748457.479802,99999999999999.0,12,19,10,-99999999999999.0,23,14,10
23,1641012335.2619736,99999999999999.0,11,19,10,-99999999999999.0,18, 9,60
59,804988164.922161,99999999999999.0, 1, 1,10,-99999999999999.0, 1, 8,10
521,4660736122.217847,99999999999999.0,11,13,40,-99999999999999.0, 5, 1,60
637,8608135833.130013,99999999999999.0, 1,10,60,-99999999999999.0, 3, 8,20
649,8608135833.130013,99999999999999.0, 1,10,60,-99999999999999.0, 3, 8,20
4,365,12
11,8029574761.1894,99999999999999.0,12,19,10,3512907.730267419,18,11,60
23,1731098831.2292993,99999999999999.0,11,19,10,-99999999999999.0,18, 9,60
59,841652277.230176,99999999999999.0, 1, 1,10,-99999999999999.0, 1, 8,10
521,6298475929.960122,99999999999999.0,11,13,40,-99999999999999.0, 5, 1,60
637,10454000736.695108,99999999999999.0, 1,10,60,-99999999999999.0, 3, 8,20
649,10454000736.695108,99999999999999.0, 1,10,60,-99999999999999.0, 3, 8,20
5,365
13,63084745837.23217,27038.43090562274, 4,12,19,10,3512907.730267419,12,18,11,60
25,19098486386.75423,27038.43090562274, 4,11,19,10,1015831.2821005448, 3,18, 9,60
61,9974260853.638573,27038.43090562274, 1, 1, 1,10,540768.6181124548, 1, 1, 8,10
523,43986259450.47753,0.0, 1,11,13,40,2616155.20760285, 2, 5, 1,60
639,67585496947.17232,0.0, 1, 1,10,60,21403416.484554805, 2, 3, 8,20
651,67585496947.17232,0.0, 1, 1,10,60,21403416.484554805, 2, 3, 8,20
1,RUN PERIOD 2,  41.98, -87.92,  -6.00, 201.00
4,1, 7
11,112819300.71752775,99999999999999.0,12,19,10,-99999999999999.0,18,11,60
23,61082853.635368854,99999999999999.0,11,19,10,-99999999999999.0,18, 9,60
59,36664112.30802457,99999999999999.0, 1, 1,10,-99999999999999.0, 1, 8,10
521,51736447.0821589,99999999999999.0,11,13,40,-99999999999999.0, 5, 1,60
637,0.0,99999999999999.0, 1,10,60,-99999999999999.0, 3, 8,20
649,0.0,99999999999999.0, 1,10,60,-99999999999999.0, 3, 8,20
5,1
13,112819300.71752775,99999999999999.0, 4,12,19,10,-99999999999999.0,12,18,11,60
25,61082853.635368854,99999999999999.0, 4,11,19,10,-99999999999999.0, 3,18, 9,60
61,36664112.30802457,99999999999999.0, 1, 1, 1,10,-99999999999999.0, 1, 1, 8,10
523,51736447.0821589,99999999999999.0, 1,11,13,40,-99999999999999.0, 2, 5, 1,60
639,0.0,99999999999999.0, 1, 1,10,60,-99999999999999.0, 2, 3, 8,20
651,0.0,99999999999999.0, 1, 1,10,60,-99999999999999.0, 2, 3, 8,20
End of Data
 Number of Records Written=          90
