Program Version,EnergyPlus, Version 24.2.0-94a887817b, YMD=2025.02.04 15:52
1,5,Environment Title[],Latitude[deg],Longitude[deg],Time Zone[],Elevation[m]
2,8,Day of Simulation[],Month[],Day of Month[],DST Indicator[1=yes 0=no],Hour[],StartMinute[],EndMinute[],DayType
3,5,Cumulative Day of Simulation[],Month[],Day of Month[],DST Indicator[1=yes 0=no],DayType  ! When Daily Report Variables Requested
4,2,Cumulative Days of Simulation[],Month[]  ! When Monthly Report Variables Requested
5,1,Cumulative Days of Simulation[] ! When Run Period Report Variables Requested
6,1,Calendar Year of Simulation[] ! When Annual Report Variables Requested
250,1,LIVING ZONE,Zone Air Temperature [C] !TimeStep,REPORTSCH
251,1,LIVING ZONE,Zone Air System Sensible Heating Energy [J] !TimeStep,REPORTSCH
336,1,LIVING ZONE,Zone Air System Sensible Cooling Energy [J] !TimeStep,REPORTSCH
385,1,LIVING ZONE,Zone Thermostat Heating Setpoint Temperature [C] !TimeStep,REPORTSCH
386,1,LIVING ZONE,Zone Thermostat Cooling Setpoint Temperature [C] !TimeStep,REPORTSCH
387,1,GARAGE ZONE,Zone Air Temperature [C] !TimeStep,REPORTSCH
388,1,GARAGE ZONE,Zone Air System Sensible Heating Energy [J] !TimeStep,REPORTSCH
425,1,GARAGE ZONE,Zone Air System Sensible Cooling Energy [J] !TimeStep,REPORTSCH
450,1,GARAGE ZONE,Zone Thermostat Heating Setpoint Temperature [C] !TimeStep,REPORTSCH
451,1,GARAGE ZONE,Zone Thermostat Cooling Setpoint Temperature [C] !TimeStep,REPORTSCH
452,1,ATTIC ZONE,Zone Air Temperature [C] !TimeStep,REPORTSCH
453,1,ATTIC ZONE,Zone Air System Sensible Heating Energy [J] !TimeStep,REPORTSCH
490,1,ATTIC ZONE,Zone Air System Sensible Cooling Energy [J] !TimeStep,REPORTSCH
515,1,ATTIC ZONE,Zone Thermostat Heating Setpoint Temperature [C] !TimeStep,REPORTSCH
516,1,ATTIC ZONE,Zone Thermostat Cooling Setpoint Temperature [C] !TimeStep,REPORTSCH
542,1,ACDXCOIL 1,Cooling Coil Total Cooling Energy [J] !TimeStep,REPORTSCH
592,1,HEAT PUMP DX HEATING COIL 1,Heating Coil Heating Energy [J] !TimeStep,REPORTSCH
632,1,SUPP HEATING COIL 1,Heating Coil Heating Energy [J] !TimeStep,REPORTSCH
686,1,TWOSPEED HEAT PUMP 1,Unitary System DX Coil Cycling Ratio [] !TimeStep,REPORTSCH
687,1,TWOSPEED HEAT PUMP 1,Unitary System DX Coil Speed Ratio [] !TimeStep,REPORTSCH
688,1,TWOSPEED HEAT PUMP 1,Unitary System DX Coil Speed Level [] !TimeStep,REPORTSCH
End of Data Dictionary
1,RUN PERIOD 1,  41.98, -87.92,  -6.00, 201.00
2,21, 1,21, 0, 1, 0.00,10.00,Monday
250,27.06497235002274
251,0.0
336,6150493.407095355
385,19.96
386,25.45
387,0.7478224968739886
388,0.0
425,0.0
450,0.0
451,0.0
452,-1.666427467932746
453,0.0
490,0.0
515,0.0
516,0.0
542,7039742.968213129
592,0.0
632,0.0
686,0.7752892395407137
687,0.7
688,1.4999999999999998
2,21, 1,21, 0, 1,10.00,20.00,Monday
250,25.29999088160341
251,0.0
336,4710387.498332929
385,19.96
386,24.85
387,0.721966928172159
388,0.0
425,0.0
450,0.0
451,0.0
452,-1.6554590899120827
453,0.0
490,0.0
515,0.0
516,0.0
542,7234755.659522567
592,0.0
632,0.0
686,0.8884338627926418
687,0.33333333333333337
688,1.3333333333333333
2,21, 1,21, 0, 1,20.00,30.00,Monday
250,28.59944767708427
251,0.0
336,3829570.297275518
385,19.960000000000015
386,25.516666666666687
387,0.699403576809989
388,0.0
425,0.0
450,0.0
451,0.0
452,-1.643037269369227
453,0.0
490,0.0
515,0.0
516,0.0
542,9001617.044201238
592,0.0
632,0.0
686,0.8333333333333339
687,0.8333333333333339
688,1.6666666666666679
2,21, 1,21, 0, 1,30.00,40.00,Monday
250,26.653844116993945
251,0.0
336,2763055.916761156
385,19.960000000000015
386,24.850000000000023
387,0.67909768571362
388,0.0
425,0.0
450,0.0
451,0.0
452,-1.6268740018080714
453,0.0
490,0.0
515,0.0
516,0.0
542,10801940.453041483
592,0.0
632,0.0
686,1.0000000000000009
687,1.0000000000000009
688,2.0000000000000018
2,21, 1,21, 0, 1,40.00,50.00,Monday
250,29.071127626004287
251,0.0
336,3449227.4609292713
385,19.96
386,24.85
387,0.6620551429679188
388,0.0
425,0.0
450,0.0
451,0.0
452,-1.606996030526413
453,0.0
490,0.0
515,0.0
516,0.0
542,10801940.45304148
592,0.0
632,0.0
686,1.0
687,1.0
688,2.0
2,21, 1,21, 0, 1,50.00,60.00,Monday
250,27.627999381175297
251,0.0
336,2221471.2068866417
385,19.96
386,24.85
387,0.6414189194288933
388,0.0
425,0.0
450,0.0
451,0.0
452,-1.577618177279482
453,0.0
490,0.0
515,0.0
516,0.0
542,10801940.45304148
592,0.0
632,0.0
686,1.0
687,1.0
688,2.0
2,21, 1,21, 0, 2, 0.00,10.00,Monday
250,29.675504102057857
251,0.0
336,3223345.729772161
385,19.96
386,24.85
387,0.6294522040886349
388,0.0
425,0.0
450,0.0
451,0.0
452,-1.5553696092458882
453,0.0
490,0.0
515,0.0
516,0.0
542,10801940.45304148
592,0.0
632,0.0
686,1.0
687,1.0
688,2.0
2,21, 1,21, 0, 2,10.00,20.00,Monday
250,27.323660748093566
251,0.0
336,2182746.232369497
385,19.96
386,24.85
387,0.6189207321612544
388,0.0
425,0.0
450,0.0
451,0.0
452,-1.5355433552998257
453,0.0
490,0.0
515,0.0
516,0.0
542,10801940.453041483
592,0.0
632,0.0
686,1.0
687,1.0
688,2.0
2,21, 1,21, 0, 2,20.00,30.00,Monday
250,29.93295632929685
251,0.0
336,3420721.772744147
385,19.96
386,24.85
387,0.6077857136209198
388,0.0
425,0.0
450,0.0
451,0.0
452,-1.5182268827823457
453,0.0
490,0.0
515,0.0
516,0.0
542,10801940.453041485
592,0.0
632,0.0
686,1.0
687,1.0
688,2.0
2,21, 1,21, 0, 2,30.00,40.00,Monday
250,26.97395585757527
251,0.0
336,2238047.783961712
385,19.959999999999987
386,24.849999999999987
387,0.596149102928161
388,0.0
425,0.0
450,0.0
451,0.0
452,-1.5048662488227258
453,0.0
490,0.0
515,0.0
516,0.0
542,10801940.453041486
592,0.0
632,0.0
686,0.9999999999999992
687,0.9999999999999992
688,1.9999999999999984
2,21, 1,21, 0, 2,40.00,50.00,Monday
250,29.54642577066342
251,0.0
336,3788512.134575243
385,19.959999999999972
386,24.84999999999997
387,0.579078247348992
388,0.0
425,0.0
450,0.0
451,0.0
452,-1.4912314725531108
453,0.0
490,0.0
515,0.0
516,0.0
542,10801940.453041488
592,0.0
632,0.0
686,0.9999999999999986
687,0.9999999999999986
688,1.9999999999999971
2,21, 1,21, 0, 2,50.00,60.00,Monday
250,27.47177161520358
251,0.0
336,2435462.072532653
385,19.959999999999972
386,24.84999999999997
387,0.5636733200900749
388,0.0
425,0.0
450,0.0
451,0.0
452,-1.4858320727480496
453,0.0
490,0.0
515,0.0
516,0.0
542,10801940.453041483
592,0.0
632,0.0
686,0.9999999999999986
687,0.9999999999999986
688,1.9999999999999971
2,21, 1,21, 0, 3, 0.00,10.00,Monday
250,29.60296072368104
251,0.0
336,3791156.439236188
385,19.96
386,24.85
387,0.5487728054705248
388,0.0
425,0.0
450,0.0
451,0.0
452,-1.4827372326312642
453,0.0
490,0.0
515,0.0
516,0.0
542,10801940.453041486
592,0.0
632,0.0
686,1.0
687,1.0
688,2.0
2,21, 1,21, 0, 3,10.00,20.00,Monday
250,27.558736707201195
251,0.0
336,2443609.227429053
385,19.959999999999997
386,24.85
387,0.5342649466225473
388,0.0
425,0.0
450,0.0
451,0.0
452,-1.4764690929209185
453,0.0
490,0.0
515,0.0
516,0.0
542,10801940.453041486
592,0.0
632,0.0
686,1.0
687,1.0
688,2.0
2,21, 1,21, 0, 3,20.00,30.00,Monday
250,29.587300583030064
251,0.0
336,3734211.8031495726
385,19.960000000000015
386,24.85000000000002
387,0.5201496927669682
388,0.0
425,0.0
450,0.0
451,0.0
452,-1.464505840895395
453,0.0
490,0.0
515,0.0
516,0.0
542,10801940.453041486
592,0.0
632,0.0
686,1.0000000000000007
687,1.0000000000000007
688,2.0000000000000013
2,21, 1,21, 0, 3,30.00,40.00,Monday
250,27.720367953141697
251,0.0
336,2440121.053856179
385,19.959999999999987
386,24.849999999999987
387,0.5065026531749528
388,0.0
425,0.0
450,0.0
451,0.0
452,-1.4476838424202505
453,0.0
490,0.0
515,0.0
516,0.0
542,10801940.45304149
592,0.0
632,0.0
686,0.9999999999999992
687,0.9999999999999992
688,1.9999999999999984
2,21, 1,21, 0, 3,40.00,50.00,Monday
250,30.782788826591645
251,0.0
336,3563144.503752548
385,19.96
386,24.85
387,0.4964205058585909
388,0.0
425,0.0
450,0.0
451,0.0
452,-1.431327607156157
453,0.0
490,0.0
515,0.0
516,0.0
542,10801940.453041483
592,0.0
632,0.0
686,1.0
687,1.0
688,2.0
2,21, 1,21, 0, 3,50.00,60.00,Monday
250,26.885264450482325
251,0.0
336,2108772.748197363
385,19.960000000000004
386,24.849999999999998
387,0.48610439630919605
388,0.0
425,0.0
450,0.0
451,0.0
452,-1.412413214444625
453,0.0
490,0.0
515,0.0
516,0.0
542,9993023.406335084
592,0.0
632,0.0
686,0.9426899466023181
687,0.875
688,1.875
2,21, 1,21, 0, 4, 0.00,10.00,Monday
250,30.561630713541025
251,0.0
336,3911709.5851992182
385,19.96
386,25.25
387,0.47268036128012236
388,0.0
425,0.0
450,0.0
451,0.0
452,-1.3922638859634073
453,0.0
490,0.0
515,0.0
516,0.0
542,10801940.453041483
592,0.0
632,0.0
686,1.0
687,1.0
688,2.0
2,21, 1,21, 0, 4,10.00,20.00,Monday
250,26.67765061473871
251,0.0
336,1984405.8384233932
385,19.959999999999994
386,24.849999999999994
387,0.45620818392960133
388,0.0
425,0.0
450,0.0
451,0.0
452,-1.374326221565529
453,0.0
490,0.0
515,0.0
516,0.0
542,9258806.102606986
592,0.0
632,0.0
686,0.8571428571428569
687,0.8571428571428569
688,1.7142857142857137
2,21, 1,21, 0, 4,20.00,30.00,Monday
250,30.37972144437842
251,0.0
336,3962254.665824038
385,19.96
386,25.25
387,0.43691153632286156
388,0.0
425,0.0
450,0.0
451,0.0
452,-1.3601581679626509
453,0.0
490,0.0
515,0.0
516,0.0
542,10801940.453041483
592,0.0
632,0.0
686,1.0
687,1.0
688,2.0
2,21, 1,21, 0, 4,30.00,40.00,Monday
250,26.68837766406058
251,0.0
336,2152722.8758543213
385,19.960000000000022
386,24.850000000000026
387,0.4157447739733077
388,0.0
425,0.0
450,0.0
451,0.0
452,-1.351634031161749
453,0.0
490,0.0
515,0.0
516,0.0
542,9781170.23724366
592,0.0
632,0.0
686,0.9224617821377298
687,0.8571428571428581
688,1.8571428571428592
2,21, 1,21, 0, 4,40.00,50.00,Monday
250,30.326285851269905
251,0.0
336,3946499.3554075677
385,19.96
386,25.25
387,0.39239309326571187
388,0.0
425,0.0
450,0.0
451,0.0
452,-1.348971635728207
453,0.0
490,0.0
515,0.0
516,0.0
542,10801940.453041483
592,0.0
632,0.0
686,1.0
687,1.0
688,2.0
2,21, 1,21, 0, 4,50.00,60.00,Monday
250,26.71011230066596
251,0.0
336,2237857.9955423335
385,19.96000000000003
386,24.850000000000037
387,0.36733962709466567
388,0.0
425,0.0
450,0.0
451,0.0
452,-1.3509243042655592
453,0.0
490,0.0
515,0.0
516,0.0
542,10103101.005298218
592,0.0
632,0.0
686,0.9627175544960739
687,0.8571428571428583
688,1.8571428571428596
2,21, 1,21, 0, 5, 0.00,10.00,Monday
250,30.409389436570184
251,0.0
336,3896487.93527507
385,19.96
386,25.183333333333337
387,0.34595954132081114
388,0.0
425,0.0
450,0.0
451,0.0
452,-1.3530536285579926
453,0.0
490,0.0
515,0.0
516,0.0
542,10801940.453041483
592,0.0
632,0.0
686,1.0
687,1.0
688,2.0
2,21, 1,21, 0, 5,10.00,20.00,Monday
250,26.774702638033244
251,0.0
336,2295983.442705208
385,19.959999999999994
386,24.849999999999994
387,0.3295780051049482
388,0.0
425,0.0
450,0.0
451,0.0
452,-1.3504707558934832
453,0.0
490,0.0
515,0.0
516,0.0
542,10373785.529928269
592,0.0
632,0.0
686,0.9965652499812928
687,0.8571428571428569
688,1.8571428571428565
2,21, 1,21, 0, 5,20.00,30.00,Monday
250,30.530268707339328
251,0.0
336,3908516.2981530568
385,19.960000000000015
386,25.18333333333335
387,0.3169477987692467
388,0.0
425,0.0
450,0.0
451,0.0
452,-1.3400811320212853
453,0.0
490,0.0
515,0.0
516,0.0
542,10801940.453041485
592,0.0
632,0.0
686,1.0000000000000007
687,1.0000000000000007
688,2.0000000000000013
2,21, 1,21, 0, 5,30.00,40.00,Monday
250,26.809690015795926
251,0.0
336,2264510.9023635774
385,19.960000000000022
386,24.850000000000026
387,0.3076616547635686
388,0.0
425,0.0
450,0.0
451,0.0
452,-1.3215371166366727
453,0.0
490,0.0
515,0.0
516,0.0
542,10294853.945379755
592,0.0
632,0.0
686,0.986695264833028
687,0.8571428571428581
688,1.8571428571428592
2,21, 1,21, 0, 5,40.00,50.00,Monday
250,30.633664084905416
251,0.0
336,3927050.3840547255
385,19.959999999999972
386,25.183333333333305
387,0.3010814839033421
388,0.0
425,0.0
450,0.0
451,0.0
452,-1.295757796323452
453,0.0
490,0.0
515,0.0
516,0.0
542,10801940.453041483
592,0.0
632,0.0
686,0.9999999999999986
687,0.9999999999999986
688,1.9999999999999971
2,21, 1,21, 0, 5,50.00,60.00,Monday
250,26.837389530771407
251,0.0
336,2235181.4931804887
385,19.96000000000003
386,24.850000000000037
387,0.2966898338631677
388,0.0
425,0.0
450,0.0
451,0.0
452,-1.2643456983596406
453,0.0
490,0.0
515,0.0
516,0.0
542,10210433.497085953
592,0.0
632,0.0
686,0.9761389257498112
687,0.8571428571428583
688,1.8571428571428596
2,21, 1,21, 0, 6, 0.00,10.00,Monday
250,30.677654420463682
251,0.0
336,3932780.734704069
385,19.96
386,25.183333333333337
387,0.28963479668604886
388,0.0
425,0.0
450,0.0
451,0.0
452,-1.234051174102843
453,0.0
490,0.0
515,0.0
516,0.0
542,10801940.45304148
592,0.0
632,0.0
686,1.0
687,1.0
688,2.0
2,21, 1,21, 0, 6,10.00,20.00,Monday
250,26.810838938332594
251,0.0
336,2147162.711566228
385,19.959999999999994
386,24.849999999999994
387,0.2786211688420975
388,0.0
425,0.0
450,0.0
451,0.0
452,-1.2132219506841662
453,0.0
490,0.0
515,0.0
516,0.0
542,9863634.890271565
592,0.0
632,0.0
686,0.932773559169673
687,0.8571428571428569
688,1.8571428571428565
2,21, 1,21, 0, 6,20.00,30.00,Monday
250,30.635031078989275
251,0.0
336,3936018.0225358168
385,19.960000000000015
386,25.18333333333335
387,0.26394024370740476
388,0.0
425,0.0
450,0.0
451,0.0
452,-1.204578607359752
453,0.0
490,0.0
515,0.0
516,0.0
542,10801940.45304148
592,0.0
632,0.0
686,1.0000000000000007
687,1.0000000000000007
688,2.0000000000000013
2,21, 1,21, 0, 6,30.00,40.00,Monday
250,26.80904017880999
251,0.0
336,2181442.996277099
385,19.960000000000022
386,24.850000000000026
387,0.24614394449862062
388,0.0
425,0.0
450,0.0
451,0.0
452,-1.2082440438910254
453,0.0
490,0.0
515,0.0
516,0.0
542,9972296.034134414
592,0.0
632,0.0
686,0.9463610714723156
687,0.8571428571428581
688,1.8571428571428592
2,21, 1,21, 0, 6,40.00,50.00,Monday
250,30.60294446533227
251,0.0
336,3931745.0928243063
385,19.959999999999972
386,25.183333333333305
387,0.2253760038693542
388,0.0
425,0.0
450,0.0
451,0.0
452,-1.2226206712037528
453,0.0
490,0.0
515,0.0
516,0.0
542,10801940.453041485
592,0.0
632,0.0
686,0.9999999999999986
687,0.9999999999999986
688,1.9999999999999971
2,21, 1,21, 0, 6,50.00,60.00,Monday
250,26.809800018285443
251,0.0
336,2209279.280491964
385,19.96000000000003
386,24.850000000000037
387,0.2021494394387875
388,0.0
425,0.0
450,0.0
451,0.0
452,-1.2460159792715337
453,0.0
490,0.0
515,0.0
516,0.0
542,10068086.439082272
592,0.0
632,0.0
686,0.9583391646474329
687,0.8571428571428583
688,1.8571428571428596
2,21, 1,21, 0, 7, 0.00,10.00,Monday
250,23.782216846889426
251,0.0
336,0.0
385,19.96
386,26.85000000000001
387,0.17253314692523558
388,0.0
425,0.0
450,0.0
451,0.0
452,-1.2895381456009072
453,0.0
490,0.0
515,0.0
516,0.0
542,0.0
592,0.0
632,0.0
686,0.0
687,0.0
688,0.0
2,21, 1,21, 0, 7,10.00,20.00,Monday
250,22.152138299197205
251,0.0
336,0.0
385,19.960000000000004
386,26.849999999999998
387,0.13357447936825678
388,0.0
425,0.0
450,0.0
451,0.0
452,-1.3690435000046473
453,0.0
490,0.0
515,0.0
516,0.0
542,0.0
592,0.0
632,0.0
686,0.0
687,0.0
688,0.0
2,21, 1,21, 0, 7,20.00,30.00,Monday
250,21.0999657360723
251,0.0
336,0.0
385,19.96
386,26.85
387,0.082983849800992
388,0.0
425,0.0
450,0.0
451,0.0
452,-1.492982842751144
453,0.0
490,0.0
515,0.0
516,0.0
542,0.0
592,0.0
632,0.0
686,0.0
687,0.0
688,0.0
2,21, 1,21, 0, 7,30.00,40.00,Monday
250,20.412563582094627
251,0.0
336,0.0
385,19.960000000000015
386,26.850000000000023
387,0.020417764108969602
388,0.0
425,0.0
450,0.0
451,0.0
452,-1.6614160094948804
453,0.0
490,0.0
515,0.0
516,0.0
542,0.0
592,0.0
632,0.0
686,0.0
687,0.0
688,0.0
2,21, 1,21, 0, 7,40.00,50.00,Monday
250,20.00466297369948
251,257432.30857731754
336,0.0
385,19.96
386,26.85
387,-0.05539538843596062
388,0.0
425,0.0
450,0.0
451,0.0
452,-1.8736976599033097
453,0.0
490,0.0
515,0.0
516,0.0
542,0.0
592,238587.0298352572
632,0.0
686,0.06745044405382222
687,0.0
688,0.5
2,21, 1,21, 0, 7,50.00,60.00,Monday
250,21.652821210438045
251,2136452.5233497056
336,0.0
385,20.626666666666637
386,26.849999999999966
387,-0.13515051631713831
388,0.0
425,0.0
450,0.0
451,0.0
452,-2.107864395786465
453,0.0
490,0.0
515,0.0
516,0.0
542,0.0
592,803995.8630156715
632,1454197.0295742652
686,0.16666666666666644
687,0.16666666666666644
688,0.33333333333333287
2,21, 1,21, 0, 8, 0.00,10.00,Monday
250,25.38377569053912
251,0.0
336,2614598.5217023245
385,19.96
386,26.05
387,-0.21263783689474805
388,0.0
425,0.0
450,0.0
451,0.0
452,-2.342377858428408
453,0.0
490,0.0
515,0.0
516,0.0
542,4350353.7047560625
592,0.0
632,0.0
686,0.4434033054932339
687,0.4
688,0.8999999999999999
2,21, 1,21, 0, 8,10.00,20.00,Monday
250,24.886507675713972
251,0.0
336,2764473.8871543733
385,19.96
386,24.85
387,-0.28963527639863273
388,0.0
425,0.0
450,0.0
451,0.0
452,-2.519403723275589
453,0.0
490,0.0
515,0.0
516,0.0
542,4635909.997599825
592,0.0
632,0.0
686,0.6186427244355699
687,0.050570229058970934
688,1.5
2,21, 1,21, 0, 8,20.00,30.00,Monday
250,26.21139868960283
251,0.0
336,1373879.424854104
385,19.96
386,26.35
387,-0.3484748250547379
388,0.0
425,0.0
450,0.0
451,0.0
452,-2.561890638575426
453,0.0
490,0.0
515,0.0
516,0.0
542,3116702.2493904787
592,0.0
632,0.0
686,0.302045793525569
687,0.25
688,0.75
2,21, 1,21, 0, 8,30.00,40.00,Monday
250,25.31828509617166
251,0.0
336,1230224.9612122935
385,19.96
386,25.85
387,-0.40905368466303693
388,0.0
425,0.0
450,0.0
451,0.0
452,-2.4868648946015295
453,0.0
490,0.0
515,0.0
516,0.0
542,3030524.9461598094
592,0.0
632,0.0
686,0.2912697688471143
687,0.25
688,0.75
2,21, 1,21, 0, 8,40.00,50.00,Monday
250,26.35440133856976
251,0.0
336,358529.21267190465
385,19.960000000000015
386,26.850000000000023
387,-0.42571924339055334
388,0.0
425,0.0
450,0.0
451,0.0
452,-2.284411689758587
453,0.0
490,0.0
515,0.0
516,0.0
542,986325.4281336413
592,0.0
632,0.0
686,0.12333487770098725
687,0.0
688,0.3333333333333336
2,21, 1,21, 0, 8,50.00,60.00,Monday
250,25.325555388157664
251,0.0
336,2480007.0062013483
385,19.960000000000015
386,24.850000000000023
387,-0.42051422494896373
388,0.0
425,0.0
450,0.0
451,0.0
452,-1.9011966395519369
453,0.0
490,0.0
515,0.0
516,0.0
542,8571184.87064802
592,0.0
632,0.0
686,0.8379644586007993
687,0.6666666666666672
688,1.6666666666666679
2,21, 1,21, 0, 9, 0.00,10.00,Monday
250,30.806959726403544
251,0.0
336,4090852.1754891495
385,19.96
386,25.25
387,-0.3916957435532989
388,0.0
425,0.0
450,0.0
451,0.0
452,-1.544486640676011
453,0.0
490,0.0
515,0.0
516,0.0
542,9721746.407737335
592,0.0
632,0.0
686,0.8999999999999999
687,0.8999999999999999
688,1.7999999999999998
2,21, 1,21, 0, 9,10.00,20.00,Monday
250,26.794506880688083
251,0.0
336,2339261.0999993677
385,19.959999999999994
386,24.849999999999994
387,-0.3425087121925612
388,0.0
425,0.0
450,0.0
451,0.0
452,-1.0763659022114467
453,0.0
490,0.0
515,0.0
516,0.0
542,10061536.426255023
592,0.0
632,0.0
686,0.9575201195250551
687,0.8571428571428569
688,1.8571428571428565
2,21, 1,21, 0, 9,20.00,30.00,Monday
250,31.47276663514617
251,0.0
336,4234556.486833816
385,19.960000000000004
386,25.099999999999998
387,-0.2758156784107182
388,0.0
425,0.0
450,0.0
451,0.0
452,-0.5348132998835389
453,0.0
490,0.0
515,0.0
516,0.0
542,10801940.453041483
592,0.0
632,0.0
686,1.0
687,1.0
688,2.0
2,21, 1,21, 0, 9,30.00,40.00,Monday
250,28.031409318925277
251,0.0
336,2454975.7680424415
385,19.959999999999997
386,24.849999999999987
387,-0.16417215810165162
388,0.0
425,0.0
450,0.0
451,0.0
452,0.25477583933499504
453,0.0
490,0.0
515,0.0
516,0.0
542,10801940.453041483
592,0.0
632,0.0
686,0.9999999999999997
687,0.9999999999999997
688,1.9999999999999993
2,21, 1,21, 0, 9,40.00,50.00,Monday
250,32.1222508834041
251,0.0
336,4084972.8125158558
385,19.959999999999972
386,24.84999999999997
387,-0.08538301511783787
388,0.0
425,0.0
450,0.0
451,0.0
452,0.7870309203426646
453,0.0
490,0.0
515,0.0
516,0.0
542,10801940.453041483
592,0.0
632,0.0
686,0.9999999999999986
687,0.9999999999999986
688,1.9999999999999971
2,21, 1,21, 0, 9,50.00,60.00,Monday
250,27.29035691214095
251,0.0
336,2171726.2271481943
385,19.96
386,24.849999999999998
387,-0.011129079258482132
388,0.0
425,0.0
450,0.0
451,0.0
452,1.3160863633764506
453,0.0
490,0.0
515,0.0
516,0.0
542,9923422.006182073
592,0.0
632,0.0
686,0.9252184872862115
687,0.8999999999999999
688,1.9
2,21, 1,21, 0,10, 0.00,10.00,Monday
250,32.00618897531016
251,0.0
336,4267290.637367953
385,19.96
386,25.135714285714286
387,0.07835648248053416
388,0.0
425,0.0
450,0.0
451,0.0
452,1.8581116607144508
453,0.0
490,0.0
515,0.0
516,0.0
542,10801940.453041486
592,0.0
632,0.0
686,1.0
687,1.0
688,2.0
2,21, 1,21, 0,10,10.00,20.00,Monday
250,27.22158509686832
251,0.0
336,2159844.907306246
385,19.95999999999999
386,24.84999999999999
387,0.17990643622423577
388,0.0
425,0.0
450,0.0
451,0.0
452,2.413371296139135
453,0.0
490,0.0
515,0.0
516,0.0
542,9771368.387781605
592,0.0
632,0.0
686,0.9101019335291362
687,0.8888888888888885
688,1.8888888888888882
2,21, 1,21, 0,10,20.00,30.00,Monday
250,32.119916902148844
251,0.0
336,4308888.414278101
385,19.960000000000004
386,25.099999999999998
387,0.2947781707552238
388,0.0
425,0.0
450,0.0
451,0.0
452,2.9924047191901786
453,0.0
490,0.0
515,0.0
516,0.0
542,10801940.453041485
592,0.0
632,0.0
686,1.0
687,1.0
688,2.0
2,21, 1,21, 0,10,30.00,40.00,Monday
250,27.255101570684538
251,0.0
336,2153229.307265406
385,19.960000000000047
386,24.85000000000007
387,0.4237188994962817
388,0.0
425,0.0
450,0.0
451,0.0
452,3.606090793821022
453,0.0
490,0.0
515,0.0
516,0.0
542,9711881.872920189
592,0.0
632,0.0
686,0.902663453463615
687,0.888888888888891
688,1.8888888888888933
2,21, 1,21, 0,10,40.00,50.00,Monday
250,32.30381649331968
251,0.0
336,4375012.792247783
385,19.960000000000004
386,25.099999999999998
387,0.5683577481147438
388,0.0
425,0.0
450,0.0
451,0.0
452,4.285326280390148
453,0.0
490,0.0
515,0.0
516,0.0
542,10801940.453041483
592,0.0
632,0.0
686,1.0
687,1.0
688,2.0
2,21, 1,21, 0,10,50.00,60.00,Monday
250,27.286947208532258
251,0.0
336,2123449.414017137
385,19.960000000000054
386,24.850000000000076
387,0.7264037399368485
388,0.0
425,0.0
450,0.0
451,0.0
452,5.036315398216585
453,0.0
490,0.0
515,0.0
516,0.0
542,9601724.847147983
592,0.0
632,0.0
686,0.8888888888888913
687,0.8888888888888913
688,1.7777777777777826
2,21, 1,21, 0,11, 0.00,10.00,Monday
250,32.502115897515196
251,0.0
336,4448495.029645539
385,19.960000000000004
386,25.099999999999998
387,0.8979836407534323
388,0.0
425,0.0
450,0.0
451,0.0
452,5.854317410822815
453,0.0
490,0.0
515,0.0
516,0.0
542,10801940.453041483
592,0.0
632,0.0
686,1.0
687,1.0
688,2.0
2,21, 1,21, 0,11,10.00,20.00,Monday
250,27.27094910956268
251,0.0
336,2094067.297408399
385,19.96
386,25.049999999999997
387,1.0811871374558275
388,0.0
425,0.0
450,0.0
451,0.0
452,6.718454504511954
453,0.0
490,0.0
515,0.0
516,0.0
542,9326704.732031662
592,0.0
632,0.0
686,0.885674749226398
687,0.7999999999999999
688,1.7
2,21, 1,21, 0,11,20.00,30.00,Monday
250,32.72426405875472
251,0.0
336,4522211.841595884
385,19.95999999999999
386,25.072222222222216
387,1.2800886397397506
388,0.0
425,0.0
450,0.0
451,0.0
452,7.638479957473663
453,0.0
490,0.0
515,0.0
516,0.0
542,10801940.453041483
592,0.0
632,0.0
686,0.9999999999999996
687,0.9999999999999996
688,1.9999999999999991
2,21, 1,21, 0,11,30.00,40.00,Monday
250,27.242234234621478
251,0.0
336,1930570.8739033137
385,19.959999999999994
386,25.04999999999999
387,1.4917576343452426
388,0.0
425,0.0
450,0.0
451,0.0
452,8.564989474982909
453,0.0
490,0.0
515,0.0
516,0.0
542,8641552.362433186
592,0.0
632,0.0
686,0.7999999999999996
687,0.7999999999999996
688,1.5999999999999992
2,21, 1,21, 0,11,40.00,50.00,Monday
250,32.83311025887299
251,0.0
336,4581391.6164267
385,19.960000000000054
386,25.0722222222223
387,1.7143109025416292
388,0.0
425,0.0
450,0.0
451,0.0
452,9.44130490400741
453,0.0
490,0.0
515,0.0
516,0.0
542,10801940.453041479
592,0.0
632,0.0
686,1.0000000000000027
687,1.0000000000000027
688,2.0000000000000053
2,21, 1,21, 0,11,50.00,60.00,Monday
250,27.207003707179645
251,0.0
336,1932044.1418048176
385,19.96
386,25.049999999999997
387,1.9407224772235312
388,0.0
425,0.0
450,0.0
451,0.0
452,10.230356340813282
453,0.0
490,0.0
515,0.0
516,0.0
542,8641552.362433186
592,0.0
632,0.0
686,0.7999999999999999
687,0.7999999999999999
688,1.5999999999999999
2,21, 1,21, 0,12, 0.00,10.00,Monday
250,32.96961401542901
251,0.0
336,4669315.136086411
385,19.959999999999994
386,25.072222222222216
387,2.167103486648334
388,0.0
425,0.0
450,0.0
451,0.0
452,10.908082533697364
453,0.0
490,0.0
515,0.0
516,0.0
542,10801940.453041485
592,0.0
632,0.0
686,0.9999999999999998
687,0.9999999999999998
688,1.9999999999999996
2,21, 1,21, 0,12,10.00,20.00,Monday
250,27.303829177945616
251,0.0
336,1948591.713084362
385,19.959999999999997
386,25.049999999999997
387,2.3863940718558556
388,0.0
425,0.0
450,0.0
451,0.0
452,11.460986776904713
453,0.0
490,0.0
515,0.0
516,0.0
542,8641552.362433188
592,0.0
632,0.0
686,0.7999999999999998
687,0.7999999999999998
688,1.5999999999999996
2,21, 1,21, 0,12,20.00,30.00,Monday
250,32.9594789301733
251,0.0
336,4636173.966520589
385,19.95999999999999
386,25.072222222222216
387,2.5955702188027843
388,0.0
425,0.0
450,0.0
451,0.0
452,11.895228771184176
453,0.0
490,0.0
515,0.0
516,0.0
542,10801940.45304148
592,0.0
632,0.0
686,0.9999999999999996
687,0.9999999999999996
688,1.9999999999999991
2,21, 1,21, 0,12,30.00,40.00,Monday
250,27.31762698005956
251,0.0
336,1941745.8544110286
385,19.96
386,25.049999999999997
387,2.787462050520094
388,0.0
425,0.0
450,0.0
451,0.0
452,12.198009566456445
453,0.0
490,0.0
515,0.0
516,0.0
542,8641552.362433188
592,0.0
632,0.0
686,0.7999999999999999
687,0.7999999999999999
688,1.5999999999999999
2,21, 1,21, 0,12,40.00,50.00,Monday
250,32.96233770385029
251,0.0
336,4635605.7680344535
385,19.960000000000054
386,25.0722222222223
387,2.9596837439673727
388,0.0
425,0.0
450,0.0
451,0.0
452,12.354550541370703
453,0.0
490,0.0
515,0.0
516,0.0
542,10801940.45304148
592,0.0
632,0.0
686,1.0000000000000027
687,1.0000000000000027
688,2.0000000000000053
2,21, 1,21, 0,12,50.00,60.00,Monday
250,27.327285468118433
251,0.0
336,1942997.7370614535
385,19.96
386,25.049999999999997
387,3.108236933438577
388,0.0
425,0.0
450,0.0
451,0.0
452,12.375674417376244
453,0.0
490,0.0
515,0.0
516,0.0
542,8641552.362433186
592,0.0
632,0.0
686,0.7999999999999999
687,0.7999999999999999
688,1.5999999999999999
2,21, 1,21, 0,13, 0.00,10.00,Monday
250,28.405360815503077
251,0.0
336,3645241.4490850656
385,19.96
386,25.35
387,3.2434429353840324
388,0.0
425,0.0
450,0.0
451,0.0
452,12.322849355111416
453,0.0
490,0.0
515,0.0
516,0.0
542,10801940.453041486
592,0.0
632,0.0
686,1.0
687,1.0
688,2.0
2,21, 1,21, 0,13,10.00,20.00,Monday
250,27.336272733989368
251,0.0
336,3387450.776227899
385,19.96
386,24.85
387,3.3708618412924585
388,0.0
425,0.0
450,0.0
451,0.0
452,12.253320455939692
453,0.0
490,0.0
515,0.0
516,0.0
542,10801940.453041485
592,0.0
632,0.0
686,1.0
687,1.0
688,2.0
2,21, 1,21, 0,13,20.00,30.00,Monday
250,27.14093877803756
251,0.0
336,3718527.3982496737
385,19.96
386,24.85
387,3.4989841161997473
388,0.0
425,0.0
450,0.0
451,0.0
452,12.19014988141116
453,0.0
490,0.0
515,0.0
516,0.0
542,10801940.453041485
592,0.0
632,0.0
686,1.0
687,1.0
688,2.0
2,21, 1,21, 0,13,30.00,40.00,Monday
250,27.265990637345496
251,0.0
336,3958271.1647226764
385,19.96
386,24.85
387,3.6126712843988282
388,0.0
425,0.0
450,0.0
451,0.0
452,12.15507378107499
453,0.0
490,0.0
515,0.0
516,0.0
542,10801940.453041485
592,0.0
632,0.0
686,1.0
687,1.0
688,2.0
2,21, 1,21, 0,13,40.00,50.00,Monday
250,27.200785571237674
251,0.0
336,4139606.9591158596
385,19.96
386,24.85
387,3.7062142324956318
388,0.0
425,0.0
450,0.0
451,0.0
452,12.143145201334217
453,0.0
490,0.0
515,0.0
516,0.0
542,10801940.45304148
592,0.0
632,0.0
686,1.0
687,1.0
688,2.0
2,21, 1,21, 0,13,50.00,60.00,Monday
250,27.048884456204547
251,0.0
336,4240882.141146541
385,19.96
386,24.85
387,3.7868968599588326
388,0.0
425,0.0
450,0.0
451,0.0
452,12.138526213833275
453,0.0
490,0.0
515,0.0
516,0.0
542,10801940.453041485
592,0.0
632,0.0
686,1.0
687,1.0
688,2.0
2,21, 1,21, 0,14, 0.00,10.00,Monday
250,30.921155428932167
251,0.0
336,4746972.880316593
385,19.96
386,24.849999999999998
387,3.843093753649295
388,0.0
425,0.0
450,0.0
451,0.0
452,12.099216725609846
453,0.0
490,0.0
515,0.0
516,0.0
542,10801940.453041485
592,0.0
632,0.0
686,0.9999999999999999
687,0.9999999999999999
688,1.9999999999999998
2,21, 1,21, 0,14,10.00,20.00,Monday
250,28.44816293513896
251,0.0
336,2650593.161870313
385,19.96
386,24.85
387,3.903410800154812
388,0.0
425,0.0
450,0.0
451,0.0
452,11.995595918396898
453,0.0
490,0.0
515,0.0
516,0.0
542,10801940.453041486
592,0.0
632,0.0
686,1.0
687,1.0
688,2.0
2,21, 1,21, 0,14,20.00,30.00,Monday
250,32.33779807422498
251,0.0
336,3700345.3722154857
385,19.960000000000004
386,24.849999999999998
387,3.962979054587141
388,0.0
425,0.0
450,0.0
451,0.0
452,11.830715754268073
453,0.0
490,0.0
515,0.0
516,0.0
542,10801940.453041486
592,0.0
632,0.0
686,1.0
687,1.0
688,2.0
2,21, 1,21, 0,14,30.00,40.00,Monday
250,28.468607286201824
251,0.0
336,2163751.484111897
385,19.960000000000015
386,24.85000000000002
387,4.013938138765608
388,0.0
425,0.0
450,0.0
451,0.0
452,11.579425311499907
453,0.0
490,0.0
515,0.0
516,0.0
542,10801940.453041483
592,0.0
632,0.0
686,1.0000000000000007
687,1.0000000000000007
688,2.0000000000000013
2,21, 1,21, 0,14,40.00,50.00,Monday
250,32.99165872559146
251,0.0
336,3960184.8364309324
385,19.960000000000004
386,24.849999999999998
387,4.050800146489758
388,0.0
425,0.0
450,0.0
451,0.0
452,11.212395003253
453,0.0
490,0.0
515,0.0
516,0.0
542,10801940.45304148
592,0.0
632,0.0
686,1.0
687,1.0
688,2.0
2,21, 1,21, 0,14,50.00,60.00,Monday
250,27.972660055181713
251,0.0
336,2242509.9280587817
385,19.960000000000054
386,24.850000000000076
387,4.070857635889827
388,0.0
425,0.0
450,0.0
451,0.0
452,10.735558757082607
453,0.0
490,0.0
515,0.0
516,0.0
542,10801940.453041483
592,0.0
632,0.0
686,1.0000000000000027
687,1.0000000000000027
688,2.0000000000000053
2,21, 1,21, 0,15, 0.00,10.00,Monday
250,33.30988536274197
251,0.0
336,4424424.345724059
385,19.960000000000004
386,24.849999999999998
387,4.072669435008925
388,0.0
425,0.0
450,0.0
451,0.0
452,10.181846486559184
453,0.0
490,0.0
515,0.0
516,0.0
542,10801940.453041486
592,0.0
632,0.0
686,1.0
687,1.0
688,2.0
2,21, 1,21, 0,15,10.00,20.00,Monday
250,27.733973735362525
251,0.0
336,2156097.736459794
385,19.96
386,24.849999999999998
387,4.057745960833253
388,0.0
425,0.0
450,0.0