Program Version,EnergyPlus, Version 24.2.0-94a887817b, YMD=2025.02.04 17:21
1,5,Environment Title[],Latitude[deg],Longitude[deg],Time Zone[],Elevation[m]
2,8,Day of Simulation[],Month[],Day of Month[],DST Indicator[1=yes 0=no],Hour[],StartMinute[],EndMinute[],DayType
3,5,Cumulative Day of Simulation[],Month[],Day of Month[],DST Indicator[1=yes 0=no],DayType  ! When Daily Meters Requested
4,2,Cumulative Days of Simulation[],Month[]  ! When Monthly Meters Requested
5,1,Cumulative Days of Simulation[] ! When Run Period Meters Requested
6,1,Calendar Year of Simulation[] ! When Annual Meters Requested
11,9,Electricity:Facility [J] !Monthly [Value,Min,Day,Hour,Minute,Max,Day,Hour,Minute]
23,9,Electricity:Building [J] !Monthly [Value,Min,Day,Hour,Minute,Max,Day,Hour,Minute]
59,9,InteriorLights:Electricity [J] !Monthly [Value,Min,Day,Hour,Minute,Max,Day,Hour,Minute]
521,9,Electricity:HVAC [J] !Monthly [Value,Min,Day,Hour,Minute,Max,Day,Hour,Minute]
637,9,NaturalGas:Facility [J] !Monthly [Value,Min,Day,Hour,Minute,Max,Day,Hour,Minute]
649,9,NaturalGas:HVAC [J] !Monthly [Value,Min,Day,Hour,Minute,Max,Day,Hour,Minute]
13,11,Electricity:Facility [J] !RunPeriod [Value,Min,Month,Day,Hour,Minute,Max,Month,Day,Hour,Minute]
25,11,Electricity:Building [J] !RunPeriod [Value,Min,Month,Day,Hour,Minute,Max,Month,Day,Hour,Minute]
61,11,InteriorLights:Electricity [J] !RunPeriod [Value,Min,Month,Day,Hour,Minute,Max,Month,Day,Hour,Minute]
523,11,Electricity:HVAC [J] !RunPeriod [Value,Min,Month,Day,Hour,Minute,Max,Month,Day,Hour,Minute]
639,11,NaturalGas:Facility [J] !RunPeriod [Value,Min,Month,Day,Hour,Minute,Max,Month,Day,Hour,Minute]
651,11,NaturalGas:HVAC [J] !RunPeriod [Value,Min,Month,Day,Hour,Minute,Max,Month,Day,Hour,Minute]
End of Data Dictionary
1,YEARSIMULATION,  41.98, -87.92,  -6.00, 201.00
4,31, 1
11,8524907367.068803,333429.2174675099,11,21,20,3510564.616954114,26,14,60
23,1881360282.3668144,105608.16195283551,11,20,50,1039544.2766800656,30,11,60
59,974623651.0754083,30136.785747539274, 1, 1,10,602735.7149507855, 1, 8,10
521,6643547084.702024,0.0,11,13,30,2550079.7007294125,27,20,30
637,15200632374.050444,0.0, 1,10,20,19601606.68503093,31, 7,50
649,15200632374.050444,0.0, 1,10,20,19601606.68503093,31, 7,50
4,59, 2
11,7033577105.244867,243415.8633330578,11,14,60,-99999999999999.0,26,14,60
23,1659147742.4483354,99999999999999.0,11,20,50,-99999999999999.0,30,11,60
59,852027206.6544236,99999999999999.0, 1, 1,10,-99999999999999.0, 1, 8,10
521,5374429362.796529,99999999999999.0,11,13,30,-99999999999999.0,27,20,30
637,12538462285.87634,99999999999999.0, 1,10,20,20277289.005219795, 3, 8,30
649,12538462285.87634,99999999999999.0, 1,10,20,20277289.005219795, 3, 8,30
4,90, 3
11,6896977972.04137,92332.57390773523,31,16,60,-99999999999999.0,26,14,60
23,1803241363.3605092,92332.57390773523,31,16,60,-99999999999999.0,30,11,60
59,938097866.7493938,99999999999999.0, 1, 1,10,-99999999999999.0, 1, 8,10
521,5093736608.680869,99999999999999.0,11,13,30,-99999999999999.0,27,20,30
637,9092754151.230272,99999999999999.0, 1,10,20,-99999999999999.0, 3, 8,30
649,9092754151.230272,99999999999999.0, 1,10,20,-99999999999999.0, 3, 8,30
4,120, 4
11,4050711417.3161054,30136.785747539274, 5, 3,30,-99999999999999.0,26,14,60
23,1634265155.7829783,30136.785747539274, 5, 2,40,-99999999999999.0,30,11,60
59,897232385.275728,99999999999999.0, 1, 1,10,-99999999999999.0, 1, 8,10
521,2416446261.53314,99999999999999.0,11,13,30,-99999999999999.0,27,20,30
637,3655658623.3650513,99999999999999.0, 1,10,20,-99999999999999.0, 3, 8,30
649,3655658623.3650513,99999999999999.0, 1,10,20,-99999999999999.0, 3, 8,30
4,151, 5
11,2998216489.0847664,99999999999999.0, 5, 3,30,-99999999999999.0,26,14,60
23,1677540326.030251,99999999999999.0, 5, 2,40,-99999999999999.0,30,11,60
59,974623651.0754083,99999999999999.0, 1, 1,10,-99999999999999.0, 1, 8,10
521,1320676163.054496,99999999999999.0,11,13,30,-99999999999999.0,27,20,30
637,771600500.7982271,99999999999999.0, 1,10,20,-99999999999999.0, 3, 8,30
649,771600500.7982271,99999999999999.0, 1,10,20,-99999999999999.0, 3, 8,30
4,181, 6
11,2934934610.824928,99999999999999.0, 5, 3,30,-99999999999999.0,26,14,60
23,1477483263.316574,99999999999999.0, 5, 2,40,-99999999999999.0,30,11,60
59,897232385.2757307,99999999999999.0, 1, 1,10,-99999999999999.0, 1, 8,10
521,1457451347.50833,99999999999999.0,11,13,30,-99999999999999.0,27,20,30
637,32634372.008047495,99999999999999.0, 1,10,20,-99999999999999.0, 3, 8,30
649,32634372.008047495,99999999999999.0, 1,10,20,-99999999999999.0, 3, 8,30
4,212, 7
11,3664534377.025438,99999999999999.0, 5, 3,30,-99999999999999.0,26,14,60
23,1480706348.8094287,99999999999999.0, 5, 2,40,-99999999999999.0,30,11,60
59,938097866.7493911,99999999999999.0, 1, 1,10,-99999999999999.0, 1, 8,10
521,2183828028.215978,99999999999999.0,11,13,30,-99999999999999.0,27,20,30
637,0.0,99999999999999.0, 1,10,20,-99999999999999.0, 3, 8,30
649,0.0,99999999999999.0, 1,10,20,-99999999999999.0, 3, 8,30
4,243, 8
11,3338496758.5318027,99999999999999.0, 5, 3,30,-99999999999999.0,26,14,60
23,1565840941.5277963,99999999999999.0, 5, 2,40,-99999999999999.0,30,11,60
59,974623651.0754129,99999999999999.0, 1, 1,10,-99999999999999.0, 1, 8,10
521,1772655817.004005,99999999999999.0,11,13,30,-99999999999999.0,27,20,30
637,3722365.401549609,99999999999999.0, 1,10,20,-99999999999999.0, 3, 8,30
649,3722365.401549609,99999999999999.0, 1,10,20,-99999999999999.0, 3, 8,30
4,273, 9
11,2504586553.4705343,99999999999999.0, 5, 3,30,-99999999999999.0,26,14,60
23,1447246345.30094,99999999999999.0, 5, 2,40,-99999999999999.0,30,11,60
59,860706600.9497106,99999999999999.0, 1, 1,10,-99999999999999.0, 1, 8,10
521,1057340208.1695863,99999999999999.0,11,13,30,-99999999999999.0,27,20,30
637,40171108.51968746,99999999999999.0, 1,10,20,-99999999999999.0, 3, 8,30
649,40171108.51968746,99999999999999.0, 1,10,20,-99999999999999.0, 3, 8,30
4,304,10
11,3307887520.089177,99999999999999.0, 5, 3,30,-99999999999999.0,26,14,60
23,1718948460.062352,99999999999999.0, 5, 2,40,-99999999999999.0,30,11,60
59,974623651.0754083,99999999999999.0, 1, 1,10,-99999999999999.0, 1, 8,10
521,1588939060.0268276,99999999999999.0,11,13,30,-99999999999999.0,27,20,30
637,1794886671.7841852,99999999999999.0, 1,10,20,-99999999999999.0, 3, 8,30
649,1794886671.7841852,99999999999999.0, 1,10,20,-99999999999999.0, 3, 8,30
4,334,11
11,5762132104.512744,99999999999999.0, 5, 3,30,-99999999999999.0,26,14,60
23,1740654351.659897,99999999999999.0, 5, 2,40,-99999999999999.0,30,11,60
59,933758169.6017498,99999999999999.0, 1, 1,10,-99999999999999.0, 1, 8,10
521,4021477752.8528423,99999999999999.0,11,13,30,-99999999999999.0,27,20,30
637,7528454808.057993,99999999999999.0, 1,10,20,-99999999999999.0, 3, 8,30
649,7528454808.057993,99999999999999.0, 1,10,20,-99999999999999.0, 3, 8,30
4,365,12
11,7252535756.121293,99999999999999.0, 5, 3,30,-99999999999999.0,26,14,60
23,1725179310.679512,99999999999999.0, 5, 2,40,-99999999999999.0,30,11,60
59,901572082.4233737,99999999999999.0, 1, 1,10,-99999999999999.0, 1, 8,10
521,5527356445.441795,99999999999999.0,11,13,30,-99999999999999.0,27,20,30
637,9408017979.822163,99999999999999.0, 1,10,20,-99999999999999.0, 3, 8,30
649,9408017979.822163,99999999999999.0, 1,10,20,-99999999999999.0, 3, 8,30
5,365
13,58269498031.332466,30136.785747539274, 4, 5, 3,30,3510564.616954114, 1,26,14,60
25,19811613891.346977,30136.785747539274, 4, 5, 2,40,1039544.2766800656, 1,30,11,60
61,11117219167.97787,30136.785747539274, 1, 1, 1,10,602735.7149507855, 1, 1, 8,10
523,38457884139.98643,0.0, 1,11,13,30,2550079.7007294125, 1,27,20,30
639,60066995240.91389,0.0, 1, 1,10,20,20277289.005219795, 2, 3, 8,30
651,60066995240.91389,0.0, 1, 1,10,20,20277289.005219795, 2, 3, 8,30
End of Data
 Number of Records Written=          78
