Program Version,EnergyPlus, Version 24.2.0-94a887817b, YMD=2025.02.04 15:38
1,5,Environment Title[],Latitude[deg],Longitude[deg],Time Zone[],Elevation[m]
2,8,Day of Simulation[],Month[],Day of Month[],DST Indicator[1=yes 0=no],Hour[],StartMinute[],EndMinute[],DayType
3,5,Cumulative Day of Simulation[],Month[],Day of Month[],DST Indicator[1=yes 0=no],DayType  ! When Daily Meters Requested
4,2,Cumulative Days of Simulation[],Month[]  ! When Monthly Meters Requested
5,1,Cumulative Days of Simulation[] ! When Run Period Meters Requested
6,1,Calendar Year of Simulation[] ! When Annual Meters Requested
11,9,Electricity:Facility [J] !Monthly [Value,Min,Day,Hour,Minute,Max,Day,Hour,Minute]
23,9,Electricity:Building [J] !Monthly [Value,Min,Day,Hour,Minute,Max,Day,Hour,Minute]
59,9,InteriorLights:Electricity [J] !Monthly [Value,Min,Day,Hour,Minute,Max,Day,Hour,Minute]
521,9,Electricity:HVAC [J] !Monthly [Value,Min,Day,Hour,Minute,Max,Day,Hour,Minute]
637,9,NaturalGas:Facility [J] !Monthly [Value,Min,Day,Hour,Minute,Max,Day,Hour,Minute]
649,9,NaturalGas:HVAC [J] !Monthly [Value,Min,Day,Hour,Minute,Max,Day,Hour,Minute]
13,11,Electricity:Facility [J] !RunPeriod [Value,Min,Month,Day,Hour,Minute,Max,Month,Day,Hour,Minute]
25,11,Electricity:Building [J] !RunPeriod [Value,Min,Month,Day,Hour,Minute,Max,Month,Day,Hour,Minute]
61,11,InteriorLights:Electricity [J] !RunPeriod [Value,Min,Month,Day,Hour,Minute,Max,Month,Day,Hour,Minute]
523,11,Electricity:HVAC [J] !RunPeriod [Value,Min,Month,Day,Hour,Minute,Max,Month,Day,Hour,Minute]
639,11,NaturalGas:Facility [J] !RunPeriod [Value,Min,Month,Day,Hour,Minute,Max,Month,Day,Hour,Minute]
651,11,NaturalGas:HVAC [J] !RunPeriod [Value,Min,Month,Day,Hour,Minute,Max,Month,Day,Hour,Minute]
End of Data Dictionary
1,RUN PERIOD 1,  41.98, -87.92,  -6.00, 201.00
4,31, 1
11,9819710562.705715,408891.4285714286, 5, 6,50,2977053.2843283094,16,13,60
23,980660461.4746792,30000.0, 1, 1,10,607580.0445468847, 1, 9,10
59,970200000.0,30000.0, 1, 1,10,600000.0, 1, 8,10
521,8839050101.230986,378891.4285714286, 5, 6,50,2369473.239781425,16,13,60
637,178727836437.2704,28111513.11825095,21,16,10,41250000.0, 1, 1,10
649,178727836437.2704,28111513.11825095,21,16,10,41250000.0, 1, 1,10
4,59, 2
11,9353632174.520124,99999999999999.0, 5, 6,50,3018514.7245914317,22,15,30
23,857256053.456247,99999999999999.0, 1, 1,10,-99999999999999.0, 1, 9,10
59,848160000.0,99999999999999.0, 1, 1,10,-99999999999999.0, 1, 8,10
521,8496376121.063895,99999999999999.0, 5, 6,50,2410934.680044547,22,15,30
637,158045295398.27078,26427806.657171324,23,12,10,-99999999999999.0, 1, 1,10
649,158045295398.27078,26427806.657171324,23,12,10,-99999999999999.0, 1, 1,10
4,90, 3
11,11009653657.282465,99999999999999.0, 5, 6,50,3274961.1890910203,27,16,10
23,907030856.1290575,99999999999999.0, 1, 1,10,-99999999999999.0, 1, 9,10
59,897480000.0,99999999999999.0, 1, 1,10,-99999999999999.0, 1, 8,10
521,10102622801.153355,99999999999999.0, 5, 6,50,2667381.144544136,27,16,10
637,162205289610.36935,20889096.473584674,27,16,10,-99999999999999.0, 1, 1,10
649,162205289610.36935,20889096.473584674,27,16,10,-99999999999999.0, 1, 1,10
4,120, 4
11,9990318466.91778,30000.0,11,19,10,3298066.4166320115,11,14,30
23,939659781.2705983,99999999999999.0, 1, 1,10,631802.084890629,24,16,10
59,929520000.0,99999999999999.0, 1, 1,10,-99999999999999.0, 1, 8,10
521,9050658685.64713,0.0,11,14,40,2690486.3720851266,11,14,30
637,123527028475.5178,0.0,11,14,40,-99999999999999.0, 1, 1,10
649,123527028475.5178,0.0,11,14,40,-99999999999999.0, 1, 1,10
4,151, 5
11,9836170196.924189,99999999999999.0,11,19,10,3298177.293188355,23,17,50
23,981396713.0771736,99999999999999.0, 1, 1,10,-99999999999999.0,24,16,10
59,970200000.0,99999999999999.0, 1, 1,10,-99999999999999.0, 1, 8,10
521,8854773483.847046,99999999999999.0,11,14,40,2690597.24864147,23,17,50
637,99027309288.84917,99999999999999.0,11,14,40,-99999999999999.0, 1, 1,10
649,99027309288.84917,99999999999999.0,11,14,40,-99999999999999.0, 1, 1,10
4,181, 6
11,7876016238.071262,99999999999999.0,11,19,10,-99999999999999.0,23,17,50
23,866262721.7677832,99999999999999.0, 1, 1,10,644725.4256534914,10,10,10
59,856800000.0,99999999999999.0, 1, 1,10,-99999999999999.0, 1, 8,10
521,7009753516.303433,99999999999999.0,11,14,40,-99999999999999.0,23,17,50
637,51798323917.0082,99999999999999.0,11,14,40,-99999999999999.0, 1, 1,10
649,51798323917.0082,99999999999999.0,11,14,40,-99999999999999.0, 1, 1,10
4,212, 7
11,7492965423.687751,99999999999999.0,11,19,10,-99999999999999.0,23,17,50
23,980975715.935742,99999999999999.0, 1, 1,10,-99999999999999.0,10,10,10
59,970200000.0,99999999999999.0, 1, 1,10,-99999999999999.0, 1, 8,10
521,6511989707.751933,99999999999999.0,11,14,40,-99999999999999.0,23,17,50
637,26012839272.926556,99999999999999.0,11,14,40,-99999999999999.0, 1, 1,10
649,26012839272.926556,99999999999999.0,11,14,40,-99999999999999.0, 1, 1,10
4,243, 8
11,7263268416.314274,99999999999999.0,11,19,10,-99999999999999.0,23,17,50
23,944282687.2470288,99999999999999.0, 1, 1,10,-99999999999999.0,10,10,10
59,933840000.0,99999999999999.0, 1, 1,10,-99999999999999.0, 1, 8,10
521,6318985729.067124,99999999999999.0,11,14,40,-99999999999999.0,23,17,50
637,43917701520.95032,99999999999999.0,11,14,40,-99999999999999.0, 1, 1,10
649,43917701520.95032,99999999999999.0,11,14,40,-99999999999999.0, 1, 1,10
4,273, 9
11,8797786776.506357,99999999999999.0,11,19,10,-99999999999999.0,23,17,50
23,903204315.0248579,99999999999999.0, 1, 1,10,-99999999999999.0,10,10,10
59,893160000.0,99999999999999.0, 1, 1,10,-99999999999999.0, 1, 8,10
521,7894582461.48143,99999999999999.0,11,14,40,-99999999999999.0,23,17,50
637,77768334469.20418,99999999999999.0,11,14,40,-99999999999999.0, 1, 1,10
649,77768334469.20418,99999999999999.0,11,14,40,-99999999999999.0, 1, 1,10
4,304,10
11,10799188317.21635,99999999999999.0,11,19,10,-99999999999999.0,23,17,50
23,980958822.7398379,99999999999999.0, 1, 1,10,-99999999999999.0,10,10,10
59,970200000.0,99999999999999.0, 1, 1,10,-99999999999999.0, 1, 8,10
521,9818229494.476479,99999999999999.0,11,14,40,-99999999999999.0,23,17,50
637,129873277063.96307,99999999999999.0,11,14,40,-99999999999999.0, 1, 1,10
649,129873277063.96307,99999999999999.0,11,14,40,-99999999999999.0, 1, 1,10
4,334,11
11,10608854668.072617,99999999999999.0,11,19,10,-99999999999999.0,23,17,50
23,902710856.1290575,99999999999999.0, 1, 1,10,-99999999999999.0,10,10,10
59,893160000.0,99999999999999.0, 1, 1,10,-99999999999999.0, 1, 8,10
521,9706143811.943544,99999999999999.0,11,14,40,-99999999999999.0,23,17,50
637,148454108640.2358,99999999999999.0,11,14,40,-99999999999999.0, 1, 1,10
649,148454108640.2358,99999999999999.0,11,14,40,-99999999999999.0, 1, 1,10
4,365,12
11,10432796279.18572,99999999999999.0,11,19,10,-99999999999999.0,23,17,50
23,943845658.8018683,99999999999999.0, 1, 1,10,-99999999999999.0,10,10,10
59,933840000.0,99999999999999.0, 1, 1,10,-99999999999999.0, 1, 8,10
521,9488950620.383821,99999999999999.0,11,14,40,-99999999999999.0,23,17,50
637,179543476246.1516,99999999999999.0,11,14,40,-99999999999999.0, 1, 1,10
649,179543476246.1516,99999999999999.0,11,14,40,-99999999999999.0, 1, 1,10
5,365
13,113280361177.40503,30000.0, 4,11,19,10,3298177.293188355, 5,23,17,50
25,11188244643.053076,30000.0, 1, 1, 1,10,644725.4256534914, 6,10,10,10
61,11066760000.0,30000.0, 1, 1, 1,10,600000.0, 1, 1, 8,10
523,102092116534.35625,0.0, 4,11,14,40,2690597.24864147, 5,23,17,50
639,1378900820340.7278,0.0, 4,11,14,40,41250000.0, 1, 1, 1,10
651,1378900820340.7278,0.0, 4,11,14,40,41250000.0, 1, 1, 1,10
1,RUN PERIOD 2,  41.98, -87.92,  -6.00, 201.00
4,1, 7
11,111337073.58257616,99999999999999.0,11,19,10,-99999999999999.0,23,17,50
23,41134802.672813095,99999999999999.0, 1, 1,10,-99999999999999.0,10,10,10
59,40680000.0,99999999999999.0, 1, 1,10,-99999999999999.0, 1, 8,10
521,70202270.90976301,99999999999999.0,11,14,40,-99999999999999.0,23,17,50
637,0.0,99999999999999.0,11,14,40,-99999999999999.0, 1, 1,10
649,0.0,99999999999999.0,11,14,40,-99999999999999.0, 1, 1,10
5,1
13,111337073.58257616,99999999999999.0, 4,11,19,10,-99999999999999.0, 5,23,17,50
25,41134802.672813095,99999999999999.0, 1, 1, 1,10,-99999999999999.0, 6,10,10,10
61,40680000.0,99999999999999.0, 1, 1, 1,10,-99999999999999.0, 1, 1, 8,10
523,70202270.90976301,99999999999999.0, 4,11,14,40,-99999999999999.0, 5,23,17,50
639,0.0,99999999999999.0, 4,11,14,40,-99999999999999.0, 1, 1, 1,10
651,0.0,99999999999999.0, 4,11,14,40,-99999999999999.0, 1, 1, 1,10
End of Data
 Number of Records Written=          90
