Program Version,EnergyPlus, Version 24.2.0-94a887817b, YMD=2025.02.04 15:38
1,5,Environment Title[],Latitude[deg],Longitude[deg],Time Zone[],Elevation[m]
2,8,Day of Simulation[],Month[],Day of Month[],DST Indicator[1=yes 0=no],Hour[],StartMinute[],EndMinute[],DayType
3,5,Cumulative Day of Simulation[],Month[],Day of Month[],DST Indicator[1=yes 0=no],DayType  ! When Daily Report Variables Requested
4,2,Cumulative Days of Simulation[],Month[]  ! When Monthly Report Variables Requested
5,1,Cumulative Days of Simulation[] ! When Run Period Report Variables Requested
6,1,Calendar Year of Simulation[] ! When Annual Report Variables Requested
250,1,LIVING ZONE,Zone Air Temperature [C] !TimeStep,REPORTSCH
251,1,LIVING ZONE,Zone Air System Sensible Heating Energy [J] !TimeStep,REPORTSCH
336,1,LIVING ZONE,Zone Air System Sensible Cooling Energy [J] !TimeStep,REPORTSCH
385,1,LIVING ZONE,Zone Thermostat Heating Setpoint Temperature [C] !TimeStep,REPORTSCH
386,1,LIVING ZONE,Zone Thermostat Cooling Setpoint Temperature [C] !TimeStep,REPORTSCH
387,1,GARAGE ZONE,Zone Air Temperature [C] !TimeStep,REPORTSCH
388,1,GARAGE ZONE,Zone Air System Sensible Heating Energy [J] !TimeStep,REPORTSCH
425,1,GARAGE ZONE,Zone Air System Sensible Cooling Energy [J] !TimeStep,REPORTSCH
450,1,GARAGE ZONE,Zone Thermostat Heating Setpoint Temperature [C] !TimeStep,REPORTSCH
451,1,GARAGE ZONE,Zone Thermostat Cooling Setpoint Temperature [C] !TimeStep,REPORTSCH
452,1,ATTIC ZONE,Zone Air Temperature [C] !TimeStep,REPORTSCH
453,1,ATTIC ZONE,Zone Air System Sensible Heating Energy [J] !TimeStep,REPORTSCH
490,1,ATTIC ZONE,Zone Air System Sensible Cooling Energy [J] !TimeStep,REPORTSCH
515,1,ATTIC ZONE,Zone Thermostat Heating Setpoint Temperature [C] !TimeStep,REPORTSCH
516,1,ATTIC ZONE,Zone Thermostat Cooling Setpoint Temperature [C] !TimeStep,REPORTSCH
542,1,ACDXCOIL 1,Cooling Coil Total Cooling Energy [J] !TimeStep,REPORTSCH
592,1,HEAT PUMP DX HEATING COIL 1,Heating Coil Heating Energy [J] !TimeStep,REPORTSCH
632,1,SUPP HEATING COIL 1,Heating Coil Heating Energy [J] !TimeStep,REPORTSCH
686,1,TWOSPEED HEAT PUMP 1,Unitary System DX Coil Cycling Ratio [] !TimeStep,REPORTSCH
687,1,TWOSPEED HEAT PUMP 1,Unitary System DX Coil Speed Ratio [] !TimeStep,REPORTSCH
688,1,TWOSPEED HEAT PUMP 1,Unitary System DX Coil Speed Level [] !TimeStep,REPORTSCH
End of Data Dictionary
1,RUN PERIOD 1,  41.98, -87.92,  -6.00, 201.00
2,21, 1,21, 0, 1, 0.00,10.00,Monday
250,-0.4621549040864536
251,37929088.47842923
336,0.0
385,22.191248473993518
386,26.797091820249364
387,-0.9396430410689611
388,0.0
425,0.0
450,0.0
451,0.0
452,-1.966389561305767
453,0.0
490,0.0
515,0.0
516,0.0
542,0.0
592,4839743.985079642
632,32831828.982204206
686,1.0
687,1.0
688,2.0
2,21, 1,21, 0, 1,10.00,20.00,Monday
250,-0.4622012316562866
251,37930717.99652835
336,0.0
385,22.191248473993518
386,26.797091820249364
387,-0.9480239730205725
388,0.0
425,0.0
450,0.0
451,0.0
452,-1.9482794119626816
453,0.0
490,0.0
515,0.0
516,0.0
542,0.0
592,4823801.676011793
632,32847999.953212637
686,1.0
687,1.0
688,2.0
2,21, 1,21, 0, 1,20.00,30.00,Monday
250,-0.4623935646028692
251,37932484.697907336
336,0.0
385,22.191248473993518
386,26.797091820249364
387,-0.9576335139695752
388,0.0
425,0.0
450,0.0
451,0.0
452,-1.945190213593187
453,0.0
490,0.0
515,0.0
516,0.0
542,0.0
592,4807858.16290522
632,32865631.566568017
686,1.0
687,1.0
688,2.0
2,21, 1,21, 0, 1,30.00,40.00,Monday
250,-0.4625513852368197
251,37934212.77460818
336,0.0
385,22.191248473993518
386,26.797091820249364
387,-0.9686764746494435
388,0.0
425,0.0
450,0.0
451,0.0
452,-1.9580411762094216
453,0.0
490,0.0
515,0.0
516,0.0
542,0.0
592,4791913.445623511
632,32883322.936111055
686,1.0
687,1.0
688,2.0
2,21, 1,21, 0, 1,40.00,50.00,Monday
250,-0.46271646071715106
251,37935948.29795376
336,0.0
385,22.191248473993518
386,26.797091820249364
387,-0.981310405572882
388,0.0
425,0.0
450,0.0
451,0.0
452,-1.9852163604105306
453,0.0
490,0.0
515,0.0
516,0.0
542,0.0
592,4775967.524030239
632,32901000.471473802
686,1.0
687,1.0
688,2.0
2,21, 1,21, 0, 1,50.00,60.00,Monday
250,-0.4628824563831779
251,37937685.034371205
336,0.0
385,22.191248473993518
386,26.797091820249364
387,-0.9957242726595303
388,0.0
425,0.0
450,0.0
451,0.0
452,-2.02518162903975
453,0.0
490,0.0
515,0.0
516,0.0
542,0.0
592,4760020.397988959
632,32918683.83463908
686,1.0
687,1.0
688,2.0
2,21, 1,21, 0, 2, 0.00,10.00,Monday
250,-0.4630383214007612
251,37939416.35993177
336,0.0
385,22.191248473993518
386,26.797091820249364
387,-1.0112394899074058
388,0.0
425,0.0
450,0.0
451,0.0
452,-2.0718982436693825
453,0.0
490,0.0
515,0.0
516,0.0
542,0.0
592,4760020.397988958
632,32920420.61096413
686,1.0
687,1.0
688,2.0
2,21, 1,21, 0, 2,10.00,20.00,Monday
250,-0.46321741525012644
251,37939555.04795678
336,0.0
385,22.191248473993518
386,26.797091820249364
387,-1.026917494197436
388,0.0
425,0.0
450,0.0
451,0.0
452,-2.1145921621936146
453,0.0
490,0.0
515,0.0
516,0.0
542,0.0
592,4760020.397988958
632,32920546.791780967
686,1.0
687,1.0
688,2.0
2,21, 1,21, 0, 2,20.00,30.00,Monday
250,-0.46339632282259496
251,37939635.10257808
336,0.0
385,22.191248473993518
386,26.797091820249364
387,-1.0422067705079112
388,0.0
425,0.0
450,0.0
451,0.0
452,-2.146037535321313
453,0.0
490,0.0
515,0.0
516,0.0
542,0.0
592,4760020.397988959
632,32920626.946740776
686,1.0
687,1.0
688,2.0
2,21, 1,21, 0, 2,30.00,40.00,Monday
250,-0.4635714161431189
251,37939733.28727657
336,0.0
385,22.191248473993518
386,26.797091820249364
387,-1.0567863096194623
388,0.0
425,0.0
450,0.0
451,0.0
452,-2.1654152659578014
453,0.0
490,0.0
515,0.0
516,0.0
542,0.0
592,4760020.397988958
632,32920727.185138784
686,1.0
687,1.0
688,2.0
2,21, 1,21, 0, 2,40.00,50.00,Monday
250,-0.4637439573993705
251,37939826.68815184
336,0.0
385,22.191248473993518
386,26.797091820249364
387,-1.0705153101605642
388,0.0
425,0.0
450,0.0
451,0.0
452,-2.1755585353367737
453,0.0
490,0.0
515,0.0
516,0.0
542,0.0
592,4760020.397988958
632,32920821.960121967
686,1.0
687,1.0
688,2.0
2,21, 1,21, 0, 2,50.00,60.00,Monday
250,-0.4639134312785217
251,37939917.85162184
336,0.0
385,22.191248473993518
386,26.797091820249364
387,-1.0833559101431576
388,0.0
425,0.0
450,0.0
451,0.0
452,-2.179613807065602
453,0.0
490,0.0
515,0.0
516,0.0
542,0.0
592,4760020.397988958
632,32920914.77516147
686,1.0
687,1.0
688,2.0
2,21, 1,21, 0, 3, 0.00,10.00,Monday
250,-0.38301995548208456
251,37896362.341607824
336,0.0
385,22.191248473993518
386,26.797091820249364
387,-1.0849262090336524
388,0.0
425,0.0
450,0.0
451,0.0
452,-2.1721598417176615
453,0.0
490,0.0
515,0.0
516,0.0
542,0.0
592,4762558.894114006
632,32918467.530916512
686,1.0
687,1.0
688,2.0
2,21, 1,21, 0, 3,10.00,20.00,Monday
250,-0.2998946326816826
251,37853125.24700305
336,0.0
385,22.191248473993518
386,26.797091820249364
387,-1.0739281510582184
388,0.0
425,0.0
450,0.0
451,0.0
452,-2.1472176172807473
453,0.0
490,0.0
515,0.0
516,0.0
542,0.0
592,4764988.43573097
632,32874004.38655978
686,1.0
687,1.0
688,2.0
2,21, 1,21, 0, 3,20.00,30.00,Monday
250,-0.21776689930858828
251,37810487.08738322
336,0.0
385,22.191248473993518
386,26.797091820249364
387,-1.0547809105246035
388,0.0
425,0.0
450,0.0
451,0.0
452,-2.103332710513061
453,0.0
490,0.0
515,0.0
516,0.0
542,0.0
592,4767308.250738335
632,32828511.11012699
686,1.0
687,1.0
688,2.0
2,21, 1,21, 0, 3,30.00,40.00,Monday
250,-0.13540544628064152
251,37767710.69379351
336,0.0
385,22.191248473993518
386,26.797091820249364
387,-1.031284507775596
388,0.0
425,0.0
450,0.0
451,0.0
452,-2.0436305963069232
453,0.0
490,0.0
515,0.0
516,0.0
542,0.0
592,4769517.689516205
632,32783652.977262434
686,1.0
687,1.0
688,2.0
2,21, 1,21, 0, 3,40.00,50.00,Monday
250,-0.05297727725556362
251,37724908.21897443
336,0.0
385,22.191248473993518
386,26.797091820249364
387,-1.0047543375455346
388,0.0
425,0.0
450,0.0
451,0.0
452,-1.9725929351064118
453,0.0
490,0.0
515,0.0
516,0.0
542,0.0
592,4771616.115684971
632,32738789.86746885
686,1.0
687,1.0
688,2.0
2,21, 1,21, 0, 3,50.00,60.00,Monday
250,0.02948796050814463
251,37682092.99803538
336,0.0
385,22.191248473993518
386,26.797091820249364
387,-0.9750071337296078
388,0.0
425,0.0
450,0.0
451,0.0
452,-1.893840025320397
453,0.0
490,0.0
515,0.0
516,0.0
542,0.0
592,4773602.736238396
632,32694009.866787285
686,1.0
687,1.0
688,2.0
2,21, 1,21, 0, 4, 0.00,10.00,Monday
250,0.030924854223233482
251,37682923.44743754
336,0.0
385,22.191248473993518
386,26.797091820249364
387,-0.9524626802853395
388,0.0
425,0.0
450,0.0
451,0.0
452,-1.8176566162974759
453,0.0
490,0.0
515,0.0
516,0.0
542,0.0
592,4773428.98237163
632,32651376.897743255
686,1.0
687,1.0
688,2.0
2,21, 1,21, 0, 4,10.00,20.00,Monday
250,0.03015191866430934
251,37683418.44310134
336,0.0
385,22.191248473993518
386,26.797091820249364
387,-0.9398333547055165
388,0.0
425,0.0
450,0.0
451,0.0
452,-1.7530768781078654
453,0.0
490,0.0
515,0.0
516,0.0
542,0.0
592,4773255.169447958
632,32650855.56785834
686,1.0
687,1.0
688,2.0
2,21, 1,21, 0, 4,20.00,30.00,Monday
250,0.030423791622569262
251,37683294.96251734
336,0.0
385,22.191248473993518
386,26.797091820249364
387,-0.9337644197066386
388,0.0
425,0.0
450,0.0
451,0.0
452,-1.7037102096063892
453,0.0
490,0.0
515,0.0
516,0.0
542,0.0
592,4773081.297437258
632,32651468.658274136
686,1.0
687,1.0
688,2.0
2,21, 1,21, 0, 4,30.00,40.00,Monday
250,0.030501367117945006
251,37683295.344513305
336,0.0
385,22.191248473993518
386,26.797091820249364
387,-0.9304929461240936
388,0.0
425,0.0
450,0.0
451,0.0
452,-1.667907548569896
453,0.0
490,0.0
515,0.0
516,0.0
542,0.0
592,4772907.3663094025
632,32651538.329270184
686,1.0
687,1.0
688,2.0
2,21, 1,21, 0, 4,40.00,50.00,Monday
250,0.030550604428827757
251,37683307.76458772
336,0.0
385,22.191248473993518
386,26.797091820249364
387,-0.9282389599546012
388,0.0
425,0.0
450,0.0
451,0.0
452,-1.6420022335773414
453,0.0
490,0.0
515,0.0
516,0.0
542,0.0
592,4772733.376034233
632,32651709.477623053
686,1.0
687,1.0
688,2.0
2,21, 1,21, 0, 4,50.00,60.00,Monday
250,0.030603814946768355
251,37683317.50020778
336,0.0
385,22.191248473993518
386,26.797091820249364
387,-0.9267877709676527
388,0.0
425,0.0
450,0.0
451,0.0
452,-1.6229321598175637
453,0.0
490,0.0
515,0.0
516,0.0
542,0.0
592,4772559.326581573
632,32651895.402567223
686,1.0
687,1.0
688,2.0
2,21, 1,21, 0, 5, 0.00,10.00,Monday
250,0.030653947345961847
251,37683328.99059643
336,0.0
385,22.191248473993518
386,26.797091820249364
387,-0.926168418181589
388,0.0
425,0.0
450,0.0
451,0.0
452,-1.6080796507584905
453,0.0
490,0.0
515,0.0
516,0.0
542,0.0
592,4759720.858689582
632,32664743.703097444
686,1.0
687,1.0
688,2.0
2,21, 1,21, 0, 5,10.00,20.00,Monday
250,0.030723560799134575
251,37684579.33294407
336,0.0
385,22.191248473993518
386,26.797091820249364
387,-0.9262378831436191
388,0.0
425,0.0
450,0.0
451,0.0
452,-1.595134384207765
453,0.0
490,0.0
515,0.0
516,0.0
542,0.0
592,4746877.262331866
632,32678848.134978134
686,1.0
687,1.0
688,2.0
2,21, 1,21, 0, 5,20.00,30.00,Monday
250,0.03079422614449661
251,37685875.2195261
336,0.0
385,22.191248473993518
386,26.797091820249364
387,-0.9267685512751874
388,0.0
425,0.0
450,0.0
451,0.0
452,-1.5826943172419663
453,0.0
490,0.0
515,0.0
516,0.0
542,0.0
592,4734028.534436013
632,32692993.31733924
686,1.0
687,1.0
688,2.0
2,21, 1,21, 0, 5,30.00,40.00,Monday
250,0.030864372786160107
251,37687156.20831889
336,0.0
385,22.191248473993518
386,26.797091820249364
387,-0.9275589293201284
388,0.0
425,0.0
450,0.0
451,0.0
452,-1.5703243772635527
453,0.0
490,0.0
515,0.0
516,0.0
542,0.0
592,4721174.671927155
632,32707127.89058578
686,1.0
687,1.0
688,2.0
2,21, 1,21, 0, 5,40.00,50.00,Monday
250,0.030934794514292235
251,37688440.22483865
336,0.0
385,22.191248473993518
386,26.797091820249364
387,-0.9284732572510825
388,0.0
425,0.0
450,0.0
451,0.0
452,-1.5580918350566042
453,0.0
490,0.0
515,0.0
516,0.0
542,0.0
592,4708315.671727969
632,32721271.0568038
686,1.0
687,1.0
688,2.0
2,21, 1,21, 0, 5,50.00,60.00,Monday
250,0.03100562649678192
251,37689725.000936404
336,0.0
385,22.191248473993518
386,26.797091820249364
387,-0.9294318458442629
388,0.0
425,0.0
450,0.0
451,0.0
452,-1.5461470561949788
453,0.0
490,0.0
515,0.0
516,0.0
542,0.0
592,4695451.530758676
632,32735420.196191274
686,1.0
687,1.0
688,2.0
2,21, 1,21, 0, 6, 0.00,10.00,Monday
250,0.031079840844155406
251,37691008.41117377
336,0.0
385,22.191248473993518
386,26.797091820249364
387,-0.9305206325385875
388,0.0
425,0.0
450,0.0
451,0.0
452,-1.5351834657555825
453,0.0
490,0.0
515,0.0
516,0.0
542,0.0
592,4695264.082255858
632,32736892.878290758
686,1.0
687,1.0
688,2.0
2,21, 1,21, 0, 6,10.00,20.00,Monday
250,0.031134120581122277
251,37691052.05055384
336,0.0
385,22.191248473993518
386,26.797091820249364
387,-0.9318235797279278
388,0.0
425,0.0
450,0.0
451,0.0
452,-1.5260133361310835
453,0.0
490,0.0
515,0.0
516,0.0
542,0.0
592,4695076.569900009
632,32737113.29166441
686,1.0
687,1.0
688,2.0
2,21, 1,21, 0, 6,20.00,30.00,Monday
250,0.03118749976378522
251,37691050.52687972
336,0.0
385,22.191248473993518
386,26.797091820249364
387,-0.9333362917320851
388,0.0
425,0.0
450,0.0
451,0.0
452,-1.5189687338869025
453,0.0
490,0.0
515,0.0
516,0.0
542,0.0
592,4694888.993658494
632,32737298.859139107
686,1.0
687,1.0
688,2.0
2,21, 1,21, 0, 6,30.00,40.00,Monday
250,0.03124207583967614
251,37691064.0929975
336,0.0
385,22.191248473993518
386,26.797091820249364
387,-0.9350176782845148
388,0.0
425,0.0
450,0.0
451,0.0
452,-1.513843076154772
453,0.0
490,0.0
515,0.0
516,0.0
542,0.0
592,4694701.353498662
632,32737500.710196953
686,1.0
687,1.0
688,2.0
2,21, 1,21, 0, 6,40.00,50.00,Monday
250,0.031297350458412025
251,37691074.64148257
336,0.0
385,22.191248473993518
386,26.797091820249364
387,-0.9368361624933385
388,0.0
425,0.0
450,0.0
451,0.0
452,-1.5101852264543316
453,0.0
490,0.0
515,0.0
516,0.0
542,0.0
592,4694513.649387832
632,32737699.339118708
686,1.0
687,1.0
688,2.0
2,21, 1,21, 0, 6,50.00,60.00,Monday
250,0.03135342010630851
251,37691084.31860221
336,0.0
385,22.191248473993518
386,26.797091820249364
387,-0.9387746813202609
388,0.0
425,0.0
450,0.0
451,0.0
452,-1.5075741634790631
453,0.0
490,0.0
515,0.0
516,0.0
542,0.0
592,4694325.88129331
632,32737897.212634932
686,1.0
687,1.0
688,2.0
2,21, 1,21, 0, 7, 0.00,10.00,Monday
250,0.029917397531885503
251,37691897.84710951
336,0.0
385,22.191248473993518
386,26.797091820249364
387,-0.943260174739904
388,0.0
425,0.0
450,0.0
451,0.0
452,-1.5108751722947005
453,0.0
490,0.0
515,0.0
516,0.0
542,0.0
592,4723573.583255435
632,32708659.270150695
686,1.0
687,1.0
688,2.0
2,21, 1,21, 0, 7,10.00,20.00,Monday
250,0.029946363315377585
251,37689038.80283219
336,0.0
385,22.191248473993518
386,26.797091820249364
387,-0.9524701084240821
388,0.0
425,0.0
450,0.0
451,0.0
452,-1.529555485860731
453,0.0
490,0.0
515,0.0
516,0.0
542,0.0
592,4752837.186047653
632,32677325.790495533
686,1.0
687,1.0
688,2.0
2,21, 1,21, 0, 7,20.00,30.00,Monday
250,0.03004483748913044
251,37686035.555755116
336,0.0
385,22.191248473993518
386,26.797091820249364
387,-0.9666452835819592
388,0.0
425,0.0
450,0.0
451,0.0
452,-1.568991797101642
453,0.0
490,0.0
515,0.0
516,0.0
542,0.0
592,4782116.702651945
632,32645080.46302812
686,1.0
687,1.0
688,2.0
2,21, 1,21, 0, 7,30.00,40.00,Monday
250,0.030123880292040398
251,37683077.42796579
336,0.0
385,22.191248473993518
386,26.797091820249364
387,-0.984829089939618
388,0.0
425,0.0
450,0.0
451,0.0
452,-1.6268178583000807
453,0.0
490,0.0
515,0.0
516,0.0
542,0.0
592,4811412.146064443
632,32612816.42273589
686,1.0
687,1.0
688,2.0
2,21, 1,21, 0, 7,40.00,50.00,Monday
250,0.03020782021117616
251,37680108.967715815
336,0.0
385,22.191248473993518
386,26.797091820249364
387,-1.005941337193913
388,0.0
425,0.0
450,0.0
451,0.0
452,-1.6967789836414364
453,0.0
490,0.0
515,0.0
516,0.0
542,0.0
592,4840723.52929546
632,32580539.213145968
686,1.0
687,1.0
688,2.0
2,21, 1,21, 0, 7,50.00,60.00,Monday
250,0.030293937780702797
251,37677136.704421006
336,0.0
385,22.191248473993518
386,26.797091820249364
387,-1.029234241315853
388,0.0
425,0.0
450,0.0
451,0.0
452,-1.773174424230753
453,0.0
490,0.0
515,0.0
516,0.0
542,0.0
592,4870050.865369484
632,32548240.782883555
686,1.0
687,1.0
688,2.0
2,21, 1,21, 0, 8, 0.00,10.00,Monday
250,0.23094957999233906
251,37566169.16555878
336,0.0
385,22.191248473993518
386,26.797091820249364
387,-1.02528177461362
388,0.0
425,0.0
450,0.0
451,0.0
452,-1.8321480380744322
453,0.0
490,0.0
515,0.0
516,0.0
542,0.0
592,4889730.300311493
632,32525587.660155587
686,1.0
687,1.0
688,2.0
2,21, 1,21, 0, 8,10.00,20.00,Monday
250,0.4317801732922183
251,37460260.80435568
336,0.0
385,22.191248473993518
386,26.797091820249364
387,-0.9835703822292018
388,0.0
425,0.0
450,0.0
451,0.0
452,-1.8234008607640981
453,0.0
490,0.0
515,0.0
516,0.0
542,0.0
592,4909380.719869503
632,32400129.50559075
686,1.0
687,1.0
688,2.0
2,21, 1,21, 0, 8,20.00,30.00,Monday
250,0.6295153254140506
251,37356205.93514685
336,0.0
385,22.191248473993518
386,26.797091820249364
387,-0.9124663570488573
388,0.0
425,0.0
450,0.0
451,0.0
452,-1.7161313370532192
453,0.0
490,0.0
515,0.0
516,0.0
542,0.0
592,4929009.6156952735
632,32274785.84020509
686,1.0
687,1.0
688,2.0
2,21, 1,21, 0, 8,30.00,40.00,Monday
250,0.8281117958132305
251,37251621.75387654
336,0.0
385,22.191248473993518
386,26.797091820249364
387,-0.8219951277904692
388,0.0
425,0.0
450,0.0
451,0.0
452,-1.520840394422743
453,0.0
490,0.0
515,0.0
516,0.0
542,0.0
592,4952863.6467726575
632,32146818.22762313
686,1.0
687,1.0
688,2.0
2,21, 1,21, 0, 8,40.00,50.00,Monday
250,1.0268244983801258
251,37146580.42177469
336,0.0
385,22.191248473993518
386,26.797091820249364
387,-0.7201806794296568
388,0.0
425,0.0
450,0.0
451,0.0
452,-1.2449277165699588
453,0.0
490,0.0
515,0.0
516,0.0
542,0.0
592,4977062.298687914
632,32017646.52263036
686,1.0
687,1.0
688,2.0
2,21, 1,21, 0, 8,50.00,60.00,Monday
250,1.2266535940694379
251,37041852.04775493
336,0.0
385,22.191248473993518
386,26.797091820249364
387,-0.6241785264287307
388,0.0
425,0.0
450,0.0
451,0.0
452,-0.9316245029384869
453,0.0
490,0.0
515,0.0
516,0.0
542,0.0
592,5001395.306277512
632,31836534.220043372
686,1.0
687,1.0
688,2.0
2,21, 1,21, 0, 9, 0.00,10.00,Monday
250,1.491435339623175
251,36903165.013946205
336,0.0
385,22.191248473993518
386,26.797091820249364
387,-0.4856602920596377
388,0.0
425,0.0
450,0.0
451,0.0
452,-0.45196083634077366
453,0.0
490,0.0
515,0.0
516,0.0
542,0.0
592,5029363.153609448
632,31686723.54955014
686,1.0
687,1.0
688,2.0
2,21, 1,21, 0, 9,10.00,20.00,Monday
250,1.7560751518694429
251,36763630.20340924
336,0.0
385,22.191248473993518
386,26.797091820249364
387,-0.33473962783822186
388,0.0
425,0.0
450,0.0
451,0.0
452,0.07228611636228677
453,0.0
490,0.0
515,0.0
516,0.0
542,0.0
592,5057356.862312016
632,31519141.91475411
686,1.0
687,1.0
688,2.0
2,21, 1,21, 0, 9,20.00,30.00,Monday
250,2.020910083435405
251,36623982.88600363
336,0.0
385,22.191248473993518
386,26.797091820249364
387,-0.17483427506514326
388,0.0
425,0.0
450,0.0
451,0.0
452,0.6369628313313196
453,0.0
490,0.0
515,0.0
516,0.0
542,0.0
592,5085392.284952975
632,31351512.073120676
686,1.0
687,1.0
688,2.0
2,21, 1,21, 0, 9,30.00,40.00,Monday
250,2.2856407378978245
251,36484390.3677708
336,0.0
385,22.191248473993518
386,26.797091820249364
387,-0.005140542835466149
388,0.0
425,0.0
450,0.0
451,0.0
452,1.2315876153000485
453,0.0
490,0.0
515,0.0
516,0.0
542,0.0
592,5113485.892141593
632,31183799.006502353
686,1.0
687,1.0
688,2.0
2,21, 1,21, 0, 9,40.00,50.00,Monday
250,2.5508368744223384
251,36343585.78906779
336,0.0
385,22.191248473993536
386,26.797091820249385
387,0.13995730064478715
388,0.0
425,0.0
450,0.0
451,0.0
452,1.733472150193828
453,0.0
490,0.0
515,0.0
516,0.0
542,0.0
592,5141654.529350725
632,30990774.044297583
686,1.0000000000000009
687,1.0000000000000009
688,2.0000000000000018
2,21, 1,21, 0, 9,50.00,60.00,Monday
250,2.81611456110974
251,36203152.913626954
336,0.0
385,22.191248473993518
386,26.797091820249364
387,0.29208058942805176
388,0.0
425,0.0
450,0.0
451,0.0
452,2.274131528390276
453,0.0
490,0.0
515,0.0
516,0.0
542,0.0
592,5169915.672059795
632,30847350.963863395
686,1.0
687,1.0
688,2.0
2,21, 1,21, 0,10, 0.00,10.00,Monday
250,3.276077658066641
251,35959123.25787637
336,0.0
385,22.191248473993518
386,26.797091820249364
387,0.4825127493972892
388,0.0
425,0.0
450,0.0
451,0.0
452,2.833626208347545
453,0.0
490,0.0
515,0.0
516,0.0
542,0.0
592,5241404.10703412
632,30541702.22377813
686,1.0
687,1.0
688,2.0
2,21, 1,21, 0,10,10.00,20.00,Monday
250,3.7375639761101453
251,35714870.150940165
336,0.0
385,22.191248473993518
386,26.797091820249364
387,0.7735597378897295
388,0.0
425,0.0
450,0.0
451,0.0
452,3.588538032307298
453,0.0
490,0.0
515,0.0
516,0.0
542,0.0
592,5315291.857316207
632,30222873.699554462
686,1.0
687,1.0
688,2.0
2,21, 1,21, 0,10,20.00,30.00,Monday
250,4.199646231928183
251,35469042.57388636
336,0.0
385,22.19124847399351
386,26.797091820249353
387,1.0539763833062756
388,0.0
425,0.0
450,0.0
451,0.0
452,4.277711046273589
453,0.0
490,0.0
515,0.0
516,0.0
542,0.0
592,5391793.298050373
632,29900694.814136077
686,0.9999999999999996
687,0.9999999999999996
688,1.9999999999999991
2,21, 1,21, 0,10,30.00,40.00,Monday
250,4.66204472246198
251,35222911.917313784
336,0.0
385,22.191248473993525
386,26.797091820249374
387,1.3357659521385776
388,0.0
425,0.0
450,0.0
451,0.0
452,4.9792720719672685
453,0.0
490,0.0
515,0.0
516,0.0
542,0.0
592,5471132.199313744
632,29575326.20518484
686,1.0000000000000004
687,1.0000000000000004
688,2.000000000000001
2,21, 1,21, 0,10,40.00,50.00,Monday
250,5.1248885789772824
251,34976401.20714613
336,0.0
385,22.191248473993536
386,26.797091820249385
387,1.6259229400922364
388,0.0
425,0.0
450,0.0
451,0.0
452,5.7432869706696845
453,0.0
490,0.0
515,0.0
516,0.0
542,0.0
592,5553542.3757593315
632,29246531.987098582
686,1.0000000000000009
687,1.0000000000000009
688,2.0000000000000018
2,21, 1,21, 0,10,50.00,60.00,Monday
250,5.587762034586646
251,34729727.83826747
336,0.0
385,22.191248473993536
386,26.797091820249385
387,1.9261638741567704
388,0.0
425,0.0
450,0.0
451,0.0
452,6.572417776437959
453,0.0
490,0.0
515,0.0
516,0.0
542,0.0
592,5639267.778995938
632,28914187.200347155
686,1.0000000000000009
687,1.0000000000000009
688,2.0000000000000018
2,21, 1,21, 0,11, 0.00,10.00,Monday
250,5.871344245576447
251,34578824.38427392
336,0.0
385,22.191248473993518
386,26.797091820249364
387,2.212688003728679
388,0.0
425,0.0
450,0.0
451,0.0
452,7.4276634124568
453,0.0
490,0.0
515,0.0
516,0.0
542,0.0
592,5689519.861596226
632,28680973.736350954
686,1.0
687,1.0
688,2.0
2,21, 1,21, 0,11,10.00,20.00,Monday
250,6.153710599304736
251,34428508.28500308
336,0.0
385,22.191248473993518
386,26.797091820249364
387,2.4824656579181963
388,0.0
425,0.0
450,0.0
451,0.0
452,8.278223657592909
453,0.0
490,0.0
515,0.0
516,0.0
542,0.0
592,5740969.350869596
632,28478993.84222688
686,1.0
687,1.0
688,2.0
2,21, 1,21, 0,11,20.00,30.00,Monday
250,6.436106362370488
251,34278128.71114214
336,0.0
385,22.19124847399351
386,26.797091820249353
387,2.754628191786919
388,0.0
425,0.0
450,0.0
451,0.0
452,9.124873043068469
453,0.0
490,0.0
515,0.0
516,0.0
542,0.0
592,5793671.095282218
632,28275933.878593016
686,0.9999999999999996
687,0.9999999999999996
688,1.9999999999999991
2,21, 1,21, 0,11,30.00,40.00,Monday
250,6.718025466441173
251,34127953.09113495
336,0.0
385,22.191248473993525
386,26.797091820249374
387,3.031962764677947
388,0.0
425,0.0
450,0.0
451,0.0
452,9.946896197088876
453,0.0
490,0.0
515,0.0
516,0.0
542,0.0
592,5847681.4279665835
632,28071679.35667676
686,1.0000000000000004
687,1.0000000000000004
688,2.000000000000001
2,21, 1,21, 0,11,40.00,50.00,Monday
250,6.999729679370938
251,33977839.64398889
336,0.0
385,22.191248473993536
386,26.797091820249385
387,3.3110678876953985
388,0.0
425,0.0
450,0.0
451,0.0
452,10.692407839562614
453,0.0
490,0.0
515,0.0
516,0.0
542,0.0
592,5903058.082199926
632,27866168.306685254
686,1.0000000000000009
687,1.0000000000000009
688,2.0000000000000018
2,21, 1,21, 0,11,50.00,60.00,Monday
250,7.281143035421927
251,33827827.8871768
336,0.0
385,22.191248473993536
386,26.797091820249385
387,3.5880908968993808
388,0.0
425,0.0
450,0.0
451,0.0
452,11.328076508401912
453,0.0
490,0.0
515,0.0
516,0.0
542,0.0
592,5959860.237244541
632,27659320.23395732
686,1.0000000000000009
687,1.0000000000000009
688,2.0000000000000018
2,21, 1,21, 0,12, 0.00,10.00,Monday
250,7.547722270335208
251,33685724.93507283
336,0.0
385,22.191248473993518
386,26.797091820249364
387,3.8280758533754966
388,0.0
425,0.0
450,0.0
451,0.0
452,11.827251483686272
453,0.0
490,0.0
515,0.0
516,0.0
542,0.0
592,5991096.197635709
632,27509148.577461623
686,1.0
687,1.0
688,2.0
2,21, 1,21, 0,12,10.00,20.00,Monday
250,7.811549309779844
251,33548574.859416768
336,0.0
385,22.191248473993518
386,26.797091820249364
387,4.120458687734692
388,0.0
425,0.0
450,0.0
451,0.0
452,12.39124490936625
453,0.0
490,0.0
515,0.0
516,0.0
542,0.0
592,7572016.881221028
632,25789109.674152233
686,1.0
687,1.0
688,2.0
2,21, 1,21, 0,12,20.00,30.00,Monday
250,8.076801133925205
251,33408960.237099033
336,0.0
385,22.191248473993518
386,26.797091820249364
387,4.389573989212917
388,0.0
425,0.0
450,0.0
451,0.0
452,12.90671023262995
453,0.0
490,0.0
515,0.0
516,0.0
542,0.0
592,7609409.155487607
632,25612459.475233026
686,1.0
687,1.0
688,2.0
2,21, 1,21, 0,12,30.00,40.00,Monday
250,8.341838444626474
251,33269463.614145793
336,0.0
385,22.191248473993518
386,26.797091820249364
387,4.6483820620201515
388,0.0
425,0.0
450,0.0
451,0.0
452,13.398173886983422
453,0.0
490,0.0
515,0.0
516,0.0
542,0.0
592,7646583.592010483
632,25435730.58749705
686,1.0
687,1.0
688,2.0
2,21, 1,21, 0,12,40.00,50.00,Monday
250,8.606810019012935
251,33130002.04667937
336,0.0
385,22.191248473993518
386,26.797091820249364
387,4.902804186106808
388,0.0
425,0.0
450,0.0
451,0.0
452,13.839968591751507
453,0.0
490,0.0
515,0.0
516,0.0
542,0.0
592,7683540.190789656
632,25259294.637822423
686,1.0
687,1.0
688,2.0
2,21, 1,21, 0,12,50.00,60.00,Monday
250,8.87175961906313
251,32990551.537231803
336,0.0
385,22.191248473993518
386,26.797091820249364
387,5.1517475474390775
388,0.0
425,0.0
450,0.0
451,0.0
452,14.207799032946635
453,0.0
490,0.0
515,0.0
516,0.0
542,0.0
592,7720278.951825122
632,25083099.935775727
686,1.0
687,1.0
688,2.0
2,21, 1,21, 0,13, 0.00,10.00,Monday
250,9.05431321363384
251,32892203.881275427
336,0.0
385,22.191248473993518
386,26.797091820249364
387,5.384129426888059
388,0.0
425,0.0
450,0.0
451,0.0
452,14.49907230095869
453,0.0
490,0.0
515,0.0
516,0.0
542,0.0
592,7745410.487127085
632,24982452.903684642
686,1.0
687,1.0
688,2.0
2,21, 1,21, 0,13,10.00,20.00,Monday
250,9.23605700391925
251,32798084.45039188
336,0.0
385,22.191248473993518
386,26.797091820249364
387,5.602906893333237
388,0.0
425,0.0
450,0.0
451,0.0
452,14.728309499147281
453,0.0
490,0.0
515,0.0
516,0.0
542,0.0
592,7770439.060057996
632,24866852.40449353
686,1.0
687,1.0
688,2.0
2,21, 1,21, 0,13,20.00,30.00,Monday
250,9.418884485495434
251,32703560.570877653
336,0.0
385,22.191248473993518
386,26.797091820249364
387,5.80779750267654
388,0.0
425,0.0
450,0.0
451,0.0
452,14.911465623880993
453,0.0
490,0.0
515,0.0
516,0.0
542,0.0
592,7795364.67061786
632,24748000.403035425
686,1.0
687,1.0
688,2.0
2,21, 1,21, 0,13,30.00,40.00,Monday
250,9.601435377209484
251,32609213.553580165
336,0.0
385,22.191248473993518
386,26.797091820249364
387,6.002820878299039
388,0.0
425,0.0
450,0.0
451,0.0
452,15.060343261242137
453,0.0
490,0.0
515,0.0
516,0.0
542,0.0
592,7820187.318806681
632,24628694.11881946
686,1.0
687,1.0
688,2.0
2,21, 1,21, 0,13,40.00,50.00,Monday
250,9.783879333624215
251,32514957.86809331
336,0.0
385,22.191248473993518
386,26.797091820249364
387,6.191726308426316
388,0.0
425,0.0
450,0.0
451,0.0
452,15.179638529818007
453,0.0
490,0.0
515,0.0
516,0.0
542,0.0
592,7844907.00462445
632,24509673.87738336
686,1.0
687,1.0
688,2.0
2,21, 1,21, 0,13,50.00,60.00,Monday
250,9.966340773894318
251,32420725.82368602
336,0.0
385,22.191248473993518
386,26.797091820249364
387,6.375814252506498
388,0.0
425,0.0
450,0.0
451,0.0
452,15.27299756063952
453,0.0
490,0.0
515,0.0
516,0.0
542,0.0
592,7869523.72807117
632,24390847.59457122
686,1.0
687,1.0
688,2.0
2,21, 1,21, 0,14, 0.00,10.00,Monday
250,10.166148312252483
251,32317157.947756056
336,0.0
385,22.191248473993518
386,26.797091820249364
387,6.5579221020918474
388,0.0
425,0.0
450,0.0
451,0.0
452,15.329033773929767
453,0.0
490,0.0
515,0.0
516,0.0
542,0.0
592,7896260.907308879
632,24269924.650916908
686,1.0
687,1.0
688,2.0
2,21, 1,21, 0,14,10.00,20.00,Monday
250,10.365166352761978
251,32213630.02667877
336,0.0
385,22.191248473993518
386,26.797091820249364
387,6.738181433829044
388,0.0
425,0.0
450,0.0
451,0.0
452,15.329439437834093
453,0.0
490,0.0
515,0.0
516,0.0
542,0.0
592,7922875.552815753
632,24139368.89604203
686,1.0
687,1.0
688,2.0
2,21, 1,21, 0,14,20.00,30.00,Monday
250,10.563917621884562
251,32110249.368378468
336,0.0
385,22.191248473993518
386,26.797091820249364
387,6.91443631463326
388,0.0
425,0.0
450,0.0
451,0.0
452,15.273756330025895
453,0.0
490,0.0
515,0.0
516,0.0
542,0.0
592,7949367.664591796
632,24009365.33357134
686,1.0
687,1.0
688,2.0
2,21, 1,21, 0,14,30.00,40.00,Monday
250,10.762507490376983
251,32006983.145774566
336,0.0
385,22.191248473993518
386,26.797091820249364
387,7.080737297694635
388,0.0
425,0.0
450,0.0
451,0.0
452,15.151463227945984
453,0.0
490,0.0
515,0.0
516,0.0
542,0.0
592,7975737.242637003
632,23879655.81877354
686,1.0
687,1.0
688,2.0
2,21, 1,21, 0,14,40.00,50.00,Monday
250,10.960951647622407
251,31903817.161016837
336,0.0
385,22.191248473993518
386,26.797091820249364
387,7.233391066505739
388,0.0
425,0.0
450,0.0
451,0.0
452,14.942840327605504
453,0.0
490,0.0
515,0.0
516,0.0
542,0.0
592,8001984.286951375
632,23750177.694825873
686,1.0
687,1.0
688,2.0
2,21, 1,21, 0,14,50.00,60.00,Monday
250,11.159301250993678
251,31800724.486659594
336,0.0
385,22.191248473993518
386,26.797091820249364
387,7.372687145938173
388,0.0
425,0.0
450,0.0
451,0.0
452,14.650931729170372
453,0.0
490,0.0
515,0.0
516,0.0
542,0.0
592,8028108.797534915
632,23620923.209970117
686,1.0
687,1.0
688,2.0
2,21, 1,21, 0,15, 0.00,10.00,Monday
250,11.423848039792265