Program Version,EnergyPlus, Version 24.2.0-94a887817b, YMD=2025.01.22 00:04
1,5,Environment Title[],Latitude[deg],Longitude[deg],Time Zone[],Elevation[m]
2,8,Day of Simulation[],Month[],Day of Month[],DST Indicator[1=yes 0=no],Hour[],StartMinute[],EndMinute[],DayType
3,5,Cumulative Day of Simulation[],Month[],Day of Month[],DST Indicator[1=yes 0=no],DayType  ! When Daily Report Variables Requested
4,2,Cumulative Days of Simulation[],Month[]  ! When Monthly Report Variables Requested
5,1,Cumulative Days of Simulation[] ! When Run Period Report Variables Requested
6,1,Calendar Year of Simulation[] ! When Annual Report Variables Requested
250,1,LIVING ZONE,Zone Air Temperature [C] !TimeStep,REPORTSCH
251,1,LIVING ZONE,Zone Air System Sensible Heating Energy [J] !TimeStep,REPORTSCH
336,1,LIVING ZONE,Zone Air System Sensible Cooling Energy [J] !TimeStep,REPORTSCH
385,1,LIVING ZONE,Zone Thermostat Heating Setpoint Temperature [C] !TimeStep,REPORTSCH
386,1,LIVING ZONE,Zone Thermostat Cooling Setpoint Temperature [C] !TimeStep,REPORTSCH
387,1,GARAGE ZONE,Zone Air Temperature [C] !TimeStep,REPORTSCH
388,1,GARAGE ZONE,Zone Air System Sensible Heating Energy [J] !TimeStep,REPORTSCH
425,1,GARAGE ZONE,Zone Air System Sensible Cooling Energy [J] !TimeStep,REPORTSCH
450,1,GARAGE ZONE,Zone Thermostat Heating Setpoint Temperature [C] !TimeStep,REPORTSCH
451,1,GARAGE ZONE,Zone Thermostat Cooling Setpoint Temperature [C] !TimeStep,REPORTSCH
452,1,ATTIC ZONE,Zone Air Temperature [C] !TimeStep,REPORTSCH
453,1,ATTIC ZONE,Zone Air System Sensible Heating Energy [J] !TimeStep,REPORTSCH
490,1,ATTIC ZONE,Zone Air System Sensible Cooling Energy [J] !TimeStep,REPORTSCH
515,1,ATTIC ZONE,Zone Thermostat Heating Setpoint Temperature [C] !TimeStep,REPORTSCH
516,1,ATTIC ZONE,Zone Thermostat Cooling Setpoint Temperature [C] !TimeStep,REPORTSCH
542,1,ACDXCOIL 1,Cooling Coil Total Cooling Energy [J] !TimeStep,REPORTSCH
592,1,HEAT PUMP DX HEATING COIL 1,Heating Coil Heating Energy [J] !TimeStep,REPORTSCH
632,1,SUPP HEATING COIL 1,Heating Coil Heating Energy [J] !TimeStep,REPORTSCH
686,1,TWOSPEED HEAT PUMP 1,Unitary System DX Coil Cycling Ratio [] !TimeStep,REPORTSCH
687,1,TWOSPEED HEAT PUMP 1,Unitary System DX Coil Speed Ratio [] !TimeStep,REPORTSCH
688,1,TWOSPEED HEAT PUMP 1,Unitary System DX Coil Speed Level [] !TimeStep,REPORTSCH
End of Data Dictionary
1,RUN PERIOD 1,  41.98, -87.92,  -6.00, 201.00
2,21, 1,21, 0, 1, 0.00,10.00,Monday
250,0.2876892985126625
251,37525454.681454785
336,0.0
385,18.576598091962797
386,24.447168261715692
387,-0.92337103774464
388,0.0
425,0.0
450,0.0
451,0.0
452,-1.9491428926260004
453,0.0
490,0.0
515,0.0
516,0.0
542,0.0
592,4839743.9850796405
632,32429738.45523875
686,1.0
687,1.0
688,2.0
2,21, 1,21, 0, 1,10.00,20.00,Monday
250,0.287758994250005
251,37526957.316507146
336,0.0
385,18.576598091962797
386,24.447168261715692
387,-0.9317942783896797
388,0.0
425,0.0
450,0.0
451,0.0
452,-1.9310971686671492
453,0.0
490,0.0
515,0.0
516,0.0
542,0.0
592,4823801.676011793
632,32444301.729997117
686,1.0
687,1.0
688,2.0
2,21, 1,21, 0, 1,20.00,30.00,Monday
250,0.2872795716950318
251,37528875.448887706
336,0.0
385,18.576598091962797
386,24.447168261715692
387,-0.9414323729346171
388,0.0
425,0.0
450,0.0
451,0.0
452,-1.9279686431229133
453,0.0
490,0.0
515,0.0
516,0.0
542,0.0
592,4807858.162905219
632,32461867.766932845
686,1.0
687,1.0
688,2.0
2,21, 1,21, 0, 1,30.00,40.00,Monday
250,0.286950868106193
251,37530676.19023465
336,0.0
385,18.576598091962797
386,24.447168261715692
387,-0.9524906136491176
388,0.0
425,0.0
450,0.0
451,0.0
452,-1.9407627264942386
453,0.0
490,0.0
515,0.0
516,0.0
542,0.0
592,4791913.445623511
632,32479694.355368663
686,1.0
687,1.0
688,2.0
2,21, 1,21, 0, 1,40.00,50.00,Monday
250,0.28661030132110177
251,37532487.22602877
336,0.0
385,18.576598091962797
386,24.447168261715692
387,-0.9651270497882637
388,0.0
425,0.0
450,0.0
451,0.0
452,-1.9678747408559019
453,0.0
490,0.0
515,0.0
516,0.0
542,0.0
592,4775967.524030241
632,32497444.918141037
686,1.0
687,1.0
688,2.0
2,21, 1,21, 0, 1,50.00,60.00,Monday
250,0.2862605137945383
251,37534305.52994278
336,0.0
385,18.576598091962797
386,24.447168261715692
387,-0.9795308828791013
388,0.0
425,0.0
450,0.0
451,0.0
452,-2.0077524929583195
453,0.0
490,0.0
515,0.0
516,0.0
542,0.0
592,4760020.397988958
632,32515205.375629656
686,1.0
687,1.0
688,2.0
2,21, 1,21, 0, 2, 0.00,10.00,Monday
250,0.28592799562445015
251,37536114.49159495
336,0.0
385,18.576598091962797
386,24.447168261715692
387,-0.995031531631045
388,0.0
425,0.0
450,0.0
451,0.0
452,-2.054369951581852
453,0.0
490,0.0
515,0.0
516,0.0
542,0.0
592,4760020.397988958
632,32517023.62743506
686,1.0
687,1.0
688,2.0
2,21, 1,21, 0, 2,10.00,20.00,Monday
250,0.2855505154976606
251,37536407.088075936
336,0.0
385,18.576598091962797
386,24.447168261715692
387,-1.01069928874164
388,0.0
425,0.0
450,0.0
451,0.0
452,-2.0969895671318355
453,0.0
490,0.0
515,0.0
516,0.0
542,0.0
592,4760020.397988959
632,32517292.014587384
686,1.0
687,1.0
688,2.0
2,21, 1,21, 0, 2,20.00,30.00,Monday
250,0.2851701089413783
251,37536581.2337975
336,0.0
385,18.576598091962797
386,24.447168261715692
387,-1.0259867464584116
388,0.0
425,0.0
450,0.0
451,0.0
452,-2.128396047746733
453,0.0
490,0.0
515,0.0
516,0.0
542,0.0
592,4760020.397988959
632,32517464.584796548
686,1.0
687,1.0
688,2.0
2,21, 1,21, 0, 2,30.00,40.00,Monday
250,0.2847991291172105
251,37536786.6914475
336,0.0
385,18.576598091962797
386,24.447168261715692
387,-1.040573354361628
388,0.0
425,0.0
450,0.0
451,0.0
452,-2.1477737344790504
453,0.0
490,0.0
515,0.0
516,0.0
542,0.0
592,4760020.397988956
632,32517675.118054964
686,1.0
687,1.0
688,2.0
2,21, 1,21, 0, 2,40.00,50.00,Monday
250,0.28443412913759075
251,37536985.16376623
336,0.0
385,18.576598091962797
386,24.447168261715692
387,-1.0543175147320245
388,0.0
425,0.0
450,0.0
451,0.0
452,-2.1579325491049364
453,0.0
490,0.0
515,0.0
516,0.0
542,0.0
592,4760020.397988958
632,32517876.810093872
686,1.0
687,1.0
688,2.0
2,21, 1,21, 0, 2,50.00,60.00,Monday
250,0.2840759110357402
251,37537177.81880907
336,0.0
385,18.576598091962797
386,24.447168261715692
387,-1.0671804561087554
388,0.0
425,0.0
450,0.0
451,0.0
452,-2.162004739179252
453,0.0
490,0.0
515,0.0
516,0.0
542,0.0
592,4760020.397988958
632,32518073.116707508
686,1.0
687,1.0
688,2.0
2,21, 1,21, 0, 3, 0.00,10.00,Monday
250,0.36228280108871375
251,37495068.80886859
336,0.0
385,18.576598091962797
386,24.447168261715692
387,-1.0687921085834473
388,0.0
425,0.0
450,0.0
451,0.0
452,-2.154590358583886
453,0.0
490,0.0
515,0.0
516,0.0
542,0.0
592,4762558.894114006
632,32515727.4587603
686,1.0
687,1.0
688,2.0
2,21, 1,21, 0, 3,10.00,20.00,Monday
250,0.4451091080866173
251,37451931.57335079
336,0.0
385,18.576598091962797
386,24.447168261715692
387,-1.0578788719446313
388,0.0
425,0.0
450,0.0
451,0.0
452,-2.129737553734435
453,0.0
490,0.0
515,0.0
516,0.0
542,0.0
592,4764988.4357309695
632,32472649.65381376
686,1.0
687,1.0
688,2.0
2,21, 1,21, 0, 3,20.00,30.00,Monday
250,0.5260518802164784
251,37409928.23915388
336,0.0
385,18.576598091962797
386,24.447168261715692
387,-1.0388761687252919
388,0.0
425,0.0
450,0.0
451,0.0
452,-2.0859682866511755
453,0.0
490,0.0
515,0.0
516,0.0
542,0.0
592,4767308.250738333
632,32427314.153851748
686,1.0
687,1.0
688,2.0
2,21, 1,21, 0, 3,30.00,40.00,Monday
250,0.6073106665277321
251,37367727.05055747
336,0.0
385,18.576598091962797
386,24.447168261715692
387,-1.015584672705582
388,0.0
425,0.0
450,0.0
451,0.0
452,-2.0263801711250444
453,0.0
490,0.0
515,0.0
516,0.0
542,0.0
592,4769517.689516205
632,32383075.512360517
686,1.0
687,1.0
688,2.0
2,21, 1,21, 0, 3,40.00,50.00,Monday
250,0.6887444232317017
251,37325441.75148259
336,0.0
385,18.576598091962797
386,24.447168261715692
387,-0.9893177373296822
388,0.0
425,0.0
450,0.0
451,0.0
452,-1.9554445446080075
453,0.0
490,0.0
515,0.0
516,0.0
542,0.0
592,4771616.115684973
632,32338787.84855998
686,1.0
687,1.0
688,2.0
2,21, 1,21, 0, 3,50.00,60.00,Monday
250,0.7702493298500507
251,37283126.77105831
336,0.0
385,18.576598091962797
386,24.447168261715692
387,-0.9599071747816798
388,0.0
425,0.0
450,0.0
451,0.0
452,-1.8767877307637266
453,0.0
490,0.0
515,0.0
516,0.0
542,0.0
592,4773602.736238394
632,32294526.419767957
686,1.0
687,1.0
688,2.0
2,21, 1,21, 0, 4, 0.00,10.00,Monday
250,0.7732547049797428
251,37283095.33544755
336,0.0
385,18.576598091962797
386,24.447168261715692
387,-0.9378371019408882
388,0.0
425,0.0
450,0.0
451,0.0
452,-1.8006857933619085
453,0.0
490,0.0
515,0.0
516,0.0
542,0.0
592,4773428.98237163
632,32252393.514068414
686,1.0
687,1.0
688,2.0
2,21, 1,21, 0, 4,10.00,20.00,Monday
250,0.7716938146613337
251,37284059.203702606
336,0.0
385,18.576598091962797
386,24.447168261715692
387,-0.9256595684264051
388,0.0
425,0.0
450,0.0
451,0.0
452,-1.7361584767866634
453,0.0
490,0.0
515,0.0
516,0.0
542,0.0
592,4773255.169447958
632,32251071.962162547
686,1.0
687,1.0
688,2.0
2,21, 1,21, 0, 4,20.00,30.00,Monday
250,0.7721553913726892
251,37283819.44902417
336,0.0
385,18.576598091962797
386,24.447168261715692
387,-0.9198732128774605
388,0.0
425,0.0
450,0.0
451,0.0
452,-1.6868299409127245
453,0.0
490,0.0
515,0.0
516,0.0
542,0.0
592,4773081.29743726
632,32252095.312912583
686,1.0
687,1.0
688,2.0
2,21, 1,21, 0, 4,30.00,40.00,Monday
250,0.7723495787779898
251,37283758.320857294
336,0.0
385,18.576598091962797
386,24.447168261715692
387,-0.9167340997535209
388,0.0
425,0.0
450,0.0
451,0.0
452,-1.6510798889571232
453,0.0
490,0.0
515,0.0
516,0.0
542,0.0
592,4772907.366309401
632,32252064.10898982
686,1.0
687,1.0
688,2.0
2,21, 1,21, 0, 4,40.00,50.00,Monday
250,0.7724390508292402
251,37283750.03954894
336,0.0
385,18.576598091962797
386,24.447168261715692
387,-0.9146112902171322
388,0.0
425,0.0
450,0.0
451,0.0
452,-1.625387771624971
453,0.0
490,0.0
515,0.0
516,0.0
542,0.0
592,4772733.376034233
632,32252173.421728265
686,1.0
687,1.0
688,2.0
2,21, 1,21, 0, 4,50.00,60.00,Monday
250,0.7725436073545429
251,37283731.5868427
336,0.0
385,18.576598091962797
386,24.447168261715692
387,-0.9132817050680221
388,0.0
425,0.0
450,0.0
451,0.0
452,-1.6065343540958361
453,0.0
490,0.0
515,0.0
516,0.0
542,0.0
592,4772559.326581575
632,32252337.142547093
686,1.0
687,1.0
688,2.0
2,21, 1,21, 0, 5, 0.00,10.00,Monday
250,0.7726464656141973
251,37283714.23493299
336,0.0
385,18.576598091962797
386,24.447168261715692
387,-0.9127371380307105
388,0.0
425,0.0
450,0.0
451,0.0
452,-1.5917957569062198
453,0.0
490,0.0
515,0.0
516,0.0
542,0.0
592,4759720.858689582
632,32265157.343953416
686,1.0
687,1.0
688,2.0
2,21, 1,21, 0, 5,10.00,20.00,Monday
250,0.772790988470962
251,37284873.522068374
336,0.0
385,18.576598091962797
386,24.447168261715692
387,-0.9128455818369385
388,0.0
425,0.0
450,0.0
451,0.0
452,-1.5789002550206832
453,0.0
490,0.0
515,0.0
516,0.0
542,0.0
592,4746877.262331866
632,32279182.66929423
686,1.0
687,1.0
688,2.0
2,21, 1,21, 0, 5,20.00,30.00,Monday
250,0.7729431342952964
251,37286122.692127734
336,0.0
385,18.576598091962797
386,24.447168261715692
387,-0.9134072471283112
388,0.0
425,0.0
450,0.0
451,0.0
452,-1.5665054253883608
453,0.0
490,0.0
515,0.0
516,0.0
542,0.0
592,4734028.534436013
632,32293284.67580603
686,1.0
687,1.0
688,2.0
2,21, 1,21, 0, 5,30.00,40.00,Monday
250,0.7730951779929459
251,37287344.13577881
336,0.0
385,18.576598091962797
386,24.447168261715692
387,-0.9142382621988948
388,0.0
425,0.0
450,0.0
451,0.0
452,-1.554199796832413
453,0.0
490,0.0
515,0.0
516,0.0
542,0.0
592,4721174.671927155
632,32307359.929822415
686,1.0
687,1.0
688,2.0
2,21, 1,21, 0, 5,40.00,50.00,Monday
250,0.7732496759808452
251,37288567.69845179
336,0.0
385,18.576598091962797
386,24.447168261715692
387,-0.9152070452564336
388,0.0
425,0.0
450,0.0
451,0.0
452,-1.5420462679782878
453,0.0
490,0.0
515,0.0
516,0.0
542,0.0
592,4708315.671727969
632,32321443.817553177
686,1.0
687,1.0
688,2.0
2,21, 1,21, 0, 5,50.00,60.00,Monday
250,0.773407093251478
251,37289791.889455736
336,0.0
385,18.576598091962797
386,24.447168261715692
387,-0.9162316089638339
388,0.0
425,0.0
450,0.0
451,0.0
452,-1.530184592976733
453,0.0
490,0.0
515,0.0
516,0.0
542,0.0
592,4695451.530758674
632,32335533.72495686
686,1.0
687,1.0
688,2.0
2,21, 1,21, 0, 6, 0.00,10.00,Monday
250,0.7735738582422874
251,37291011.41892562
336,0.0
385,18.576598091962797
386,24.447168261715692
387,-0.9173936167900405
388,0.0
425,0.0
450,0.0
451,0.0
452,-1.519294810650726
453,0.0
490,0.0
515,0.0
516,0.0
542,0.0
592,4695264.08225586
632,32336945.741353102
686,1.0
687,1.0
688,2.0
2,21, 1,21, 0, 6,10.00,20.00,Monday
250,0.7737023123395353
251,37291051.43360987
336,0.0
385,18.576598091962797
386,24.447168261715692
387,-0.9187732861425166
388,0.0
425,0.0
450,0.0
451,0.0
452,-1.5101929209398142
453,0.0
490,0.0
515,0.0
516,0.0
542,0.0
592,4695076.569900009
632,32337152.6312172
686,1.0
687,1.0
688,2.0
2,21, 1,21, 0, 6,20.00,30.00,Monday
250,0.7738286356292021
251,37290998.98422714
336,0.0
385,18.576598091962797
386,24.447168261715692
387,-0.920363982613948
388,0.0
425,0.0
450,0.0
451,0.0
452,-1.503219251516442
453,0.0
490,0.0
515,0.0
516,0.0
542,0.0
592,4694888.993658494
632,32337286.61027396
686,1.0
687,1.0
688,2.0
2,21, 1,21, 0, 6,30.00,40.00,Monday
250,0.7739625297521903
251,37290970.7989547
336,0.0
385,18.576598091962797
386,24.447168261715692
387,-0.9221236663832387
388,0.0
425,0.0
450,0.0
451,0.0
452,-1.4981645785537516
453,0.0
490,0.0
515,0.0
516,0.0
542,0.0
592,4694701.35349866
632,32337450.143529627
686,1.0
687,1.0
688,2.0
2,21, 1,21, 0, 6,40.00,50.00,Monday
250,0.7740865826505513
251,37290945.000084884
336,0.0
385,18.576598091962797
386,24.447168261715692
387,-0.9240204828586875
388,0.0
425,0.0
450,0.0
451,0.0
452,-1.494574871610533
453,0.0
490,0.0
515,0.0
516,0.0
542,0.0
592,4694513.649387832
632,32337606.747532208
686,1.0
687,1.0
688,2.0
2,21, 1,21, 0, 6,50.00,60.00,Monday
250,0.7742105844031203
251,37290917.55487592
336,0.0
385,18.576598091962797
386,24.447168261715692
387,-0.9260372429576648
388,0.0
425,0.0
450,0.0
451,0.0
452,-1.4920285746220046
453,0.0
490,0.0
515,0.0
516,0.0
542,0.0
592,4694325.88129331
632,32337767.04293679
686,1.0
687,1.0
688,2.0
2,21, 1,21, 0, 7, 0.00,10.00,Monday
250,0.7711630327431173
251,37292598.736265704
336,0.0
385,18.576598091962797
386,24.447168261715692
387,-0.9306076956976914
388,0.0
425,0.0
450,0.0
451,0.0
452,-1.4953812706240928
453,0.0
490,0.0
515,0.0
516,0.0
542,0.0
592,4723573.583255435
632,32308492.05131297
686,1.0
687,1.0
688,2.0
2,21, 1,21, 0, 7,10.00,20.00,Monday
250,0.7711354847262627
251,37289885.564734444
336,0.0
385,18.576598091962797
386,24.447168261715692
387,-0.9398982569764232
388,0.0
425,0.0
450,0.0
451,0.0
452,-1.5140844274916527
453,0.0
490,0.0
515,0.0
516,0.0
542,0.0
592,4752837.186047653
632,32278142.1114725
686,1.0
687,1.0
688,2.0
2,21, 1,21, 0, 7,20.00,30.00,Monday
250,0.7713843415798461
251,37286806.45903423
336,0.0
385,18.576598091962797
386,24.447168261715692
387,-0.9541252214336796
388,0.0
425,0.0
450,0.0
451,0.0
452,-1.5535320743474237
453,0.0
490,0.0
515,0.0
516,0.0
542,0.0
592,4782116.702651945
632,32245932.36309737
686,1.0
687,1.0
688,2.0
2,21, 1,21, 0, 7,30.00,40.00,Monday
250,0.7715507963152028
251,37283835.49347603
336,0.0
385,18.576598091962797
386,24.447168261715692
387,-0.9723128068864567
388,0.0
425,0.0
450,0.0
451,0.0
452,-1.6114076903001002
453,0.0
490,0.0
515,0.0
516,0.0
542,0.0
592,4811412.146064445
632,32213621.56509169
686,1.0
687,1.0
688,2.0
2,21, 1,21, 0, 7,40.00,50.00,Monday
250,0.7717424858157838
251,37280842.63187978
336,0.0
385,18.576598091962797
386,24.447168261715692
387,-0.9933775266284898
388,0.0
425,0.0
450,0.0
451,0.0
452,-1.6814529056564063
453,0.0
490,0.0
515,0.0
516,0.0
542,0.0
592,4840723.5292954575
632,32181330.90275736
686,1.0
687,1.0
688,2.0
2,21, 1,21, 0, 7,50.00,60.00,Monday
250,0.771934619439788
251,37277844.09139286
336,0.0
385,18.576598091962797
386,24.447168261715692
387,-1.0165824396239047
388,0.0
425,0.0
450,0.0
451,0.0
452,-1.7579435820512863
453,0.0
490,0.0
515,0.0
516,0.0
542,0.0
592,4870050.865369484
632,32149005.25733113
686,1.0
687,1.0
688,2.0
2,21, 1,21, 0, 8, 0.00,10.00,Monday
250,0.973412994014565
251,37166464.37719665
336,0.0
385,18.576598091962797
386,24.447168261715692
387,-1.0127237238210076
388,0.0
425,0.0
450,0.0
451,0.0
452,-1.816986944201282
453,0.0
490,0.0
515,0.0
516,0.0
542,0.0
592,4889730.300311493
632,32126326.048061702
686,1.0
687,1.0
688,2.0
2,21, 1,21, 0, 8,10.00,20.00,Monday
250,1.174869099578061
251,37060042.82239972
336,0.0
385,18.576598091962797
386,24.447168261715692
387,-0.9711729486123973
388,0.0
425,0.0
450,0.0
451,0.0
452,-1.8084694969532944
453,0.0
490,0.0
515,0.0
516,0.0
542,0.0
592,4909380.719869504
632,32000248.083319895
686,1.0
687,1.0
688,2.0
2,21, 1,21, 0, 8,20.00,30.00,Monday
250,1.3698745927258196
251,36957478.29991517
336,0.0
385,18.576598091962797
386,24.447168261715692
387,-0.8997503546217034
388,0.0
425,0.0
450,0.0
451,0.0
452,-1.7015494662232353
453,0.0
490,0.0
515,0.0
516,0.0
542,0.0
592,4929009.6156952735
632,31874588.156307682
686,1.0
687,1.0
688,2.0
2,21, 1,21, 0, 8,30.00,40.00,Monday
250,1.5663593751645921
251,36854000.12563246
336,0.0
385,18.576598091962797
386,24.447168261715692
387,-0.8084977951330503
388,0.0
425,0.0
450,0.0
451,0.0
452,-1.5072543387092758
453,0.0
490,0.0
515,0.0
516,0.0
542,0.0
592,4952863.6467726575
632,31748059.23948782
686,1.0
687,1.0
688,2.0
2,21, 1,21, 0, 8,40.00,50.00,Monday
250,1.7635049912169314
251,36749788.96861904
336,0.0
385,18.576598091962797
386,24.447168261715692
387,-0.7059222879392065
388,0.0
425,0.0
450,0.0
451,0.0
452,-1.2303240913418154
453,0.0
490,0.0
515,0.0
516,0.0
542,0.0
592,4977062.298687914
632,31620010.973056927
686,1.0
687,1.0
688,2.0
2,21, 1,21, 0, 8,50.00,60.00,Monday
250,1.96280243382001
251,36645296.07758594
336,0.0
385,18.576598091962797
386,24.447168261715692
387,-0.6095533988111239
388,0.0
425,0.0
450,0.0
451,0.0
452,-0.9159584238320562
453,0.0
490,0.0
515,0.0
516,0.0
542,0.0
592,5001395.306277511
632,31441015.83230122
686,1.0
687,1.0
688,2.0
2,21, 1,21, 0, 9, 0.00,10.00,Monday
250,2.225434317721873
251,36507681.35791837
336,0.0
385,18.576598091962797
386,24.447168261715692
387,-0.47068324992914334
388,0.0
425,0.0
450,0.0
451,0.0
452,-0.4354778600356276
453,0.0
490,0.0
515,0.0
516,0.0
542,0.0
592,5029363.153609448
632,31292566.372353368
686,1.0
687,1.0
688,2.0
2,21, 1,21, 0, 9,10.00,20.00,Monday
250,2.487813846306509
251,36369337.57731545
336,0.0
385,18.576598091962797
386,24.447168261715692
387,-0.31940308564681197
388,0.0
425,0.0
450,0.0
451,0.0
452,0.08892095852341377
453,0.0
490,0.0
515,0.0
516,0.0
542,0.0
592,5057356.862312016
632,31126039.89437007
686,1.0
687,1.0
688,2.0
2,21, 1,21, 0, 9,20.00,30.00,Monday
250,2.7504672453378745
251,36230831.56424272
336,0.0
385,18.576598091962797
386,24.447168261715692
387,-0.15945540648339168
388,0.0
425,0.0
450,0.0
451,0.0
452,0.6536301584932833
453,0.0
490,0.0
515,0.0
516,0.0
542,0.0
592,5085392.284952975
632,30959579.301966697
686,1.0
687,1.0
688,2.0
2,21, 1,21, 0, 9,30.00,40.00,Monday
250,3.012865200681728
251,36092462.99464788
336,0.0
385,18.576598091962797
386,24.447168261715692
387,0.010158958390868302
388,0.0
425,0.0
450,0.0
451,0.0
452,1.2483181302295567
453,0.0
490,0.0
515,0.0
516,0.0
542,0.0
592,5113485.892141593
632,30793047.012097668
686,1.0
687,1.0
688,2.0
2,21, 1,21, 0, 9,40.00,50.00,Monday
250,3.276391741333603
251,35952579.78957358
336,0.0
385,18.57659809196281
386,24.44716826171571
387,0.1551073578232312
388,0.0
425,0.0
450,0.0
451,0.0
452,1.7506667655784605
453,0.0
490,0.0
515,0.0
516,0.0
542,0.0
592,5141654.529350725
632,30599911.92607894
686,1.0000000000000009
687,1.0000000000000009
688,2.0000000000000018
2,21, 1,21, 0, 9,50.00,60.00,Monday
250,3.5394444906269893
251,35813298.03542706
336,0.0
385,18.576598091962797
386,24.447168261715692
387,0.30718302696698524
388,0.0
425,0.0
450,0.0
451,0.0
452,2.291742734951621
453,0.0
490,0.0
515,0.0
516,0.0
542,0.0
592,5169915.672059795
632,30458439.511945754
686,1.0
687,1.0
688,2.0
2,21, 1,21, 0,10, 0.00,10.00,Monday
250,3.991884189198186
251,35573301.35072211
336,0.0
385,18.576598091962797
386,24.44716826171569
387,0.49753583953553593
388,0.0
425,0.0
450,0.0
451,0.0
452,2.851729730988905
453,0.0
490,0.0
515,0.0
516,0.0
542,0.0
592,5241404.10703412
632,30155389.925498895
686,1.0
687,1.0
688,2.0
2,21, 1,21, 0,10,10.00,20.00,Monday
250,4.446830595798155
251,35332506.87519142
336,0.0
385,18.576598091962797
386,24.44716826171569
387,0.7886334072618313
388,0.0
425,0.0
450,0.0
451,0.0
452,3.6067565411530804
453,0.0
490,0.0
515,0.0
516,0.0
542,0.0
592,5315291.857316207
632,29840482.124286342
686,1.0
687,1.0
688,2.0
2,21, 1,21, 0,10,20.00,30.00,Monday
250,4.9033903277605315
251,35089623.244346745
336,0.0
385,18.57659809196279
386,24.44716826171568
387,1.06917634935255
388,0.0
425,0.0
450,0.0
451,0.0
452,4.296480772446589
453,0.0
490,0.0
515,0.0
516,0.0
542,0.0
592,5391793.298050373
632,29521430.978484243
686,0.9999999999999996
687,0.9999999999999996
688,1.9999999999999991
2,21, 1,21, 0,10,30.00,40.00,Monday
250,5.360704615991821
251,34846202.953281775
336,0.0
385,18.576598091962804
386,24.447168261715703
387,1.3510672657270903
388,0.0
425,0.0
450,0.0
451,0.0
452,4.9973426604253905
453,0.0
490,0.0
515,0.0
516,0.0
542,0.0
592,5471132.199313744
632,29198850.771801874
686,1.0000000000000004
687,1.0000000000000004
688,2.000000000000001
2,21, 1,21, 0,10,40.00,50.00,Monday
250,5.819011180714882
251,34602109.34005314
336,0.0
385,18.57659809196281
386,24.44716826171571
387,1.6413050599198078
388,0.0
425,0.0
450,0.0
451,0.0
452,5.761294267946823
453,0.0
490,0.0
515,0.0
516,0.0
542,0.0
592,5553542.375759332
632,28872573.067092463
686,1.0000000000000009
687,1.0000000000000009
688,2.0000000000000018
2,21, 1,21, 0,10,50.00,60.00,Monday
250,6.27739119153526
251,34357831.19330182
336,0.0
385,18.57659809196281
386,24.44716826171571
387,1.9416145122820359
388,0.0
425,0.0
450,0.0
451,0.0
452,6.590651200049544
453,0.0
490,0.0
515,0.0
516,0.0
542,0.0
592,5639267.778995938
632,28542630.60604179
686,1.0000000000000009
687,1.0000000000000009
688,2.0000000000000018
2,21, 1,21, 0,11, 0.00,10.00,Monday
250,6.5611633128482705
251,34206826.25192012
336,0.0
385,18.576598091962797
386,24.44716826171569
387,2.22819614576806
388,0.0
425,0.0
450,0.0
451,0.0
452,7.445968162167895
453,0.0
490,0.0
515,0.0
516,0.0
542,0.0
592,5689519.861596226
632,28309763.529017776
686,1.0
687,1.0
688,2.0
2,21, 1,21, 0,11,10.00,20.00,Monday
250,6.8425600306109935
251,34057011.72803341
336,0.0
385,18.576598091962797
386,24.44716826171569
387,2.4980041070354506
388,0.0
425,0.0
450,0.0
451,0.0
452,8.296618992438793
453,0.0
490,0.0
515,0.0
516,0.0
542,0.0
592,5740969.350869596
632,28108030.475019533
686,1.0
687,1.0
688,2.0
2,21, 1,21, 0,11,20.00,30.00,Monday
250,7.123984200050044
251,33907137.751487084
336,0.0
385,18.57659809196279
386,24.44716826171568
387,2.770176343986872
388,0.0
425,0.0
450,0.0
451,0.0
452,9.143361360514897
453,0.0
490,0.0
515,0.0
516,0.0
542,0.0
592,5793671.0952822175
632,27905476.106636908
686,0.9999999999999996
687,0.9999999999999996
688,1.9999999999999991
2,21, 1,21, 0,11,30.00,40.00,Monday
250,7.4043151314607085
251,33757799.91158463
336,0.0
385,18.576598091962804
386,24.447168261715703
387,3.0475114085904815
388,0.0
425,0.0
450,0.0
451,0.0
452,9.96582791452567
453,0.0
490,0.0
515,0.0
516,0.0
542,0.0
592,5847681.427966583
632,27701946.32074158
686,1.0000000000000004
687,1.0000000000000004
688,2.000000000000001
2,21, 1,21, 0,11,40.00,50.00,Monday
250,7.684141066133227
251,33608681.2322977
336,0.0
385,18.57659809196281
386,24.44716826171571
387,3.326608729815508
388,0.0
425,0.0
450,0.0
451,0.0
452,10.71118271661753
453,0.0
490,0.0
515,0.0
516,0.0
542,0.0
592,5903058.082199926
632,27497376.32141144
686,1.0000000000000009
687,1.0000000000000009
688,2.0000000000000018
2,21, 1,21, 0,11,50.00,60.00,Monday
250,7.963302728555207
251,33459866.22607117
336,0.0
385,18.57659809196281
386,24.44716826171571
387,3.603616051368373
388,0.0
425,0.0
450,0.0
451,0.0
452,11.346497666460408
453,0.0
490,0.0
515,0.0
516,0.0
542,0.0
592,5959860.237244541
632,27291655.997688256
686,1.0000000000000009
687,1.0000000000000009
688,2.0000000000000018
2,21, 1,21, 0,12, 0.00,10.00,Monday
250,8.229363431691183
251,33317979.28059127
336,0.0
385,18.576598091962797
386,24.447168261715692
387,3.843553702692912
388,0.0
425,0.0
450,0.0
451,0.0
452,11.845789482403983
453,0.0
490,0.0
515,0.0
516,0.0
542,0.0
592,5991096.197635707
632,27142817.22019158
686,1.0
687,1.0
688,2.0
2,21, 1,21, 0,12,10.00,20.00,Monday
250,8.490169223599622
251,33182375.4574084
336,0.0
385,18.576598091962797
386,24.447168261715692
387,4.135912411286855
388,0.0
425,0.0
450,0.0
451,0.0
452,12.409762423618663
453,0.0
490,0.0
515,0.0
516,0.0
542,0.0
592,7572016.881221028
632,25423959.127131946
686,1.0
687,1.0
688,2.0
2,21, 1,21, 0,12,20.00,30.00,Monday
250,8.753878846321983
251,33043552.63000455
336,0.0
385,18.576598091962797
386,24.447168261715692
387,4.405017865105533
388,0.0
425,0.0
450,0.0
451,0.0
452,12.925571562102153
453,0.0
490,0.0
515,0.0
516,0.0
542,0.0
592,7609409.155487608
632,25248449.973432437
686,1.0
687,1.0
688,2.0
2,21, 1,21, 0,12,30.00,40.00,Monday
250,9.016990212030723
251,32905056.814395122
336,0.0
385,18.576598091962797
386,24.447168261715692
387,4.663809539690064
388,0.0
425,0.0
450,0.0
451,0.0
452,13.41673510557818
453,0.0
490,0.0
515,0.0
516,0.0
542,0.0
592,7646583.592010485
632,25072619.425037738
686,1.0
687,1.0
688,2.0
2,21, 1,21, 0,12,40.00,50.00,Monday
250,9.279960691293743
251,32766636.328963626
336,0.0
385,18.576598091962797
386,24.447168261715692
387,4.918214345804028
388,0.0
425,0.0
450,0.0
451,0.0
452,13.85835390108689
453,0.0
490,0.0
515,0.0
516,0.0
542,0.0
592,7683540.190789655
632,24897202.680206582
686,1.0
687,1.0
688,2.0
2,21, 1,21, 0,12,50.00,60.00,Monday
250,9.542868499933592
251,32628248.871681415
336,0.0
385,18.576598091962797
386,24.447168261715692
387,5.167141484000949
388,0.0
425,0.0
450,0.0
451,0.0
452,14.226268122908799
453,0.0
490,0.0
515,0.0
516,0.0
542,0.0
592,7720278.951825122
632,24722059.542556874
686,1.0
687,1.0
688,2.0
2,21, 1,21, 0,13, 0.00,10.00,Monday
250,9.724523592081313
251,32530544.04658842
336,0.0
385,18.576598091962797
386,24.447168261715692
387,5.399501456772337
388,0.0
425,0.0
450,0.0
451,0.0
452,14.517558877960733
453,0.0
490,0.0
515,0.0
516,0.0
542,0.0
592,7745410.487127082
632,24616733.729382783
686,1.0
687,1.0
688,2.0
2,21, 1,21, 0,13,10.00,20.00,Monday
250,9.904543914865904
251,32437174.136633106
336,0.0
385,18.576598091962797
386,24.447168261715692
387,5.618243826969614
388,0.0
425,0.0
450,0.0
451,0.0
452,14.746745936670186
453,0.0
490,0.0
515,0.0
516,0.0
542,0.0
592,7770439.060057994
632,24505011.569485538
686,1.0
687,1.0
688,2.0
2,21, 1,21, 0,13,20.00,30.00,Monday
250,10.086760813560621
251,32342932.659006964
336,0.0
385,18.576598091962797
386,24.447168261715692
387,5.823095824733361
388,0.0
425,0.0
450,0.0
451,0.0
452,14.92986638503552
453,0.0
490,0.0
515,0.0
516,0.0
542,0.0
592,7795364.6706178645
632,24387042.6131949
686,1.0
687,1.0
688,2.0
2,21, 1,21, 0,13,30.00,40.00,Monday
250,10.268512652670067
251,32248969.46256566
336,0.0
385,18.576598091962797
386,24.447168261715692
387,6.018077513265857
388,0.0
425,0.0
450,0.0
451,0.0
452,15.078786108042687
453,0.0
490,0.0
515,0.0
516,0.0
542,0.0
592,7820187.318806683
632,24268018.348861273
686,1.0
687,1.0
688,2.0
2,21, 1,21, 0,13,40.00,50.00,Monday
250,10.450088954266516
251,32155133.90568677
336,0.0
385,18.576598091962797
386,24.447168261715692
387,6.206937395025024
388,0.0
425,0.0
450,0.0
451,0.0
452,15.1980374043282
453,0.0
490,0.0
515,0.0
516,0.0
542,0.0
592,7844907.00462445
632,24149381.131827798
686,1.0
687,1.0
688,2.0
2,21, 1,21, 0,13,50.00,60.00,Monday
250,10.631616120437041
251,32061357.869570803
336,0.0
385,18.576598091962797
386,24.447168261715692
387,6.390976980592049
388,0.0
425,0.0
450,0.0
451,0.0
452,15.291301198316141
453,0.0
490,0.0
515,0.0
516,0.0
542,0.0
592,7869523.72807117
632,24030974.81448328
686,1.0
687,1.0
688,2.0
2,21, 1,21, 0,14, 0.00,10.00,Monday
250,10.831129086925111
251,31957900.004948605
336,0.0
385,18.576598091962797
386,24.447168261715692
387,6.573028206826332
388,0.0
425,0.0
450,0.0
451,0.0
452,15.347203098795177
453,0.0
490,0.0
515,0.0
516,0.0
542,0.0
592,7896260.907308879
632,23910507.295613874
686,1.0
687,1.0
688,2.0
2,21, 1,21, 0,14,10.00,20.00,Monday
250,11.029034324432496
251,31854946.476066038
336,0.0
385,18.576598091962797
386,24.447168261715692
387,6.753219707365639
388,0.0
425,0.0
450,0.0
451,0.0
452,15.34743829945777
453,0.0
490,0.0
515,0.0
516,0.0
542,0.0
592,7922875.552815757
632,23780083.980232198
686,1.0
687,1.0
688,2.0
2,21, 1,21, 0,14,20.00,30.00,Monday
250,11.226312184068448
251,31752313.8060924
336,0.0
385,18.576598091962797
386,24.447168261715692
387,6.9293978281845385
388,0.0
425,0.0
450,0.0
451,0.0
452,15.291562664231952
453,0.0
490,0.0
515,0.0
516,0.0
542,0.0
592,7949367.664591796
632,23650633.502502035
686,1.0
687,1.0
688,2.0
2,21, 1,21, 0,14,30.00,40.00,Monday
250,11.423215797044826
251,31649913.54526507
336,0.0
385,18.576598091962797
386,24.447168261715692
387,7.095618667118493
388,0.0
425,0.0
450,0.0
451,0.0
452,15.169074887355585
453,0.0
490,0.0
515,0.0
516,0.0
542,0.0
592,7975737.242637001
632,23521674.844285473
686,1.0
687,1.0
688,2.0
2,21, 1,21, 0,14,40.00,50.00,Monday
250,11.61976710915878
251,31547724.94943106
336,0.0
385,18.576598091962797
386,24.447168261715692
387,7.248190089788983
388,0.0
425,0.0
450,0.0
451,0.0
452,14.960274886695888
453,0.0
490,0.0
515,0.0
516,0.0
542,0.0
592,8001984.286951372
632,23393062.35478797
686,1.0
687,1.0
688,2.0
2,21, 1,21, 0,14,50.00,60.00,Monday
250,11.815974288106567
251,31445743.850590114
336,0.0
385,18.576598091962797
386,24.447168261715692
387,7.387400847171755
388,0.0
425,0.0
450,0.0
451,0.0
452,14.668233521712937
453,0.0
490,0.0
515,0.0
516,0.0
542,0.0
592,8028108.797534915
632,23264784.42546565
686,1.0
687,1.0
688,2.0
2,21, 1,21, 0,15, 0.00,10.00,Monday
250,12.076892061978533
251,31309563.68263591
336,0.0
385,18.576598091962797
386,24.447168261715692
387,7.508261464269301