Program Version,EnergyPlus, Version 24.2.0-94a887817b, YMD=2025.02.04 15:40
1,5,Environment Title[],Latitude[deg],Longitude[deg],Time Zone[],Elevation[m]
2,8,Day of Simulation[],Month[],Day of Month[],DST Indicator[1=yes 0=no],Hour[],StartMinute[],EndMinute[],DayType
3,5,Cumulative Day of Simulation[],Month[],Day of Month[],DST Indicator[1=yes 0=no],DayType  ! When Daily Report Variables Requested
4,2,Cumulative Days of Simulation[],Month[]  ! When Monthly Report Variables Requested
5,1,Cumulative Days of Simulation[] ! When Run Period Report Variables Requested
6,1,Calendar Year of Simulation[] ! When Annual Report Variables Requested
250,1,LIVING ZONE,Zone Air Temperature [C] !TimeStep,REPORTSCH
251,1,LIVING ZONE,Zone Air System Sensible Heating Energy [J] !TimeStep,REPORTSCH
336,1,LIVING ZONE,Zone Air System Sensible Cooling Energy [J] !TimeStep,REPORTSCH
385,1,LIVING ZONE,Zone Thermostat Heating Setpoint Temperature [C] !TimeStep,REPORTSCH
386,1,LIVING ZONE,Zone Thermostat Cooling Setpoint Temperature [C] !TimeStep,REPORTSCH
387,1,GARAGE ZONE,Zone Air Temperature [C] !TimeStep,REPORTSCH
388,1,GARAGE ZONE,Zone Air System Sensible Heating Energy [J] !TimeStep,REPORTSCH
425,1,GARAGE ZONE,Zone Air System Sensible Cooling Energy [J] !TimeStep,REPORTSCH
450,1,GARAGE ZONE,Zone Thermostat Heating Setpoint Temperature [C] !TimeStep,REPORTSCH
451,1,GARAGE ZONE,Zone Thermostat Cooling Setpoint Temperature [C] !TimeStep,REPORTSCH
452,1,ATTIC ZONE,Zone Air Temperature [C] !TimeStep,REPORTSCH
453,1,ATTIC ZONE,Zone Air System Sensible Heating Energy [J] !TimeStep,REPORTSCH
490,1,ATTIC ZONE,Zone Air System Sensible Cooling Energy [J] !TimeStep,REPORTSCH
515,1,ATTIC ZONE,Zone Thermostat Heating Setpoint Temperature [C] !TimeStep,REPORTSCH
516,1,ATTIC ZONE,Zone Thermostat Cooling Setpoint Temperature [C] !TimeStep,REPORTSCH
542,1,ACDXCOIL 1,Cooling Coil Total Cooling Energy [J] !TimeStep,REPORTSCH
592,1,HEAT PUMP DX HEATING COIL 1,Heating Coil Heating Energy [J] !TimeStep,REPORTSCH
632,1,SUPP HEATING COIL 1,Heating Coil Heating Energy [J] !TimeStep,REPORTSCH
686,1,TWOSPEED HEAT PUMP 1,Unitary System DX Coil Cycling Ratio [] !TimeStep,REPORTSCH
687,1,TWOSPEED HEAT PUMP 1,Unitary System DX Coil Speed Ratio [] !TimeStep,REPORTSCH
688,1,TWOSPEED HEAT PUMP 1,Unitary System DX Coil Speed Level [] !TimeStep,REPORTSCH
End of Data Dictionary
1,RUN PERIOD 1,  41.98, -87.92,  -6.00, 201.00
2,21, 1,21, 0, 1, 0.00,10.00,Monday
250,-0.8481139666008288
251,38098141.27502549
336,0.0
385,18.51376375004777
386,27.825386254748647
387,-0.9479545302566483
388,0.0
425,0.0
450,0.0
451,0.0
452,-1.9753627453989029
453,0.0
490,0.0
515,0.0
516,0.0
542,0.0
592,4839743.985079641
632,33000000.0
686,1.0
687,1.0
688,2.0
2,21, 1,21, 0, 1,10.00,20.00,Monday
250,-0.8482590270384138
251,38082771.19255297
336,0.0
385,18.51376375004777
386,27.825386254748647
387,-0.9563141538902964
388,0.0
425,0.0
450,0.0
451,0.0
452,-1.957215611514217
453,0.0
490,0.0
515,0.0
516,0.0
542,0.0
592,4823801.676011795
632,33000000.0
686,1.0
687,1.0
688,2.0
2,21, 1,21, 0, 1,20.00,30.00,Monday
250,-0.8484405995589982
251,38066847.33864949
336,0.0
385,18.51376375004777
386,27.825386254748647
387,-0.9659096570551066
388,0.0
425,0.0
450,0.0
451,0.0
452,-1.954137519049422
453,0.0
490,0.0
515,0.0
516,0.0
542,0.0
592,4807858.16290522
632,33000000.0
686,1.0
687,1.0
688,2.0
2,21, 1,21, 0, 1,30.00,40.00,Monday
250,-0.848618175034769
251,38050900.473757505
336,0.0
385,18.51376375004777
386,27.825386254748647
387,-0.976945753987803
388,0.0
425,0.0
450,0.0
451,0.0
452,-1.967013038993786
453,0.0
490,0.0
515,0.0
516,0.0
542,0.0
592,4791913.445623511
632,33000000.0
686,1.0
687,1.0
688,2.0
2,21, 1,21, 0, 1,40.00,50.00,Monday
250,-0.8487970780260208
251,38034955.27102756
336,0.0
385,18.51376375004777
386,27.825386254748647
387,-0.9895797100012886
388,0.0
425,0.0
450,0.0
451,0.0
452,-1.9942207957281994
453,0.0
490,0.0
515,0.0
516,0.0
542,0.0
592,4775967.524030239
632,33000000.0
686,1.0
687,1.0
688,2.0
2,21, 1,21, 0, 1,50.00,60.00,Monday
250,-0.8489765331236805
251,38019008.44642664
336,0.0
385,18.51376375004777
386,27.825386254748647
387,-1.0040002937542123
388,0.0
425,0.0
450,0.0
451,0.0
452,-2.034232073095147
453,0.0
490,0.0
515,0.0
516,0.0
542,0.0
592,4760020.397988958
632,33000000.0
686,1.0
687,1.0
688,2.0
2,21, 1,21, 0, 2, 0.00,10.00,Monday
250,-0.849050495306833
251,38018951.65004076
336,0.0
385,18.51376375004777
386,27.825386254748647
387,-1.0195247152103324
388,0.0
425,0.0
450,0.0
451,0.0
452,-2.081000945356004
453,0.0
490,0.0
515,0.0
516,0.0
542,0.0
592,4760020.397988959
632,33000000.0
686,1.0
687,1.0
688,2.0
2,21, 1,21, 0, 2,10.00,20.00,Monday
250,-0.8491220457164067
251,38018950.351485856
336,0.0
385,18.51376375004777
386,27.825386254748647
387,-1.0352096559691997
388,0.0
425,0.0
450,0.0
451,0.0
452,-2.123735960890124
453,0.0
490,0.0
515,0.0
516,0.0
542,0.0
592,4760020.397988958
632,33000000.0
686,1.0
687,1.0
688,2.0
2,21, 1,21, 0, 2,20.00,30.00,Monday
250,-0.8491933797839699
251,38018950.234993786
336,0.0
385,18.51376375004777
386,27.825386254748647
387,-1.0505012280678017
388,0.0
425,0.0
450,0.0
451,0.0
452,-2.1552069776700193
453,0.0
490,0.0
515,0.0
516,0.0
542,0.0
592,4760020.397988958
632,33000000.0
686,1.0
687,1.0
688,2.0
2,21, 1,21, 0, 2,30.00,40.00,Monday
250,-0.8492633420364976
251,38018949.49636863
336,0.0
385,18.51376375004777
386,27.825386254748647
387,-1.0650780319278397
388,0.0
425,0.0
450,0.0
451,0.0
452,-2.1745902807543307
453,0.0
490,0.0
515,0.0
516,0.0
542,0.0
592,4760020.397988958
632,33000000.0
686,1.0
687,1.0
688,2.0
2,21, 1,21, 0, 2,40.00,50.00,Monday
250,-0.8493322600021936
251,38018948.934092864
336,0.0
385,18.51376375004777
386,27.825386254748647
387,-1.0787996499847787
388,0.0
425,0.0
450,0.0
451,0.0
452,-2.1847308139687036
453,0.0
490,0.0
515,0.0
516,0.0
542,0.0
592,4760020.397988958
632,33000000.0
686,1.0
687,1.0
688,2.0
2,21, 1,21, 0, 2,50.00,60.00,Monday
250,-0.8493999557747718
251,38018948.27602684
336,0.0
385,18.51376375004777
386,27.825386254748647
387,-1.0916287308587487
388,0.0
425,0.0
450,0.0
451,0.0
452,-2.188777353901029
453,0.0
490,0.0
515,0.0
516,0.0
542,0.0
592,4760020.397988956
632,33000000.0
686,1.0
687,1.0
688,2.0
2,21, 1,21, 0, 3, 0.00,10.00,Monday
250,-0.7670278747952286
251,37977098.684643544
336,0.0
385,18.51376375004777
386,27.825386254748647
387,-1.093175594908885
388,0.0
425,0.0
450,0.0
451,0.0
452,-2.1812970510657648
453,0.0
490,0.0
515,0.0
516,0.0
542,0.0
592,4762558.894114007
632,33000000.0
686,1.0
687,1.0
688,2.0
2,21, 1,21, 0, 3,10.00,20.00,Monday
250,-0.6834793728514739
251,37978892.97012402
336,0.0
385,18.51376375004777
386,27.825386254748647
387,-1.0821263341464997
388,0.0
425,0.0
450,0.0
451,0.0
452,-2.156314009175523
453,0.0
490,0.0
515,0.0
516,0.0
542,0.0
592,4764988.4357309695
632,33000000.0
686,1.0
687,1.0
688,2.0
2,21, 1,21, 0, 3,20.00,30.00,Monday
250,-0.60034443521939
251,37981433.60519202
336,0.0
385,18.51376375004777
386,27.825386254748647
387,-1.0628881012125397
388,0.0
425,0.0
450,0.0
451,0.0
452,-2.112380539197733
453,0.0
490,0.0
515,0.0
516,0.0
542,0.0
592,4767308.250738333
632,33000000.0
686,1.0
687,1.0
688,2.0
2,21, 1,21, 0, 3,30.00,40.00,Monday
250,-0.5171707538568662
251,37973307.629810356
336,0.0
385,18.51376375004777
386,27.825386254748647
387,-1.0392558096373623
388,0.0
425,0.0
450,0.0
451,0.0
452,-2.052629959389074
453,0.0
490,0.0
515,0.0
516,0.0
542,0.0
592,4769517.689516207
632,32989687.316425446
686,1.0
687,1.0
688,2.0
2,21, 1,21, 0, 3,40.00,50.00,Monday
250,-0.4342020297561132
251,37930223.179522485
336,0.0
385,18.51376375004777
386,27.825386254748647
387,-1.0125339311076795
388,0.0
425,0.0
450,0.0
451,0.0
452,-1.981547144943188
453,0.0
490,0.0
515,0.0
516,0.0
542,0.0
592,4771616.115684973
632,32944395.948684443
686,1.0
687,1.0
688,2.0
2,21, 1,21, 0, 3,50.00,60.00,Monday
250,-0.35122198197291693
251,37887139.4261907
336,0.0
385,18.51376375004777
386,27.825386254748647
387,-0.9824677202195076
388,0.0
425,0.0
450,0.0
451,0.0
452,-1.9027502279416555
453,0.0
490,0.0
515,0.0
516,0.0
542,0.0
592,4773602.736238396
632,32899333.563181225
686,1.0
687,1.0
688,2.0
2,21, 1,21, 0, 4, 0.00,10.00,Monday
250,-0.35064692240309026
251,37888442.87557379
336,0.0
385,18.51376375004777
386,27.825386254748647
387,-0.959736200955407
388,0.0
425,0.0
450,0.0
451,0.0
452,-1.82652812323247
453,0.0
490,0.0
515,0.0
516,0.0
542,0.0
592,4773428.982371631
632,32856432.17196982
686,1.0
687,1.0
688,2.0
2,21, 1,21, 0, 4,10.00,20.00,Monday
250,-0.35096413763212264
251,37888668.45631728
336,0.0
385,18.51376375004777
386,27.825386254748647
387,-0.9471495707273956
388,0.0
425,0.0
450,0.0
451,0.0
452,-1.761921301675879
453,0.0
490,0.0
515,0.0
516,0.0
542,0.0
592,4773255.169447958
632,32856351.01682061
686,1.0
687,1.0
688,2.0
2,21, 1,21, 0, 4,20.00,30.00,Monday
250,-0.3508438924027327
251,37888635.79059891
336,0.0
385,18.51376375004777
386,27.825386254748647
387,-0.9411770269439097
388,0.0
425,0.0
450,0.0
451,0.0
452,-1.7125337183867049
453,0.0
490,0.0
515,0.0
516,0.0
542,0.0
592,4773081.297437259
632,32856727.824690457
686,1.0
687,1.0
688,2.0
2,21, 1,21, 0, 4,30.00,40.00,Monday
250,-0.3508167909274181
251,37888661.604378246
336,0.0
385,18.51376375004777
386,27.825386254748647
387,-0.9379384451045601
388,0.0
425,0.0
450,0.0
451,0.0
452,-1.6767048892879477
453,0.0
490,0.0
515,0.0
516,0.0
542,0.0
592,4772907.366309401
632,32856877.405470483
686,1.0
687,1.0
688,2.0
2,21, 1,21, 0, 4,40.00,50.00,Monday
250,-0.350795130621365
251,37888688.69229437
336,0.0
385,18.51376375004777
386,27.825386254748647
387,-0.9356489685731427
388,0.0
425,0.0
450,0.0
451,0.0
452,-1.6507638683300692
453,0.0
490,0.0
515,0.0
516,0.0
542,0.0
592,4772733.376034232
632,32857075.55323693
686,1.0
687,1.0
688,2.0
2,21, 1,21, 0, 4,50.00,60.00,Monday
250,-0.35077307587008744
251,37888715.48288098
336,0.0
385,18.51376375004777
386,27.825386254748647
387,-0.9341342500018742
388,0.0
425,0.0
450,0.0
451,0.0
452,-1.6316529322732092
453,0.0
490,0.0
515,0.0
516,0.0
542,0.0
592,4772559.326581575
632,32857276.60572391
686,1.0
687,1.0
688,2.0
2,21, 1,21, 0, 5, 0.00,10.00,Monday
250,-0.3507523744201004
251,37888743.03342262
336,0.0
385,18.51376375004777
386,27.825386254748647
387,-0.9334525745335138
388,0.0
425,0.0
450,0.0
451,0.0
452,-1.6167568321649584
453,0.0
490,0.0
515,0.0
516,0.0
542,0.0
592,4759720.85868958
632,32870141.895323385
686,1.0
687,1.0
688,2.0
2,21, 1,21, 0, 5,10.00,20.00,Monday
250,-0.35072375673637124
251,37890042.42674831
336,0.0
385,18.51376375004777
386,27.825386254748647
387,-0.9334686453689998
388,0.0
425,0.0
450,0.0
451,0.0
452,-1.603764651572743
453,0.0
490,0.0
515,0.0
516,0.0
542,0.0
592,4746877.262331865
632,32884289.1489807
686,1.0
687,1.0
688,2.0
2,21, 1,21, 0, 5,20.00,30.00,Monday
250,-0.35069510080025285
251,37891360.84247638
336,0.0
385,18.51376375004777
386,27.825386254748647
387,-0.9339524779625591
388,0.0
425,0.0
450,0.0
451,0.0
452,-1.5912748925573919
453,0.0
490,0.0
515,0.0
516,0.0
542,0.0
592,4734028.534436011
632,32898456.31375022
686,1.0
687,1.0
688,2.0
2,21, 1,21, 0, 5,30.00,40.00,Monday
250,-0.35066659822773283
251,37892673.08310345
336,0.0
385,18.51376375004777
386,27.825386254748647
387,-0.9346999352859612
388,0.0
425,0.0
450,0.0
451,0.0
452,-1.5788547030041769
453,0.0
490,0.0
515,0.0
516,0.0
542,0.0
592,4721174.671927155
632,32912622.334821332
686,1.0
687,1.0
688,2.0
2,21, 1,21, 0, 5,40.00,50.00,Monday
250,-0.3506380466690182
251,37893987.19280744
336,0.0
385,18.51376375004777
386,27.825386254748647
387,-0.9355748669384406
388,0.0
425,0.0
450,0.0
451,0.0
452,-1.5665733853157437
453,0.0
490,0.0
515,0.0
516,0.0
542,0.0
592,4708315.671727969
632,32926795.471649304
686,1.0
687,1.0
688,2.0
2,21, 1,21, 0, 5,50.00,60.00,Monday
250,-0.35060937751658244
251,37895301.84834854
336,0.0
385,18.51376375004777
386,27.825386254748647
387,-0.9364981545500625
388,0.0
425,0.0
450,0.0
451,0.0
452,-1.5545821536847813
453,0.0
490,0.0
515,0.0
516,0.0
542,0.0
592,4695451.530758676
632,32940974.33204295
686,1.0
687,1.0
688,2.0
2,21, 1,21, 0, 6, 0.00,10.00,Monday
250,-0.3505794116370139
251,37896616.320002176
336,0.0
385,18.51376375004777
386,27.825386254748647
387,-0.9375566561130256
388,0.0
425,0.0
450,0.0
451,0.0
452,-1.5435782791622128
453,0.0
490,0.0
515,0.0
516,0.0
542,0.0
592,4695264.082255858
632,32942476.95126569
686,1.0
687,1.0
688,2.0
2,21, 1,21, 0, 6,10.00,20.00,Monday
250,-0.35055760232451927
251,37896657.86904462
336,0.0
385,18.51376375004777
386,27.825386254748647
387,-0.9388337529110937
388,0.0
425,0.0
450,0.0
451,0.0
452,-1.534376001952728
453,0.0
490,0.0
515,0.0
516,0.0
542,0.0
592,4695076.569900009
632,32942701.618881684
686,1.0
687,1.0
688,2.0
2,21, 1,21, 0, 6,20.00,30.00,Monday
250,-0.35053584691512957
251,37896680.91543391
336,0.0
385,18.51376375004777
386,27.825386254748647
387,-0.9403234909615953
388,0.0
425,0.0
450,0.0
451,0.0
452,-1.527299734477604
453,0.0
490,0.0
515,0.0
516,0.0
542,0.0
592,4694888.993658494
632,32942912.21248655
686,1.0
687,1.0
688,2.0
2,21, 1,21, 0, 6,30.00,40.00,Monday
250,-0.35051371177381774
251,37896710.56595208
336,0.0
385,18.51376375004777
386,27.825386254748647
387,-0.9419835882866209
388,0.0
425,0.0
450,0.0
451,0.0
452,-1.522140904510348
453,0.0
490,0.0
515,0.0
516,0.0
542,0.0
592,4694701.353498662
632,32943129.707732994
686,1.0
687,1.0
688,2.0
2,21, 1,21, 0, 6,40.00,50.00,Monday
250,-0.3504912557252029
251,37896738.688716635
336,0.0
385,18.51376375004777
386,27.825386254748647
387,-0.94378199394494
388,0.0
425,0.0
450,0.0
451,0.0
452,-1.5184508129836276
453,0.0
490,0.0
515,0.0
516,0.0
542,0.0
592,4694513.649387832
632,32943345.707488917
686,1.0
687,1.0
688,2.0
2,21, 1,21, 0, 6,50.00,60.00,Monday
250,-0.35046861574737626
251,37896766.645785324
336,0.0
385,18.51376375004777
386,27.825386254748647
387,-0.9457015127864468
388,0.0
425,0.0
450,0.0
451,0.0
452,-1.515810206675757
453,0.0
490,0.0
515,0.0
516,0.0
542,0.0
592,4694325.881293308
632,32943561.531744912
686,1.0
687,1.0
688,2.0
2,21, 1,21, 0, 7, 0.00,10.00,Monday
250,-0.3510400428734433
251,37897114.646818146
336,0.0
385,18.51376375004777
386,27.825386254748647
387,-0.9501632252260307
388,0.0
425,0.0
450,0.0
451,0.0
452,-1.5190871641190078
453,0.0
490,0.0
515,0.0
516,0.0
542,0.0
592,4723573.583255435
632,32914341.815244827
686,1.0
687,1.0
688,2.0
2,21, 1,21, 0, 7,10.00,20.00,Monday
250,-0.35101912597524365
251,37894198.42448761
336,0.0
385,18.51376375004777
386,27.825386254748647
387,-0.9593399472592017
388,0.0
425,0.0
450,0.0
451,0.0
452,-1.5377567290201568
453,0.0
490,0.0
515,0.0
516,0.0
542,0.0
592,4752837.186047653
632,32882481.076643355
686,1.0
687,1.0
688,2.0
2,21, 1,21, 0, 7,20.00,30.00,Monday
250,-0.3509843768279176
251,37891230.43648367
336,0.0
385,18.51376375004777
386,27.825386254748647
387,-0.9734728202051542
388,0.0
425,0.0
450,0.0
451,0.0
452,-1.577187416106105
453,0.0
490,0.0
515,0.0
516,0.0
542,0.0
592,4782116.702651945
632,32850241.02124501
686,1.0
687,1.0
688,2.0
2,21, 1,21, 0, 7,30.00,40.00,Monday
250,-0.3509524497915447
251,37888278.03821001
336,0.0
385,18.51376375004777
386,27.825386254748647
387,-0.9916075110453964
388,0.0
425,0.0
450,0.0
451,0.0
452,-1.6349920413193872
453,0.0
490,0.0
515,0.0
516,0.0
542,0.0
592,4811412.146064443
632,32817991.658230204
686,1.0
687,1.0
688,2.0
2,21, 1,21, 0, 7,40.00,50.00,Monday
250,-0.3509193627660856
251,37885320.27179552
336,0.0
385,18.51376375004777
386,27.825386254748647
387,-1.0126657000217703
388,0.0
425,0.0
450,0.0
451,0.0
452,-1.704915752311091
453,0.0
490,0.0
515,0.0
516,0.0
542,0.0
592,4840723.5292954575
632,32785723.131926857
686,1.0
687,1.0
688,2.0
2,21, 1,21, 0, 7,50.00,60.00,Monday
250,-0.3508858353654608
251,37882360.49211911
336,0.0
385,18.51376375004777
386,27.825386254748647
387,-1.0359006422966863
388,0.0
425,0.0
450,0.0
451,0.0
452,-1.7812672315934897
453,0.0
490,0.0
515,0.0
516,0.0
542,0.0
592,4870050.865369484
632,32753436.251924947
686,1.0
687,1.0
688,2.0
2,21, 1,21, 0, 8, 0.00,10.00,Monday
250,-0.15064488521735317
251,37771600.36214735
336,0.0
385,18.51376375004777
386,27.825386254748647
387,-1.0320218214844674
388,0.0
425,0.0
450,0.0
451,0.0
452,-1.8402145166646615
453,0.0
490,0.0
515,0.0
516,0.0
542,0.0
592,4889730.300311495
632,32730795.477393314
686,1.0
687,1.0
688,2.0
2,21, 1,21, 0, 8,10.00,20.00,Monday
250,0.049677374967887045
251,37666060.15759494
336,0.0
385,18.51376375004777
386,27.825386254748647
387,-0.9905141819798046
388,0.0
425,0.0
450,0.0
451,0.0
452,-1.8313539586764227
453,0.0
490,0.0
515,0.0
516,0.0
542,0.0
592,4909380.719869504
632,32605655.27866597
686,1.0
687,1.0
688,2.0
2,21, 1,21, 0, 8,20.00,30.00,Monday
250,0.24880045431100103
251,37561241.02342692
336,0.0
385,18.51376375004777
386,27.825386254748647
387,-0.9195233079246093
388,0.0
425,0.0
450,0.0
451,0.0
452,-1.7239154967785073
453,0.0
490,0.0
515,0.0
516,0.0
542,0.0
592,4929009.615695273
632,32480568.38562847
686,1.0
687,1.0
688,2.0
2,21, 1,21, 0, 8,30.00,40.00,Monday
250,0.44824811337207954
251,37456218.14228292
336,0.0
385,18.51376375004777
386,27.825386254748647
387,-0.8292769652765092
388,0.0
425,0.0
450,0.0
451,0.0
452,-1.5282671217109909
453,0.0
490,0.0
515,0.0
516,0.0
542,0.0
592,4952863.646772657
632,32351873.086429596
686,1.0
687,1.0
688,2.0
2,21, 1,21, 0, 8,40.00,50.00,Monday
250,0.6477580991414095
251,37350753.20060955
336,0.0
385,18.51376375004777
386,27.825386254748647
387,-0.7277249712939897
388,0.0
425,0.0
450,0.0
451,0.0
452,-1.2528120537986946
453,0.0
490,0.0
515,0.0
516,0.0
542,0.0
592,4977062.298687914
632,32222248.750190888
686,1.0
687,1.0
688,2.0
2,21, 1,21, 0, 8,50.00,60.00,Monday
250,0.8477329740762216
251,37245973.609478235
336,0.0
385,18.51376375004777
386,27.825386254748647
387,-0.6318729429151229
388,0.0
425,0.0
450,0.0
451,0.0
452,-0.9399140959775414
453,0.0
490,0.0
515,0.0
516,0.0
542,0.0
592,5001395.306277511
632,32040012.506955594
686,1.0
687,1.0
688,2.0
2,21, 1,21, 0, 9, 0.00,10.00,Monday
250,1.1136610489683014
251,37106717.61718447
336,0.0
385,18.51376375004777
386,27.825386254748647
387,-0.4935199169275727
388,0.0
425,0.0
450,0.0
451,0.0
452,-0.46054773792501325
453,0.0
490,0.0
515,0.0
516,0.0
542,0.0
592,5029363.153609448
632,31889410.369712465
686,1.0
687,1.0
688,2.0
2,21, 1,21, 0, 9,10.00,20.00,Monday
250,1.3795198740794823
251,36966540.38854736
336,0.0
385,18.51376375004777
386,27.825386254748647
387,-0.34276979759033976
388,0.0
425,0.0
450,0.0
451,0.0
452,0.06367533564983893
453,0.0
490,0.0
515,0.0
516,0.0
542,0.0
592,5057356.862312016
632,31721227.687806435
686,1.0
687,1.0
688,2.0
2,21, 1,21, 0, 9,20.00,30.00,Monday
250,1.6454712791405501
251,36826309.241842374
336,0.0
385,18.51376375004777
386,27.825386254748647
387,-0.18286521950233586
388,0.0
425,0.0
450,0.0
451,0.0
452,0.6283781720739086
453,0.0
490,0.0
515,0.0
516,0.0
542,0.0
592,5085392.284952975
632,31552986.67340666
686,1.0
687,1.0
688,2.0
2,21, 1,21, 0, 9,30.00,40.00,Monday
250,1.911373846066314
251,36686102.24699746
336,0.0
385,18.51376375004777
386,27.825386254748647
387,-0.013099822434663613
388,0.0
425,0.0
450,0.0
451,0.0
452,1.2230112064937178
453,0.0
490,0.0
515,0.0
516,0.0
542,0.0
592,5113485.892141593
632,31384674.178425007
686,1.0
687,1.0
688,2.0
2,21, 1,21, 0, 9,40.00,50.00,Monday
250,2.1774564005260517
251,36544800.05500513
336,0.0
385,18.513763750047783
386,27.825386254748665
387,0.13209326029396762
388,0.0
425,0.0
450,0.0
451,0.0
452,1.7246858343904896
453,0.0
490,0.0
515,0.0
516,0.0
542,0.0
592,5141654.529350725
632,31192044.366045125
686,1.0000000000000009
687,1.0000000000000009
688,2.0000000000000018
2,21, 1,21, 0, 9,50.00,60.00,Monday
250,2.443652298467283
251,36403901.88536492
336,0.0
385,18.51376375004777
386,27.825386254748647
387,0.2842577176315209
388,0.0
425,0.0
450,0.0
451,0.0
452,2.265161526992228
453,0.0
490,0.0
515,0.0
516,0.0
542,0.0
592,5169915.672059796
632,31047443.929887816
686,1.0
687,1.0
688,2.0
2,21, 1,21, 0,10, 0.00,10.00,Monday
250,2.9076209565344224
251,36157718.97670986
336,0.0
385,18.51376375004777
386,27.825386254748647
387,0.4747468508269509
388,0.0
425,0.0
450,0.0
451,0.0
452,2.8244308462774685
453,0.0
490,0.0
515,0.0
516,0.0
542,0.0
592,5241404.10703412
632,30740793.736531965
686,1.0
687,1.0
688,2.0
2,21, 1,21, 0,10,10.00,20.00,Monday
250,3.3723110100120524
251,35911773.53508328
336,0.0
385,18.51376375004777
386,27.825386254748643
387,0.7657912196329633
388,0.0
425,0.0
450,0.0
451,0.0
452,3.579313404886993
453,0.0
490,0.0
515,0.0
516,0.0
542,0.0
592,5315291.857316207
632,30420021.952989385
686,1.0
687,1.0
688,2.0
2,21, 1,21, 0,10,20.00,30.00,Monday
250,3.8371907820328945
251,35664455.043314695
336,0.0
385,18.51376375004776
386,27.825386254748636
387,1.0461611420394685
388,0.0
425,0.0
450,0.0
451,0.0
452,4.268190094910125
453,0.0
490,0.0
515,0.0
516,0.0
542,0.0
592,5391793.298050372
632,30096278.47138966
686,0.9999999999999996
687,0.9999999999999996
688,1.9999999999999991
2,21, 1,21, 0,10,30.00,40.00,Monday
250,4.302187338788858
251,35416939.693275094
336,0.0
385,18.513763750047776
386,27.825386254748658
387,1.3279115792236447
388,0.0
425,0.0
450,0.0
451,0.0
452,4.970131606763221
453,0.0
490,0.0
515,0.0
516,0.0
542,0.0
592,5471132.199313744
632,29769489.817183297
686,1.0000000000000004
687,1.0000000000000004
688,2.000000000000001
2,21, 1,21, 0,10,40.00,50.00,Monday
250,4.767350016357417
251,35169193.98471579
336,0.0
385,18.513763750047783
386,27.825386254748665
387,1.6180354842966738
388,0.0
425,0.0
450,0.0
451,0.0
452,5.734235981307437
453,0.0
490,0.0
515,0.0
516,0.0
542,0.0
592,5553542.3757593315
632,29439410.640738256
686,1.0000000000000009
687,1.0000000000000009
688,2.0000000000000018
2,21, 1,21, 0,10,50.00,60.00,Monday
250,5.232521598254715
251,34921295.88168566
336,0.0
385,18.513763750047783
386,27.825386254748665
387,1.9182461122638395
388,0.0
425,0.0
450,0.0
451,0.0
452,6.5632707507986545
453,0.0
490,0.0
515,0.0
516,0.0
542,0.0
592,5639267.778995938
632,29105837.836176537
686,1.0000000000000009
687,1.0000000000000009
688,2.0000000000000018
2,21, 1,21, 0,11, 0.00,10.00,Monday
250,5.515981100506478
251,34770458.81215572
336,0.0
385,18.51376375004777
386,27.825386254748647
387,2.204743009879425
388,0.0
425,0.0
450,0.0
451,0.0
452,7.418480329676991
453,0.0
490,0.0
515,0.0
516,0.0
542,0.0
592,5689519.861596227
632,28872371.278088696
686,1.0
687,1.0
688,2.0
2,21, 1,21, 0,11,10.00,20.00,Monday
250,5.798899004888532
251,34619856.77297699
336,0.0
385,18.51376375004777
386,27.825386254748643
387,2.4745052777477046
388,0.0
425,0.0
450,0.0
451,0.0
452,8.268989304703448
453,0.0
490,0.0
515,0.0
516,0.0
542,0.0
592,5740969.350869596
632,28670238.457213424
686,1.0
687,1.0
688,2.0
2,21, 1,21, 0,11,20.00,30.00,Monday
250,6.08186273257581
251,34469180.38217601
336,0.0
385,18.51376375004776
386,27.825386254748636
387,2.7466616654571467
388,0.0
425,0.0
450,0.0
451,0.0
452,9.115581254165068
453,0.0
490,0.0
515,0.0
516,0.0
542,0.0
592,5793671.0952822175
632,28466885.226947904
686,0.9999999999999996
687,0.9999999999999996
688,1.9999999999999991
2,21, 1,21, 0,11,30.00,40.00,Monday
250,6.364634079166789
251,34318554.86748442
336,0.0
385,18.513763750047776
386,27.825386254748658
387,3.0239939712136983
388,0.0
425,0.0
450,0.0
451,0.0
452,9.937386286254121
453,0.0
490,0.0
515,0.0
516,0.0
542,0.0
592,5847681.4279665835
632,28262232.259583406
686,1.0000000000000004
687,1.0000000000000004
688,2.000000000000001
2,21, 1,21, 0,11,40.00,50.00,Monday
250,6.647322685401438
251,34167919.97733192
336,0.0
385,18.513763750047783
386,27.825386254748665
387,3.3031007133497408
388,0.0
425,0.0
450,0.0
451,0.0
452,10.682938435980954
453,0.0
490,0.0
515,0.0
516,0.0
542,0.0
592,5903058.082199926
632,28056223.797898658
686,1.0000000000000009
687,1.0000000000000009
688,2.0000000000000018
2,21, 1,21, 0,11,50.00,60.00,Monday
250,6.9298993188087525
251,34017289.99606955
336,0.0
385,18.513763750047783
386,27.825386254748665
387,3.5801295436627254
388,0.0
425,0.0
450,0.0
451,0.0
452,11.318770725207147
453,0.0
490,0.0
515,0.0
516,0.0
542,0.0
592,5959860.237244541
632,27848789.979347162
686,1.0000000000000009
687,1.0000000000000009
688,2.0000000000000018
2,21, 1,21, 0,12, 0.00,10.00,Monday
250,7.196574870866284
251,33875172.20567335
336,0.0
385,18.51376375004777
386,27.825386254748647
387,3.8201367056508815
388,0.0
425,0.0
450,0.0
451,0.0
452,11.817875872271532
453,0.0
490,0.0
515,0.0
516,0.0
542,0.0
592,5991096.197635707
632,27697723.828171685
686,1.0
687,1.0
688,2.0
2,21, 1,21, 0,12,10.00,20.00,Monday
250,7.462094714406637
251,33737156.049052544
336,0.0
385,18.51376375004777
386,27.825386254748647
387,4.112530450549181
388,0.0
425,0.0
450,0.0
451,0.0
452,12.38186384069428
453,0.0
490,0.0
515,0.0
516,0.0
542,0.0
592,7572016.881221027
632,25976970.492038757
686,1.0
687,1.0
688,2.0
2,21, 1,21, 0,12,20.00,30.00,Monday
250,7.728188054802078
251,33597108.32250995
336,0.0
385,18.51376375004777
386,27.825386254748647
387,4.381654543912202
388,0.0
425,0.0
450,0.0
451,0.0
452,12.896774073034805
453,0.0
490,0.0
515,0.0
516,0.0
542,0.0
592,7609409.155487606
632,25799678.58381258
686,1.0
687,1.0
688,2.0
2,21, 1,21, 0,12,30.00,40.00,Monday
250,7.994213201253601
251,33457098.516427603
336,0.0
385,18.51376375004777
386,27.825386254748647
387,4.640476271810156
388,0.0
425,0.0
450,0.0
451,0.0
452,13.388644315937299
453,0.0
490,0.0
515,0.0
516,0.0
542,0.0
592,7646583.592010483
632,25622475.85275193
686,1.0
687,1.0
688,2.0
2,21, 1,21, 0,12,40.00,50.00,Monday
250,8.260213383199844
251,33317101.875477545
336,0.0
385,18.51376375004777
386,27.825386254748647
387,4.894908411116303
388,0.0
425,0.0
450,0.0
451,0.0
452,13.830751142267168
453,0.0
490,0.0
515,0.0
516,0.0
542,0.0
592,7683540.190789654
632,25445516.063170023
686,1.0
687,1.0
688,2.0
2,21, 1,21, 0,12,50.00,60.00,Monday
250,8.526206221789751
251,33177108.41298253
336,0.0
385,18.51376375004777
386,27.825386254748647
387,5.143859668187877
388,0.0
425,0.0
450,0.0
451,0.0
452,14.198519209327074
453,0.0
490,0.0
515,0.0
516,0.0
542,0.0
592,7720278.951825122
632,25268782.33573151
686,1.0
687,1.0
688,2.0
2,21, 1,21, 0,13, 0.00,10.00,Monday
250,8.709226884090743
251,33078407.684524972
336,0.0
385,18.51376375004777
386,27.825386254748647
387,5.376252909974233
388,0.0
425,0.0
450,0.0
451,0.0
452,14.489745693565022
453,0.0
490,0.0
515,0.0
516,0.0
542,0.0
592,7745410.487127085
632,25171192.308079727
686,1.0
687,1.0
688,2.0
2,21, 1,21, 0,13,10.00,20.00,Monday
250,8.891916069370108
251,32983885.264436435
336,0.0
385,18.51376375004777
386,27.825386254748647
387,5.595048906792825
388,0.0
425,0.0
450,0.0
451,0.0
452,14.719004884241816
453,0.0
490,0.0
515,0.0
516,0.0
542,0.0
592,7770439.060057994
632,25053163.64616774
686,1.0
687,1.0
688,2.0
2,21, 1,21, 0,13,20.00,30.00,Monday
250,9.075042219216089
251,32889222.457784206
336,0.0
385,18.51376375004777
386,27.825386254748647
387,5.799960083661034
388,0.0
425,0.0
450,0.0
451,0.0
452,14.902192020258664
453,0.0
490,0.0
515,0.0
516,0.0
542,0.0
592,7795364.670617863
632,24933823.656154204
686,1.0
687,1.0
688,2.0
2,21, 1,21, 0,13,30.00,40.00,Monday
250,9.258036923966086
251,32794660.736387722
336,0.0
385,18.51376375004777
386,27.825386254748647
387,5.9950062314728605
388,0.0
425,0.0
450,0.0
451,0.0
452,15.051060937147659
453,0.0
490,0.0
515,0.0
516,0.0
542,0.0
592,7820187.318806681
632,24814381.055666704
686,1.0
687,1.0
688,2.0
2,21, 1,21, 0,13,40.00,50.00,Monday
250,9.441036810195735
251,32700129.70463966
336,0.0
385,18.51376375004777
386,27.825386254748647
387,6.183937787275536
388,0.0
425,0.0
450,0.0
451,0.0
452,15.170393595250912
453,0.0
490,0.0
515,0.0
516,0.0
542,0.0
592,7844907.00462445
632,24695146.04138771
686,1.0
687,1.0
688,2.0
2,21, 1,21, 0,13,50.00,60.00,Monday
250,9.624030997489822
251,32605634.921857063
336,0.0
385,18.51376375004777
386,27.825386254748647
387,6.368054660437597
388,0.0
425,0.0
450,0.0
451,0.0
452,15.26382050570068
453,0.0
490,0.0
515,0.0
516,0.0
542,0.0
592,7869523.728071173
632,24576044.542063754
686,1.0
687,1.0
688,2.0
2,21, 1,21, 0,14, 0.00,10.00,Monday
250,9.823962730139666
251,32502025.2396705
336,0.0
385,18.51376375004777
386,27.825386254748647
387,6.550195964070628
388,0.0
425,0.0
450,0.0
451,0.0
452,15.319938314572584
453,0.0
490,0.0
515,0.0
516,0.0
542,0.0
592,7896260.907308879
632,24454859.18064746
686,1.0
687,1.0
688,2.0
2,21, 1,21, 0,14,10.00,20.00,Monday
250,10.02357276803673
251,32398191.34236392
336,0.0
385,18.51376375004777
386,27.825386254748647
387,6.730493496244636
388,0.0
425,0.0
450,0.0
451,0.0
452,15.32042667429246
453,0.0
490,0.0
515,0.0
516,0.0
542,0.0
592,7922875.552815756
632,24324250.126866963
686,1.0
687,1.0
688,2.0
2,21, 1,21, 0,14,20.00,30.00,Monday
250,10.223083242909139
251,32294425.95742151
336,0.0
385,18.51376375004777
386,27.825386254748647
387,6.906789373607008
388,0.0
425,0.0
450,0.0
451,0.0
452,15.264817668099507
453,0.0
490,0.0
515,0.0
516,0.0
542,0.0
592,7949367.664591796
632,24193952.220346145
686,1.0
687,1.0
688,2.0
2,21, 1,21, 0,14,30.00,40.00,Monday
250,10.422526380471478
251,32190721.604313686
336,0.0
385,18.51376375004777
386,27.825386254748647
387,7.073131104149939
388,0.0
425,0.0
450,0.0
451,0.0
452,15.14258574214108
453,0.0
490,0.0
515,0.0
516,0.0
542,0.0
592,7975737.242637001
632,24063855.450162638
686,1.0
687,1.0
688,2.0
2,21, 1,21, 0,14,40.00,50.00,Monday
250,10.621909672292283
251,32087071.622900467
336,0.0
385,18.51376375004777
386,27.825386254748647
387,7.225824966229436
388,0.0
425,0.0
450,0.0
451,0.0
452,14.934009494823613
453,0.0
490,0.0
515,0.0
516,0.0
542,0.0
592,8001984.286951372
632,23933939.78950246
686,1.0
687,1.0
688,2.0
2,21, 1,21, 0,14,50.00,60.00,Monday
250,10.821250431123524
251,31983467.12252655
336,0.0
385,18.51376375004777
386,27.825386254748647
387,7.365161262893526
388,0.0
425,0.0
450,0.0
451,0.0
452,14.642126284273758
453,0.0
490,0.0
515,0.0
516,0.0
542,0.0
592,8028108.797534912
632,23804201.660211362
686,1.0
687,1.0
688,2.0
2,21, 1,21, 0,15, 0.00,10.00,Monday
250,11.08709105089785
251,31844670.63908101
336,0.0
385,18.51376375004777
386,27.825386254748647
387,7.486142153035713
388,0.0
425,0.0
450,0.0
451,0.0
452,14.346819145552
453,0.0
490,0.0
515,0.0
516,0.0
542,0.0