Program Version,EnergyPlus, Version 24.2.0-94a887817b, YMD=2025.01.22 00:06
1,5,Environment Title[],Latitude[deg],Longitude[deg],Time Zone[],Elevation[m]
2,8,Day of Simulation[],Month[],Day of Month[],DST Indicator[1=yes 0=no],Hour[],StartMinute[],EndMinute[],DayType
3,5,Cumulative Day of Simulation[],Month[],Day of Month[],DST Indicator[1=yes 0=no],DayType  ! When Daily Meters Requested
4,2,Cumulative Days of Simulation[],Month[]  ! When Monthly Meters Requested
5,1,Cumulative Days of Simulation[] ! When Run Period Meters Requested
6,1,Calendar Year of Simulation[] ! When Annual Meters Requested
11,9,Electricity:Facility [J] !Monthly [Value,Min,Day,Hour,Minute,Max,Day,Hour,Minute]
23,9,Electricity:Building [J] !Monthly [Value,Min,Day,Hour,Minute,Max,Day,Hour,Minute]
59,9,InteriorLights:Electricity [J] !Monthly [Value,Min,Day,Hour,Minute,Max,Day,Hour,Minute]
521,9,Electricity:HVAC [J] !Monthly [Value,Min,Day,Hour,Minute,Max,Day,Hour,Minute]
637,9,NaturalGas:Facility [J] !Monthly [Value,Min,Day,Hour,Minute,Max,Day,Hour,Minute]
649,9,NaturalGas:HVAC [J] !Monthly [Value,Min,Day,Hour,Minute,Max,Day,Hour,Minute]
13,11,Electricity:Facility [J] !RunPeriod [Value,Min,Month,Day,Hour,Minute,Max,Month,Day,Hour,Minute]
25,11,Electricity:Building [J] !RunPeriod [Value,Min,Month,Day,Hour,Minute,Max,Month,Day,Hour,Minute]
61,11,InteriorLights:Electricity [J] !RunPeriod [Value,Min,Month,Day,Hour,Minute,Max,Month,Day,Hour,Minute]
523,11,Electricity:HVAC [J] !RunPeriod [Value,Min,Month,Day,Hour,Minute,Max,Month,Day,Hour,Minute]
639,11,NaturalGas:Facility [J] !RunPeriod [Value,Min,Month,Day,Hour,Minute,Max,Month,Day,Hour,Minute]
651,11,NaturalGas:HVAC [J] !RunPeriod [Value,Min,Month,Day,Hour,Minute,Max,Month,Day,Hour,Minute]
End of Data Dictionary
1,RUN PERIOD 1,  41.98, -87.92,  -6.00, 201.00
4,31, 1
11,9836658807.98596,408891.4285714286, 5, 6,50,2989334.6214879137,16,13,60
23,997608706.7549398,30000.0, 1, 1,10,619861.3817064889, 1, 9,10
59,970200000.0,30000.0, 1, 1,10,600000.0, 1, 8,10
521,8839050101.230986,378891.4285714286, 5, 6,50,2369473.239781425,16,13,60
637,179174551923.2844,28334602.188054107,21,16,10,41250000.0, 1, 1,10
649,179174551923.2844,28334602.188054107,21,16,10,41250000.0, 1, 1,10
4,59, 2
11,9368369779.11165,99999999999999.0, 5, 6,50,3030796.061751036,22,15,30
23,871993658.0477741,99999999999999.0, 1, 1,10,-99999999999999.0, 1, 9,10
59,848160000.0,99999999999999.0, 1, 1,10,-99999999999999.0, 1, 8,10
521,8496376121.063895,99999999999999.0, 5, 6,50,2410934.680044547,22,15,30
637,158599803784.07227,26643262.287069596,23,12,10,-99999999999999.0, 1, 1,10
649,158599803784.07227,26643262.287069596,23,12,10,-99999999999999.0, 1, 1,10
4,90, 3
11,11024606422.313301,99999999999999.0, 5, 6,50,3275329.2734503644,27,16,10
23,922505340.9501626,99999999999999.0, 1, 1,10,-99999999999999.0, 1, 9,10
59,897480000.0,99999999999999.0, 1, 1,10,-99999999999999.0, 1, 8,10
521,10102101081.363136,99999999999999.0, 5, 6,50,2655467.8917438756,27,16,10
637,163220740846.40082,21121508.657278188,27,16,10,-99999999999999.0, 1, 1,10
649,163220740846.40082,21121508.657278188,27,16,10,-99999999999999.0, 1, 1,10
4,120, 4
11,9872107847.612549,30000.0,11,19,10,3302684.8248158963,24,12,10
23,955737023.8525512,99999999999999.0, 1, 1,10,-99999999999999.0, 1, 9,10
59,929520000.0,99999999999999.0, 1, 1,10,-99999999999999.0, 1, 8,10
521,8916370823.75999,0.0,11,14,40,2682823.4431094076,24,12,10
637,124555722977.43983,0.0,11,14,40,-99999999999999.0, 1, 1,10
649,124555722977.43983,0.0,11,14,40,-99999999999999.0, 1, 1,10
4,151, 5
11,9597781786.151358,99999999999999.0,11,19,10,-99999999999999.0,24,12,10
23,997922991.2231239,99999999999999.0, 1, 1,10,635790.9507896145,28,13,10
59,970200000.0,99999999999999.0, 1, 1,10,-99999999999999.0, 1, 8,10
521,8599858794.92835,99999999999999.0,11,14,40,2684964.6883596634,28, 8,10
637,100352174585.51794,99999999999999.0,11,14,40,-99999999999999.0, 1, 1,10
649,100352174585.51794,99999999999999.0,11,14,40,-99999999999999.0, 1, 1,10
4,181, 6
11,7401810111.654071,99999999999999.0,11,19,10,3304425.5908393436,13,10,50
23,880719954.0487412,99999999999999.0, 1, 1,10,-99999999999999.0,28,13,10
59,856800000.0,99999999999999.0, 1, 1,10,-99999999999999.0, 1, 8,10
521,6521090157.605338,99999999999999.0,11,14,40,-99999999999999.0,28, 8,10
637,52956649775.54183,99999999999999.0,11,14,40,-99999999999999.0, 1, 1,10
649,52956649775.54183,99999999999999.0,11,14,40,-99999999999999.0, 1, 1,10
4,212, 7
11,6351954248.083363,99999999999999.0,11,19,10,3305362.310253657, 9,13,10
23,997886386.7690237,99999999999999.0, 1, 1,10,-99999999999999.0,28,13,10
59,970200000.0,99999999999999.0, 1, 1,10,-99999999999999.0, 1, 8,10
521,5354067861.314329,99999999999999.0,11,14,40,2685500.928547168, 9,13,10
637,26793550550.471107,99999999999999.0,11,14,40,-99999999999999.0, 1, 1,10
649,26793550550.471107,99999999999999.0,11,14,40,-99999999999999.0, 1, 1,10
4,243, 8
11,6529355946.43887,99999999999999.0,11,19,10,-99999999999999.0, 9,13,10
23,960339679.6693785,99999999999999.0, 1, 1,10,635920.3946189556,12,14,10
59,933840000.0,99999999999999.0, 1, 1,10,-99999999999999.0, 1, 8,10
521,5569016266.769544,99999999999999.0,11,14,40,2685981.9581494266,24,12,30
637,45799454105.25446,99999999999999.0,11,14,40,-99999999999999.0, 1, 1,10
649,45799454105.25446,99999999999999.0,11,14,40,-99999999999999.0, 1, 1,10
4,273, 9
11,8732538309.766071,99999999999999.0,11,19,10,3306102.565869081, 3,13,30
23,918185340.9501626,99999999999999.0, 1, 1,10,-99999999999999.0,12,14,10
59,893160000.0,99999999999999.0, 1, 1,10,-99999999999999.0, 1, 8,10
521,7814352968.815864,99999999999999.0,11,14,40,2686241.184162592, 3,13,30
637,79793540189.51141,99999999999999.0,11,14,40,-99999999999999.0, 1, 1,10
649,79793540189.51141,99999999999999.0,11,14,40,-99999999999999.0, 1, 1,10
4,304,10
11,10826752667.227995,99999999999999.0,11,19,10,-99999999999999.0, 3,13,30
23,997644607.5592718,99999999999999.0, 1, 1,10,637966.2022764765,22,16,30
59,970200000.0,99999999999999.0, 1, 1,10,-99999999999999.0, 1, 8,10
521,9829108059.668709,99999999999999.0,11,14,40,-99999999999999.0, 3,13,30
637,131022873343.7833,99999999999999.0,11,14,40,-99999999999999.0, 1, 1,10
649,131022873343.7833,99999999999999.0,11,14,40,-99999999999999.0, 1, 1,10
4,334,11
11,10668255972.70709,99999999999999.0,11,19,10,-99999999999999.0, 3,13,30
23,918185340.9501626,99999999999999.0, 1, 1,10,-99999999999999.0,22,16,30
59,893160000.0,99999999999999.0, 1, 1,10,-99999999999999.0, 1, 8,10
521,9750070631.756912,99999999999999.0,11,14,40,-99999999999999.0, 3,13,30
637,149648022289.04736,99999999999999.0,11,14,40,-99999999999999.0, 1, 1,10
649,149648022289.04736,99999999999999.0,11,14,40,-99999999999999.0, 1, 1,10
4,365,12
11,10449007644.236378,99999999999999.0,11,19,10,-99999999999999.0, 3,13,30
23,960057023.8525512,99999999999999.0, 1, 1,10,-99999999999999.0,22,16,30
59,933840000.0,99999999999999.0, 1, 1,10,-99999999999999.0, 1, 8,10
521,9488950620.383821,99999999999999.0,11,14,40,-99999999999999.0, 3,13,30
637,180027521477.9788,99999999999999.0,11,14,40,-99999999999999.0, 1, 1,10
649,180027521477.9788,99999999999999.0,11,14,40,-99999999999999.0, 1, 1,10
5,365
13,110659199543.2977,30000.0, 4,11,19,10,3306102.565869081, 9, 3,13,30
25,11378786054.626204,30000.0, 1, 1, 1,10,637966.2022764765,10,22,16,30
61,11066760000.0,30000.0, 1, 1, 1,10,600000.0, 1, 1, 8,10
523,99280413488.6669,0.0, 4,11,14,40,2686241.184162592, 9, 3,13,30
639,1391944605848.3008,0.0, 4,11,14,40,41250000.0, 1, 1, 1,10
651,1391944605848.3008,0.0, 4,11,14,40,41250000.0, 1, 1, 1,10
1,RUN PERIOD 2,  41.98, -87.92,  -6.00, 201.00
4,1, 7
11,86605101.93383166,99999999999999.0,11,19,10,-99999999999999.0, 3,13,30
23,41871682.90238933,99999999999999.0, 1, 1,10,-99999999999999.0,22,16,30
59,40680000.0,99999999999999.0, 1, 1,10,-99999999999999.0, 1, 8,10
521,44733419.03144228,99999999999999.0,11,14,40,-99999999999999.0, 3,13,30
637,0.0,99999999999999.0,11,14,40,-99999999999999.0, 1, 1,10
649,0.0,99999999999999.0,11,14,40,-99999999999999.0, 1, 1,10
5,1
13,86605101.93383166,99999999999999.0, 4,11,19,10,-99999999999999.0, 9, 3,13,30
25,41871682.90238933,99999999999999.0, 1, 1, 1,10,-99999999999999.0,10,22,16,30
61,40680000.0,99999999999999.0, 1, 1, 1,10,-99999999999999.0, 1, 1, 8,10
523,44733419.03144228,99999999999999.0, 4,11,14,40,-99999999999999.0, 9, 3,13,30
639,0.0,99999999999999.0, 4,11,14,40,-99999999999999.0, 1, 1, 1,10
651,0.0,99999999999999.0, 4,11,14,40,-99999999999999.0, 1, 1, 1,10
End of Data
 Number of Records Written=          90
