Program Version,EnergyPlus, Version 24.2.0-94a887817b, YMD=2025.02.04 15:37
1,5,Environment Title[],Latitude[deg],Longitude[deg],Time Zone[],Elevation[m]
2,8,Day of Simulation[],Month[],Day of Month[],DST Indicator[1=yes 0=no],Hour[],StartMinute[],EndMinute[],DayType
3,5,Cumulative Day of Simulation[],Month[],Day of Month[],DST Indicator[1=yes 0=no],DayType  ! When Daily Report Variables Requested
4,2,Cumulative Days of Simulation[],Month[]  ! When Monthly Report Variables Requested
5,1,Cumulative Days of Simulation[] ! When Run Period Report Variables Requested
6,1,Calendar Year of Simulation[] ! When Annual Report Variables Requested
250,1,LIVING ZONE,Zone Air Temperature [C] !TimeStep,REPORTSCH
251,1,LIVING ZONE,Zone Air System Sensible Heating Energy [J] !TimeStep,REPORTSCH
336,1,LIVING ZONE,Zone Air System Sensible Cooling Energy [J] !TimeStep,REPORTSCH
385,1,LIVING ZONE,Zone Thermostat Heating Setpoint Temperature [C] !TimeStep,REPORTSCH
386,1,LIVING ZONE,Zone Thermostat Cooling Setpoint Temperature [C] !TimeStep,REPORTSCH
387,1,GARAGE ZONE,Zone Air Temperature [C] !TimeStep,REPORTSCH
388,1,GARAGE ZONE,Zone Air System Sensible Heating Energy [J] !TimeStep,REPORTSCH
425,1,GARAGE ZONE,Zone Air System Sensible Cooling Energy [J] !TimeStep,REPORTSCH
450,1,GARAGE ZONE,Zone Thermostat Heating Setpoint Temperature [C] !TimeStep,REPORTSCH
451,1,GARAGE ZONE,Zone Thermostat Cooling Setpoint Temperature [C] !TimeStep,REPORTSCH
452,1,ATTIC ZONE,Zone Air Temperature [C] !TimeStep,REPORTSCH
453,1,ATTIC ZONE,Zone Air System Sensible Heating Energy [J] !TimeStep,REPORTSCH
490,1,ATTIC ZONE,Zone Air System Sensible Cooling Energy [J] !TimeStep,REPORTSCH
515,1,ATTIC ZONE,Zone Thermostat Heating Setpoint Temperature [C] !TimeStep,REPORTSCH
516,1,ATTIC ZONE,Zone Thermostat Cooling Setpoint Temperature [C] !TimeStep,REPORTSCH
542,1,ACDXCOIL 1,Cooling Coil Total Cooling Energy [J] !TimeStep,REPORTSCH
592,1,HEAT PUMP DX HEATING COIL 1,Heating Coil Heating Energy [J] !TimeStep,REPORTSCH
632,1,SUPP HEATING COIL 1,Heating Coil Heating Energy [J] !TimeStep,REPORTSCH
686,1,TWOSPEED HEAT PUMP 1,Unitary System DX Coil Cycling Ratio [] !TimeStep,REPORTSCH
687,1,TWOSPEED HEAT PUMP 1,Unitary System DX Coil Speed Ratio [] !TimeStep,REPORTSCH
688,1,TWOSPEED HEAT PUMP 1,Unitary System DX Coil Speed Level [] !TimeStep,REPORTSCH
End of Data Dictionary
1,RUN PERIOD 1,  41.98, -87.92,  -6.00, 201.00
2,21, 1,21, 0, 1, 0.00,10.00,Monday
250,-0.10416745951909046
251,37736387.33998413
336,0.0
385,18.211205484801695
386,26.24112072096886
387,-0.9318751300652575
388,0.0
425,0.0
450,0.0
451,0.0
452,-1.9581098475497667
453,0.0
490,0.0
515,0.0
516,0.0
542,0.0
592,4839743.985079641
632,32639874.90812519
686,1.0
687,1.0
688,2.0
2,21, 1,21, 0, 1,10.00,20.00,Monday
250,-0.10418012944189393
251,37737967.59100554
336,0.0
385,18.211205484801695
386,26.24112072096886
387,-0.9402765784292295
388,0.0
425,0.0
450,0.0
451,0.0
452,-1.9400331900394927
453,0.0
490,0.0
515,0.0
516,0.0
542,0.0
592,4823801.676011796
632,32655267.666042488
686,1.0
687,1.0
688,2.0
2,21, 1,21, 0, 1,20.00,30.00,Monday
250,-0.10450331043645837
251,37739803.84860144
336,0.0
385,18.211205484801695
386,26.24112072096886
387,-0.9498999549674252
388,0.0
425,0.0
450,0.0
451,0.0
452,-1.9369295068323351
453,0.0
490,0.0
515,0.0
516,0.0
542,0.0
592,4807858.16290522
632,32672880.27704125
686,1.0
687,1.0
688,2.0
2,21, 1,21, 0, 1,30.00,40.00,Monday
250,-0.10474435412300723
251,37741567.17454566
336,0.0
385,18.211205484801695
386,26.24112072096886
387,-0.9609502746184195
388,0.0
425,0.0
450,0.0
451,0.0
452,-1.949755535464318
453,0.0
490,0.0
515,0.0
516,0.0
542,0.0
592,4791913.445623511
632,32690632.53215069
686,1.0
687,1.0
688,2.0
2,21, 1,21, 0, 1,40.00,50.00,Monday
250,-0.10499564268797966
251,37743340.13711951
336,0.0
385,18.211205484801695
386,26.24112072096886
387,-0.9735853410932486
388,0.0
425,0.0
450,0.0
451,0.0
452,-1.976901096114558
453,0.0
490,0.0
515,0.0
516,0.0
542,0.0
592,4775967.524030239
632,32708345.895018235
686,1.0
687,1.0
688,2.0
2,21, 1,21, 0, 1,50.00,60.00,Monday
250,-0.10525206404608908
251,37745117.26903016
336,0.0
385,18.211205484801695
386,26.24112072096886
387,-0.9879942551845369
388,0.0
425,0.0
450,0.0
451,0.0
452,-2.0168247885420065
453,0.0
490,0.0
515,0.0
516,0.0
542,0.0
592,4760020.397988958
632,32726067.383566234
686,1.0
687,1.0
688,2.0
2,21, 1,21, 0, 2, 0.00,10.00,Monday
250,-0.10549397414378628
251,37746886.571384855
336,0.0
385,18.211205484801695
386,26.24112072096886
387,-1.0035022848292674
388,0.0
425,0.0
450,0.0
451,0.0
452,-2.0634941182466244
453,0.0
490,0.0
515,0.0
516,0.0
542,0.0
592,4760020.397988958
632,32727844.493220765
686,1.0
687,1.0
688,2.0
2,21, 1,21, 0, 2,10.00,20.00,Monday
250,-0.10576984489800483
251,37747100.20781827
336,0.0
385,18.211205484801695
386,26.24112072096886
387,-1.0191751622639138
388,0.0
425,0.0
450,0.0
451,0.0
452,-2.1061520167729197
453,0.0
490,0.0
515,0.0
516,0.0
542,0.0
592,4760020.397988959
632,32728039.843968775
686,1.0
687,1.0
688,2.0
2,21, 1,21, 0, 2,20.00,30.00,Monday
250,-0.10604667242098784
251,37747225.5010892
336,0.0
385,18.211205484801695
386,26.24112072096886
387,-1.0344634136203144
388,0.0
425,0.0
450,0.0
451,0.0
452,-2.1375773966261984
453,0.0
490,0.0
515,0.0
516,0.0
542,0.0
592,4760020.397988958
632,32728164.622179825
686,1.0
687,1.0
688,2.0
2,21, 1,21, 0, 2,30.00,40.00,Monday
250,-0.10631713684976503
251,37747376.22345209
336,0.0
385,18.211205484801695
386,26.24112072096886
387,-1.0490462913972491
388,0.0
425,0.0
450,0.0
451,0.0
452,-2.156953503119991
453,0.0
490,0.0
515,0.0
516,0.0
542,0.0
592,4760020.397988958
632,32728318.770606298
686,1.0
687,1.0
688,2.0
2,21, 1,21, 0, 2,40.00,50.00,Monday
250,-0.1065835272812773
251,37747520.766502135
336,0.0
385,18.211205484801695
386,26.24112072096886
387,-1.0627826170138388
388,0.0
425,0.0
450,0.0
451,0.0
452,-2.167102931224908
453,0.0
490,0.0
515,0.0
516,0.0
542,0.0
592,4760020.397988958
632,32728465.50721632
686,1.0
687,1.0
688,2.0
2,21, 1,21, 0, 2,50.00,60.00,Monday
250,-0.10684512622242366
251,37747661.4587054
336,0.0
385,18.211205484801695
386,26.24112072096886
387,-1.0756340808611162
388,0.0
425,0.0
450,0.0
451,0.0
452,-2.171164577214488
453,0.0
490,0.0
515,0.0
516,0.0
542,0.0
592,4760020.397988958
632,32728608.7793046
686,1.0
687,1.0
688,2.0
2,21, 1,21, 0, 3, 0.00,10.00,Monday
250,-0.02726144938616394
251,37704811.17369632
336,0.0
385,18.211205484801695
386,26.24112072096886
387,-1.0772248806128175
388,0.0
425,0.0
450,0.0
451,0.0
452,-2.1637306351750603
453,0.0
490,0.0
515,0.0
516,0.0
542,0.0
592,4762558.894114006
632,32726211.127396293
686,1.0
687,1.0
688,2.0
2,21, 1,21, 0, 3,10.00,20.00,Monday
250,0.05572224451653955
251,37661620.80912367
336,0.0
385,18.211205484801695
386,26.24112072096886
387,-1.0662694827958292
388,0.0
425,0.0
450,0.0
451,0.0
452,-2.1388306336945253
453,0.0
490,0.0
515,0.0
516,0.0
542,0.0
592,4764988.4357309695
632,32682423.66245587
686,1.0
687,1.0
688,2.0
2,21, 1,21, 0, 3,20.00,30.00,Monday
250,0.1372424519482754
251,37619308.80986011
336,0.0
385,18.211205484801695
386,26.24112072096886
387,-1.0471956668931586
388,0.0
425,0.0
450,0.0
451,0.0
452,-2.094998914702328
453,0.0
490,0.0
515,0.0
516,0.0
542,0.0
592,4767308.250738333
632,32637005.678085126
686,1.0
687,1.0
688,2.0
2,21, 1,21, 0, 3,30.00,40.00,Monday
250,0.2190794350412137
251,37576805.66422942
336,0.0
385,18.211205484801695
386,26.24112072096886
387,-1.02380460971328
388,0.0
425,0.0
450,0.0
451,0.0
452,-2.03534879084735
453,0.0
490,0.0
515,0.0
516,0.0
542,0.0
592,4769517.689516207
632,32592465.50345753
686,1.0
687,1.0
688,2.0
2,21, 1,21, 0, 3,40.00,50.00,Monday
250,0.3010559822569733
251,37534237.71720189
336,0.0
385,18.211205484801695
386,26.24112072096886
387,-0.9974123765251205
388,0.0
425,0.0
450,0.0
451,0.0
452,-1.9643577340243503
453,0.0
490,0.0
515,0.0
516,0.0
542,0.0
592,4771616.115684973
632,32547876.13891089
686,1.0
687,1.0
688,2.0
2,21, 1,21, 0, 3,50.00,60.00,Monday
250,0.38304291399169105
251,37491672.00618897
336,0.0
385,18.211205484801695
386,26.24112072096886
387,-0.9678483016075325
388,0.0
425,0.0
450,0.0
451,0.0
452,-1.8856489681662354
453,0.0
490,0.0
515,0.0
516,0.0
542,0.0
592,4773602.736238396
632,32503331.267240517
686,1.0
687,1.0
688,2.0
2,21, 1,21, 0, 4, 0.00,10.00,Monday
250,0.3852313231359868
251,37492089.516709946
336,0.0
385,18.211205484801695
386,26.24112072096886
387,-0.9455806304232327
388,0.0
425,0.0
450,0.0
451,0.0
452,-1.809503444684229
453,0.0
490,0.0
515,0.0
516,0.0
542,0.0
592,4773428.982371633
632,32460947.706703104
686,1.0
687,1.0
688,2.0
2,21, 1,21, 0, 4,10.00,20.00,Monday
250,0.38406670341919913
251,37492817.04915658
336,0.0
385,18.211205484801695
386,26.24112072096886
387,-0.9331999889001413
388,0.0
425,0.0
450,0.0
451,0.0
452,-1.7449489138018226
453,0.0
490,0.0
515,0.0
516,0.0
542,0.0
592,4773255.169447958
632,32460043.22584686
686,1.0
687,1.0
688,2.0
2,21, 1,21, 0, 4,20.00,30.00,Monday
250,0.3844445289896154
251,37492629.190223195
336,0.0
385,18.211205484801695
386,26.24112072096886
387,-0.9272615000272049
388,0.0
425,0.0
450,0.0
451,0.0
452,-1.6956010987411674
453,0.0
490,0.0
515,0.0
516,0.0
542,0.0
592,4773081.29743726
632,32460859.948535133
686,1.0
687,1.0
688,2.0
2,21, 1,21, 0, 4,30.00,40.00,Monday
250,0.3845743595427143
251,37492602.35823892
336,0.0
385,18.211205484801695
386,26.24112072096886
387,-0.9240416765137905
388,0.0
425,0.0
450,0.0
451,0.0
452,-1.6598234883946426
453,0.0
490,0.0
515,0.0
516,0.0
542,0.0
592,4772907.3663094025
632,32460873.48586817
686,1.0
687,1.0
688,2.0
2,21, 1,21, 0, 4,40.00,50.00,Monday
250,0.3846432448878121
251,37492604.58319704
336,0.0
385,18.211205484801695
386,26.24112072096886
387,-0.9218179229581361
388,0.0
425,0.0
450,0.0
451,0.0
452,-1.633953946018147
453,0.0
490,0.0
515,0.0
516,0.0
542,0.0
592,4772733.376034233
632,32461016.878035035
686,1.0
687,1.0
688,2.0
2,21, 1,21, 0, 4,50.00,60.00,Monday
250,0.384721373355457
251,37492600.63359487
336,0.0
385,18.211205484801695
386,26.24112072096886
387,-0.9204005940967268
388,0.0
425,0.0
450,0.0
451,0.0
452,-1.614925412518992
453,0.0
490,0.0
515,0.0
516,0.0
542,0.0
592,4772559.326581575
632,32461191.955978483
686,1.0
687,1.0
688,2.0
2,21, 1,21, 0, 5, 0.00,10.00,Monday
250,0.38479612259451473
251,37492598.66108886
336,0.0
385,18.211205484801695
386,26.24112072096886
387,-0.9198198949355634
388,0.0
425,0.0
450,0.0
451,0.0
452,-1.6001170459762293
453,0.0
490,0.0
515,0.0
516,0.0
542,0.0
592,4759720.85868958
632,32474026.631459296
686,1.0
687,1.0
688,2.0
2,21, 1,21, 0, 5,10.00,20.00,Monday
250,0.38490080041753094
251,37493805.63053279
336,0.0
385,18.211205484801695
386,26.24112072096886
387,-0.9199276830315006
388,0.0
425,0.0
450,0.0
451,0.0
452,-1.5872187043322004
453,0.0
490,0.0
515,0.0
516,0.0
542,0.0
592,4746877.262331866
632,32488093.317771528
686,1.0
687,1.0
688,2.0
2,21, 1,21, 0, 5,20.00,30.00,Monday
250,0.38500879381624636
251,37495080.536805876
336,0.0
385,18.211205484801695
386,26.24112072096886
387,-0.92049375449824
388,0.0
425,0.0
450,0.0
451,0.0
452,-1.5748277760008123
453,0.0
490,0.0
515,0.0
516,0.0
542,0.0
592,4734028.534436011
632,32502218.739735287
686,1.0
687,1.0
688,2.0
2,21, 1,21, 0, 5,30.00,40.00,Monday
250,0.38511625968838287
251,37496333.803889036
336,0.0
385,18.211205484801695
386,26.24112072096886
387,-0.9213173356015972
388,0.0
425,0.0
450,0.0
451,0.0
452,-1.562507124642661
453,0.0
490,0.0
515,0.0
516,0.0
542,0.0
592,4721174.671927155
632,32516325.58722215
686,1.0
687,1.0
688,2.0
2,21, 1,21, 0, 5,40.00,50.00,Monday
250,0.38522467877187
251,37497590.17611098
336,0.0
385,18.211205484801695
386,26.24112072096886
387,-0.9222645294025449
388,0.0
425,0.0
450,0.0
451,0.0
452,-1.5503221347845622
453,0.0
490,0.0
515,0.0
516,0.0
542,0.0
592,4708315.671727969
632,32530441.47511462
686,1.0
687,1.0
688,2.0
2,21, 1,21, 0, 5,50.00,60.00,Monday
250,0.3853342545286712
251,37498847.43481678
336,0.0
385,18.211205484801695
386,26.24112072096886
387,-0.9232569176777901
388,0.0
425,0.0
450,0.0
451,0.0
452,-1.5384223747281576
453,0.0
490,0.0
515,0.0
516,0.0
542,0.0
592,4695451.530758674
632,32544563.49989687
686,1.0
687,1.0
688,2.0
2,21, 1,21, 0, 6, 0.00,10.00,Monday
250,0.3854495888383962
251,37500101.99414554
336,0.0
385,18.211205484801695
386,26.24112072096886
387,-0.9243799999119104
388,0.0
425,0.0
450,0.0
451,0.0
452,-1.5274970961901393
453,0.0
490,0.0
515,0.0
516,0.0
542,0.0
592,4695264.082255858
632,32546008.6118295
686,1.0
687,1.0
688,2.0
2,21, 1,21, 0, 6,10.00,20.00,Monday
250,0.38553522984697536
251,37500146.365375884
336,0.0
385,18.211205484801695
386,26.24112072096886
387,-0.925716604196677
388,0.0
425,0.0
450,0.0
451,0.0
452,-1.5183587606895608
453,0.0
490,0.0
515,0.0
516,0.0
542,0.0
592,4695076.569900009
632,32546224.500281565
686,1.0
687,1.0
688,2.0
2,21, 1,21, 0, 6,20.00,30.00,Monday
250,0.3856188419371132
251,37500122.52713713
336,0.0
385,18.211205484801695
386,26.24112072096886
387,-0.9272615246097331
388,0.0
425,0.0
450,0.0
451,0.0
452,-1.5113480122727403
453,0.0
490,0.0
515,0.0
516,0.0
542,0.0
592,4694888.993658494
632,32546387.145365413
686,1.0
687,1.0
688,2.0
2,21, 1,21, 0, 6,30.00,40.00,Monday
250,0.3857050359502289
251,37500119.781918645
336,0.0
385,18.211205484801695
386,26.24112072096886
387,-0.9289732466815451
388,0.0
425,0.0
450,0.0
451,0.0
452,-1.5062566747363073
453,0.0
490,0.0
515,0.0
516,0.0
542,0.0
592,4694701.353498662
632,32546573.431200303
686,1.0
687,1.0
688,2.0
2,21, 1,21, 0, 6,40.00,50.00,Monday
250,0.38579272361637124
251,37500113.14366285
336,0.0
385,18.211205484801695
386,26.24112072096886
387,-0.9308198741962243
388,0.0
425,0.0
450,0.0
451,0.0
452,-1.5026309974215957
453,0.0
490,0.0
515,0.0
516,0.0
542,0.0
592,4694513.649387832
632,32546755.30171374
686,1.0
687,1.0
688,2.0
2,21, 1,21, 0, 6,50.00,60.00,Monday
250,0.38588201828178864
251,37500104.66276382
336,0.0
385,18.211205484801695
386,26.24112072096886
387,-0.9327839373032916
388,0.0
425,0.0
450,0.0
451,0.0
452,-1.5000492079045702
453,0.0
490,0.0
515,0.0
516,0.0
542,0.0
592,4694325.88129331
632,32546935.454626087
686,1.0
687,1.0
688,2.0
2,21, 1,21, 0, 7, 0.00,10.00,Monday
250,0.38366769722648664
251,37501337.23881271
336,0.0
385,18.211205484801695
386,26.24112072096886
387,-0.9372961125918248
388,0.0
425,0.0
450,0.0
451,0.0
452,-1.5033729481833753
453,0.0
490,0.0
515,0.0
516,0.0
542,0.0
592,4723573.583255435
632,32517679.40343563
686,1.0
687,1.0
688,2.0
2,21, 1,21, 0, 7,10.00,20.00,Monday
250,0.3836864637206695
251,37498539.47911987
336,0.0
385,18.211205484801695
386,26.24112072096886
387,-0.9465374625200104
388,0.0
425,0.0
450,0.0
451,0.0
452,-1.5220624726019114
453,0.0
490,0.0
515,0.0
516,0.0
542,0.0
592,4752837.186047653
632,32486820.972995292
686,1.0
687,1.0
688,2.0
2,21, 1,21, 0, 7,20.00,30.00,Monday
250,0.38386076496144134
251,37495496.748106
336,0.0
385,18.211205484801695
386,26.24112072096886
387,-0.9607478975480569
388,0.0
425,0.0
450,0.0
451,0.0
452,-1.5615028995700422
453,0.0
490,0.0
515,0.0
516,0.0
542,0.0
592,4782116.702651945
632,32454582.496142212
686,1.0
687,1.0
688,2.0
2,21, 1,21, 0, 7,30.00,40.00,Monday
250,0.3839905064850081
251,37492528.243320264
336,0.0
385,18.211205484801695
386,26.24112072096886
387,-0.978958695931292
388,0.0
425,0.0
450,0.0
451,0.0
452,-1.6193504826472769
453,0.0
490,0.0
515,0.0
516,0.0
542,0.0
592,4811412.146064443
632,32422294.54252192
686,1.0
687,1.0
688,2.0
2,21, 1,21, 0, 7,40.00,50.00,Monday
250,0.3841309655907737
251,37489545.25257197
336,0.0
385,18.211205484801695
386,26.24112072096886
387,-1.0000728173411386
388,0.0
425,0.0
450,0.0
451,0.0
452,-1.6893498764213
453,0.0
490,0.0
515,0.0
516,0.0
542,0.0
592,4840723.5292954575
632,32390005.934757773
686,1.0
687,1.0
688,2.0
2,21, 1,21, 0, 7,50.00,60.00,Monday
250,0.3842773633120102
251,37486555.21653173
336,0.0
385,18.211205484801695
386,26.24112072096886
387,-1.023333710245638
388,0.0
425,0.0
450,0.0
451,0.0
452,-1.7657903880155181
453,0.0
490,0.0
515,0.0
516,0.0
542,0.0
592,4870050.865369482
632,32357691.754585274
686,1.0
687,1.0
688,2.0
2,21, 1,21, 0, 8, 0.00,10.00,Monday
250,0.5854781923423434
251,37375308.85187228
336,0.0
385,18.211205484801695
386,26.24112072096886
387,-1.0194464832204493
388,0.0
425,0.0
450,0.0
451,0.0
452,-1.8247976268218191
453,0.0
490,0.0
515,0.0
516,0.0
542,0.0
592,4889730.300311495
632,32335020.98354808
686,1.0
687,1.0
688,2.0
2,21, 1,21, 0, 8,10.00,20.00,Monday
250,0.7865592676923413
251,37269180.23482392
336,0.0
385,18.211205484801695
386,26.24112072096886
387,-0.977394261565977
388,0.0
425,0.0
450,0.0
451,0.0
452,-1.8161632565775516
453,0.0
490,0.0
515,0.0
516,0.0
542,0.0
592,4909380.719869504
632,32209183.68660948
686,1.0
687,1.0
688,2.0
2,21, 1,21, 0, 8,20.00,30.00,Monday
250,0.9831026836436807
251,37165778.81206536
336,0.0
385,18.211205484801695
386,26.24112072096886
387,-0.9060150108711552
388,0.0
425,0.0
450,0.0
451,0.0
452,-1.7090615845313568
453,0.0
490,0.0
515,0.0
516,0.0
542,0.0
592,4929009.6156952735
632,32083716.908766303
686,1.0
687,1.0
688,2.0
2,21, 1,21, 0, 8,30.00,40.00,Monday
250,1.1806608763387902
251,37061737.83054149
336,0.0
385,18.211205484801695
386,26.24112072096886
387,-0.8152709223303308
388,0.0
425,0.0
450,0.0
451,0.0
452,-1.5141786194400533
453,0.0
490,0.0
515,0.0
516,0.0
542,0.0
592,4952863.6467726575
632,31956375.08673063
686,1.0
687,1.0
688,2.0
2,21, 1,21, 0, 8,40.00,50.00,Monday
250,1.3786163565143301
251,36957098.05798844
336,0.0
385,18.211205484801695
386,26.24112072096886
387,-0.7132189047173312
388,0.0
425,0.0
450,0.0
451,0.0
452,-1.2378107707175265
453,0.0
490,0.0
515,0.0
516,0.0
542,0.0
592,4977062.298687914
632,31827756.289036036
686,1.0
687,1.0
688,2.0
2,21, 1,21, 0, 8,50.00,60.00,Monday
250,1.5782192157582893
251,36852466.92704578
336,0.0
385,18.211205484801695
386,26.24112072096886
387,-0.6170854294982113
388,0.0
425,0.0
450,0.0
451,0.0
452,-0.9240482220837316
453,0.0
490,0.0
515,0.0
516,0.0
542,0.0
592,5001395.306277511
632,31647674.599165995
686,1.0
687,1.0
688,2.0
2,21, 1,21, 0, 9, 0.00,10.00,Monday
250,1.84204811243454
251,36714250.91583602
336,0.0
385,18.211205484801695
386,26.24112072096886
387,-0.47841595040006946
388,0.0
425,0.0
450,0.0
451,0.0
452,-0.44403761177375195
453,0.0
490,0.0
515,0.0
516,0.0
542,0.0
592,5029363.153609448
632,31498519.958229523
686,1.0
687,1.0
688,2.0
2,21, 1,21, 0, 9,10.00,20.00,Monday
250,2.1055945776871856
251,36575292.29717247
336,0.0
385,18.211205484801695
386,26.24112072096886
387,-0.3273314880217402
388,0.0
425,0.0
450,0.0
451,0.0
452,0.08026528886540993
453,0.0
490,0.0
515,0.0
516,0.0
542,0.0
592,5057356.862312016
632,31331432.728199996
686,1.0
687,1.0
688,2.0
2,21, 1,21, 0, 9,20.00,30.00,Monday
250,2.3693929774734594
251,36436187.126905695
336,0.0
385,18.211205484801695
386,26.24112072096886
387,-0.16741508859218174
388,0.0
425,0.0
450,0.0
451,0.0
452,0.644947217272861
453,0.0
490,0.0
515,0.0
516,0.0
542,0.0
592,5085392.284952975
632,31164361.9918483
686,1.0
687,1.0
688,2.0
2,21, 1,21, 0, 9,30.00,40.00,Monday
250,2.6330136907764827
251,36297176.92156179
336,0.0
385,18.211205484801695
386,26.24112072096886
387,0.0022298375320301198
388,0.0
425,0.0
450,0.0
451,0.0
452,1.2395936165609998
453,0.0
490,0.0
515,0.0
516,0.0
542,0.0
592,5113485.892141593
632,30997210.656646892
686,1.0
687,1.0
688,2.0
2,21, 1,21, 0, 9,40.00,50.00,Monday
250,2.897413429549164
251,36156814.306881174
336,0.0
385,18.21120548480171
386,26.24112072096888
387,0.1472506475796883
388,0.0
425,0.0
450,0.0
451,0.0
452,1.7416960474867311
453,0.0
490,0.0
515,0.0
516,0.0
542,0.0
592,5141654.529350725
632,30804039.179470718
686,1.0000000000000009
687,1.0000000000000009
688,2.0000000000000018
2,21, 1,21, 0, 9,50.00,60.00,Monday
250,3.1616870588746346
251,36016898.2831326
336,0.0
385,18.211205484801695
386,26.24112072096886
387,0.29934682488611636
388,0.0
425,0.0
450,0.0
451,0.0
452,2.2825508433117405
453,0.0
490,0.0
515,0.0
516,0.0
542,0.0
592,5169915.672059795
632,30661595.651332825
686,1.0
687,1.0
688,2.0
2,21, 1,21, 0,10, 0.00,10.00,Monday
250,3.6180162557961277
251,35774818.296656474
336,0.0
385,18.211205484801695
386,26.24112072096886
387,0.48973739147001016
388,0.0
425,0.0
450,0.0
451,0.0
452,2.8422785936368147
453,0.0
490,0.0
515,0.0
516,0.0
542,0.0
592,5241404.10703412
632,30357100.42239164
686,1.0
687,1.0
688,2.0
2,21, 1,21, 0,10,10.00,20.00,Monday
250,4.076418391227878
251,35532195.615159586
336,0.0
385,18.211205484801695
386,26.24112072096886
387,0.7808037894905169
388,0.0
425,0.0
450,0.0
451,0.0
452,3.5972434530406376
453,0.0
490,0.0
515,0.0
516,0.0
542,0.0
592,5315291.857316207
632,30040129.37439094
686,1.0
687,1.0
688,2.0
2,21, 1,21, 0,10,20.00,30.00,Monday
250,4.535877350909771
251,35287766.325415425
336,0.0
385,18.211205484801688
386,26.241120720968848
387,1.061277587498277
388,0.0
425,0.0
450,0.0
451,0.0
452,4.286690549885907
453,0.0
490,0.0
515,0.0
516,0.0
542,0.0
592,5391793.298050372
632,29719432.63914877
686,0.9999999999999996
687,0.9999999999999996
688,1.9999999999999991
2,21, 1,21, 0,10,30.00,40.00,Monday
250,4.995857811097094
251,35042924.58672852
336,0.0
385,18.211205484801702
386,26.24112072096887
387,1.3431136581386889
388,0.0
425,0.0
450,0.0
451,0.0
452,4.987916908335645
453,0.0
490,0.0
515,0.0
516,0.0
542,0.0
592,5471132.199313744
632,29395389.40681427
686,1.0000000000000004
687,1.0000000000000004
688,2.000000000000001
2,21, 1,21, 0,10,40.00,50.00,Monday
250,5.456538245294805
251,34797566.30048569
336,0.0
385,18.21120548480171
386,26.24112072096888
387,1.633308327403714
388,0.0
425,0.0
450,0.0
451,0.0
452,5.751888153516335
453,0.0
490,0.0
515,0.0
516,0.0
542,0.0
592,5553542.3757593315
632,29067793.558186952
686,1.0000000000000009
687,1.0000000000000009
688,2.0000000000000018
2,21, 1,21, 0,10,50.00,60.00,Monday
250,5.917265948465549
251,34552036.66790286
336,0.0
385,18.21120548480171
386,26.24112072096888
387,1.9335818014497737
388,0.0
425,0.0
450,0.0
451,0.0
452,6.581124153288718
453,0.0
490,0.0
515,0.0
516,0.0
542,0.0
592,5639267.778995938
632,28736595.27353259
686,1.0000000000000009
687,1.0000000000000009
688,2.0000000000000018
2,21, 1,21, 0,11, 0.00,10.00,Monday
250,6.200953021403819
251,34401076.93247375
336,0.0
385,18.211205484801695
386,26.24112072096886
387,2.2201336852862785
388,0.0
425,0.0
450,0.0
451,0.0
452,7.436406350097724
453,0.0
490,0.0
515,0.0
516,0.0
542,0.0
592,5689519.861596227
632,28503563.31057649
686,1.0
687,1.0
688,2.0
2,21, 1,21, 0,11,10.00,20.00,Monday
250,6.482834759267905
251,34251011.862857364
336,0.0
385,18.211205484801695
386,26.24112072096886
387,2.489926439659977
388,0.0
425,0.0
450,0.0
451,0.0
452,8.287013130106775
453,0.0
490,0.0
515,0.0
516,0.0
542,0.0
592,5740969.350869596
632,28301708.70461484
686,1.0
687,1.0
688,2.0
2,21, 1,21, 0,11,20.00,30.00,Monday
250,6.76477451746876
251,34100869.43000202
336,0.0
385,18.211205484801688
386,26.241120720968848
387,2.762094412286268
388,0.0
425,0.0
450,0.0
451,0.0
452,9.133711145876486
453,0.0
490,0.0
515,0.0
516,0.0
542,0.0
592,5793671.095282218
632,28098890.889907867
686,0.9999999999999996
687,0.9999999999999996
688,1.9999999999999991
2,21, 1,21, 0,11,30.00,40.00,Monday
250,7.045936529853494
251,33951093.143535346
336,0.0
385,18.211205484801702
386,26.24112072096887
387,3.0394297964893853
388,0.0
425,0.0
450,0.0
451,0.0
452,9.955977576895549
453,0.0
490,0.0
515,0.0
516,0.0
542,0.0
592,5847681.427966583
632,27894980.8930346
686,1.0000000000000004
687,1.0000000000000004
688,2.000000000000001
2,21, 1,21, 0,11,40.00,50.00,Monday
250,7.326722795652601
251,33801466.03555003
336,0.0
385,18.21120548480171
386,26.24112072096888
387,3.318531582741646
388,0.0
425,0.0
450,0.0
451,0.0
452,10.701395778995865
453,0.0
490,0.0
515,0.0
516,0.0
542,0.0
592,5903058.082199926
632,27689926.64837919
686,1.0000000000000009
687,1.0000000000000009
688,2.0000000000000018
2,21, 1,21, 0,11,50.00,60.00,Monday
250,7.6070574314800155
251,33652027.60980934
336,0.0
385,18.21120548480171
386,26.24112072096888
387,3.595547644810753
388,0.0
425,0.0
450,0.0
451,0.0
452,11.336886443196692
453,0.0
490,0.0
515,0.0
516,0.0
542,0.0
592,5959860.237244541
632,27483622.380907454
686,1.0000000000000009
687,1.0000000000000009
688,2.0000000000000018
2,21, 1,21, 0,12, 0.00,10.00,Monday
250,7.873437132046732
251,33510000.686149262
336,0.0
385,18.211205484801695
386,26.24112072096886
387,3.8355106326499753
388,0.0
425,0.0
450,0.0
451,0.0
452,11.836120578941234
453,0.0
490,0.0
515,0.0
516,0.0
542,0.0
592,5991096.197635708
632,27334142.335411925
686,1.0
687,1.0
688,2.0
2,21, 1,21, 0,12,10.00,20.00,Monday
250,8.1357729868039
251,33373613.998217963
336,0.0
385,18.211205484801695
386,26.24112072096886
387,4.127882703871039
388,0.0
425,0.0
450,0.0
451,0.0
452,12.40011289307623
453,0.0
490,0.0
515,0.0
516,0.0
542,0.0
592,7572016.881221028
632,25614699.167708073
686,1.0
687,1.0
688,2.0
2,21, 1,21, 0,12,20.00,30.00,Monday
250,8.4002732369911
251,33234385.618090943
336,0.0
385,18.211205484801695
386,26.24112072096886
387,4.39699354571712
388,0.0
425,0.0
450,0.0
451,0.0
452,12.915781910227084
453,0.0
490,0.0
515,0.0
516,0.0
542,0.0
592,7609409.155487607
632,25438610.45567018
686,1.0
687,1.0
688,2.0
2,21, 1,21, 0,12,30.00,40.00,Monday
250,8.664393049922671
251,33095365.699018463
336,0.0
385,18.211205484801695
386,26.24112072096886
387,4.655793918567221
388,0.0
425,0.0
450,0.0
451,0.0
452,13.407078295116126
453,0.0
490,0.0
515,0.0
516,0.0
542,0.0
592,7646583.592010486
632,25262314.051612224
686,1.0
687,1.0
688,2.0
2,21, 1,21, 0,12,40.00,50.00,Monday
250,8.928410780603905
251,32956400.322150487
336,0.0
385,18.211205484801695
386,26.24112072096886
387,4.910208336689097
388,0.0
425,0.0
450,0.0
451,0.0
452,13.848768707686176
453,0.0
490,0.0
515,0.0
516,0.0
542,0.0
592,7683540.190789656
632,25086363.924258612
686,1.0
687,1.0
688,2.0
2,21, 1,21, 0,12,50.00,60.00,Monday
250,9.192392200558213
251,32817453.738189086
336,0.0
385,18.211205484801695
386,26.24112072096886
387,5.159144642595982
388,0.0
425,0.0
450,0.0
451,0.0
452,14.216643352499087
453,0.0
490,0.0
515,0.0
516,0.0
542,0.0
592,7720278.951825123
632,24910669.218802698
686,1.0
687,1.0
688,2.0
2,21, 1,21, 0,13, 0.00,10.00,Monday
250,9.37452890582242
251,32719411.996122982
336,0.0
385,18.211205484801695
386,26.24112072096886
387,5.3915166470577205
388,0.0
425,0.0
450,0.0
451,0.0
452,14.507930812073614
453,0.0
490,0.0
515,0.0
516,0.0
542,0.0
592,7745410.487127082
632,24807604.672555313
686,1.0
687,1.0
688,2.0
2,21, 1,21, 0,13,10.00,20.00,Monday
250,9.555425607797726
251,32625659.483894937
336,0.0
385,18.211205484801695
386,26.24112072096886
387,5.610277857593833
388,0.0
425,0.0
450,0.0
451,0.0
452,14.737146075465612
453,0.0
490,0.0
515,0.0
516,0.0
542,0.0
592,7770439.060057996
632,24693970.08645942
686,1.0
687,1.0
688,2.0
2,21, 1,21, 0,13,20.00,30.00,Monday
250,9.737966406501512
251,32531268.38495593
336,0.0
385,18.211205484801695
386,26.24112072096886
387,5.815150439738404
388,0.0
425,0.0
450,0.0
451,0.0
452,14.920285252454333
453,0.0
490,0.0
515,0.0
516,0.0
542,0.0
592,7795364.670617863
632,24575553.329932094
686,1.0
687,1.0
688,2.0
2,21, 1,21, 0,13,30.00,40.00,Monday
250,9.92012396602637
251,32437110.894311603
336,0.0
385,18.211205484801695
386,26.24112072096886
387,6.010154160687049
388,0.0
425,0.0
450,0.0
451,0.0
452,15.069183096110331
453,0.0
490,0.0
515,0.0
516,0.0
542,0.0
592,7820187.318806678
632,24456378.970339123
686,1.0
687,1.0
688,2.0
2,21, 1,21, 0,13,40.00,50.00,Monday
250,10.102164745984014
251,32343049.80616224
336,0.0
385,18.211205484801695
386,26.24112072096886
387,6.199037826156551
388,0.0
425,0.0
450,0.0
451,0.0
452,15.188456306240207
453,0.0
490,0.0
515,0.0
516,0.0
542,0.0
592,7844907.0046244515
632,24337547.980647653
686,1.0
687,1.0
688,2.0
2,21, 1,21, 0,13,50.00,60.00,Monday
250,10.284145510139464
251,32249054.16458032
336,0.0
385,18.211205484801695
386,26.24112072096886
387,6.383102163661073
388,0.0
425,0.0
450,0.0
451,0.0
452,15.2817662934739
453,0.0
490,0.0
515,0.0
516,0.0
542,0.0
592,7869523.72807117
632,24218916.217069134
686,1.0
687,1.0
688,2.0
2,21, 1,21, 0,14, 0.00,10.00,Monday
250,10.483768351691124
251,32145562.591024425
336,0.0
385,18.211205484801695
386,26.24112072096886
387,6.565181774330434
388,0.0
425,0.0
450,0.0
451,0.0
452,15.337730787816017
453,0.0
490,0.0
515,0.0
516,0.0
542,0.0
592,7896260.907308879
632,24098229.389016975
686,1.0
687,1.0
688,2.0
2,21, 1,21, 0,14,10.00,20.00,Monday
250,10.682241451778406
251,32042316.248188235
336,0.0
385,18.211205484801695
386,26.24112072096886
387,6.745407131349521
388,0.0
425,0.0
450,0.0
451,0.0
452,15.33804557040205
453,0.0
490,0.0
515,0.0
516,0.0
542,0.0
592,7922875.552815753
632,23967760.631414317
686,1.0
687,1.0
688,2.0
2,21, 1,21, 0,14,20.00,30.00,Monday
250,10.880282508305802
251,31939296.11856228
336,0.0
385,18.211205484801695
386,26.24112072096886
387,6.921624113711849
388,0.0
425,0.0
450,0.0
451,0.0
452,15.282266564044914
453,0.0
490,0.0
515,0.0
516,0.0
542,0.0
592,7949367.664591794
632,23838028.266501486
686,1.0
687,1.0
688,2.0
2,21, 1,21, 0,14,30.00,40.00,Monday
250,11.078087213260362
251,31836432.662186973
336,0.0
385,18.211205484801695
386,26.24112072096886
387,7.087886610528864
388,0.0
425,0.0
450,0.0
451,0.0
452,15.159888046020967
453,0.0
490,0.0
515,0.0
516,0.0
542,0.0
592,7975737.242637003
632,23708680.97225276
686,1.0
687,1.0
688,2.0
2,21, 1,21, 0,14,40.00,50.00,Monday
250,11.27568357867348
251,31733703.0673707
336,0.0
385,18.211205484801695
386,26.24112072096886
387,7.2405021684140465
388,0.0
425,0.0
450,0.0
451,0.0
452,14.951199356340581
453,0.0
490,0.0
515,0.0
516,0.0
542,0.0
592,8001984.286951375
632,23579605.34041099
686,1.0
687,1.0
688,2.0
2,21, 1,21, 0,14,50.00,60.00,Monday
250,11.47315287687364
251,31631064.02754097
336,0.0
385,18.211205484801695
386,26.24112072096886
387,7.379759874242652
388,0.0
425,0.0
450,0.0
451,0.0
452,14.659252682095392
453,0.0
490,0.0
515,0.0
516,0.0
542,0.0
592,8028108.797534915
632,23450786.85797827
686,1.0
687,1.0
688,2.0
2,21, 1,21, 0,15, 0.00,10.00,Monday
250,11.735978398347608
251,31493868.674460918
336,0.0
385,18.211205484801695
386,26.24112072096886
387,7.500666578707431
388,0.0
425,0.0
450,0.0
451,0.0