Program Version,EnergyPlus, Version 24.2.0-94a887817b, YMD=2025.02.04 15:37
1,5,Environment Title[],Latitude[deg],Longitude[deg],Time Zone[],Elevation[m]
2,8,Day of Simulation[],Month[],Day of Month[],DST Indicator[1=yes 0=no],Hour[],StartMinute[],EndMinute[],DayType
3,5,Cumulative Day of Simulation[],Month[],Day of Month[],DST Indicator[1=yes 0=no],DayType  ! When Daily Meters Requested
4,2,Cumulative Days of Simulation[],Month[]  ! When Monthly Meters Requested
5,1,Cumulative Days of Simulation[] ! When Run Period Meters Requested
6,1,Calendar Year of Simulation[] ! When Annual Meters Requested
11,9,Electricity:Facility [J] !Monthly [Value,Min,Day,Hour,Minute,Max,Day,Hour,Minute]
23,9,Electricity:Building [J] !Monthly [Value,Min,Day,Hour,Minute,Max,Day,Hour,Minute]
59,9,InteriorLights:Electricity [J] !Monthly [Value,Min,Day,Hour,Minute,Max,Day,Hour,Minute]
521,9,Electricity:HVAC [J] !Monthly [Value,Min,Day,Hour,Minute,Max,Day,Hour,Minute]
637,9,NaturalGas:Facility [J] !Monthly [Value,Min,Day,Hour,Minute,Max,Day,Hour,Minute]
649,9,NaturalGas:HVAC [J] !Monthly [Value,Min,Day,Hour,Minute,Max,Day,Hour,Minute]
13,11,Electricity:Facility [J] !RunPeriod [Value,Min,Month,Day,Hour,Minute,Max,Month,Day,Hour,Minute]
25,11,Electricity:Building [J] !RunPeriod [Value,Min,Month,Day,Hour,Minute,Max,Month,Day,Hour,Minute]
61,11,InteriorLights:Electricity [J] !RunPeriod [Value,Min,Month,Day,Hour,Minute,Max,Month,Day,Hour,Minute]
523,11,Electricity:HVAC [J] !RunPeriod [Value,Min,Month,Day,Hour,Minute,Max,Month,Day,Hour,Minute]
639,11,NaturalGas:Facility [J] !RunPeriod [Value,Min,Month,Day,Hour,Minute,Max,Month,Day,Hour,Minute]
651,11,NaturalGas:HVAC [J] !RunPeriod [Value,Min,Month,Day,Hour,Minute,Max,Month,Day,Hour,Minute]
End of Data Dictionary
1,RUN PERIOD 1,  41.98, -87.92,  -6.00, 201.00
4,31, 1
11,9827917689.673382,408891.4285714286, 5, 6,50,2983000.477783143,16,13,60
23,988867588.4423547,30000.0, 1, 1,10,613527.2380017184, 1, 9,10
59,970200000.0,30000.0, 1, 1,10,600000.0, 1, 8,10
521,8839050101.230986,378891.4285714286, 5, 6,50,2369473.239781425,16,13,60
637,178295400238.02432,27906849.017531313,21,16,10,41250000.0, 1, 1,20
649,178295400238.02432,27906849.017531313,21,16,10,41250000.0, 1, 1,20
4,59, 2
11,9360768806.665934,99999999999999.0, 5, 6,50,3024461.9180462654,22,15,30
23,864392685.6020478,99999999999999.0, 1, 1,10,-99999999999999.0, 1, 9,10
59,848160000.0,99999999999999.0, 1, 1,10,-99999999999999.0, 1, 8,10
521,8496376121.063895,99999999999999.0, 5, 6,50,2410934.680044547,22,15,30
637,157501082252.8111,26230250.5474025,23,12,10,-99999999999999.0, 1, 1,20
649,157501082252.8111,26230250.5474025,23,12,10,-99999999999999.0, 1, 1,20
4,90, 3
11,10873697332.610678,313527.2380017185,26,18,10,3052534.0142239975,19,17,10
23,914547749.6436546,99999999999999.0, 1, 1,10,636956.9995062707,19,17,10
59,897480000.0,99999999999999.0, 1, 1,10,-99999999999999.0, 1, 8,10
521,9959149582.967001,0.0,26,15,30,2433103.4784786035,26,15,10
637,159962451342.01767,0.0,26,15,30,-99999999999999.0, 1, 1,20
649,159962451342.01767,0.0,26,15,30,-99999999999999.0, 1, 1,20
4,120, 4
11,9196679876.247208,30000.0,11,19,10,-99999999999999.0,19,17,10
23,947375954.1622524,99999999999999.0, 1, 1,10,-99999999999999.0,19,17,10
59,929520000.0,99999999999999.0, 1, 1,10,-99999999999999.0, 1, 8,10
521,8249303922.084949,99999999999999.0,26,15,30,2434329.404274794,10,16,10
637,115396330221.3498,99999999999999.0,26,15,30,-99999999999999.0, 1, 1,20
649,115396330221.3498,99999999999999.0,26,15,30,-99999999999999.0, 1, 1,20
4,151, 5
11,7966351817.063605,99999999999999.0,11,19,10,3069361.1758195683,10,11,40
23,989147541.0794473,99999999999999.0, 1, 1,10,-99999999999999.0,19,17,10
59,970200000.0,99999999999999.0, 1, 1,10,-99999999999999.0, 1, 8,10
521,6977204275.984086,99999999999999.0,26,15,30,2455833.9378178497,10,11,40
637,81175857695.02257,99999999999999.0,26,15,30,-99999999999999.0, 1, 1,20
649,81175857695.02257,99999999999999.0,26,15,30,-99999999999999.0, 1, 1,20
4,181, 6
11,5613583620.81999,99999999999999.0,11,19,10,-99999999999999.0,10,11,40
23,873072029.3622048,99999999999999.0, 1, 1,10,-99999999999999.0,19,17,10
59,856800000.0,99999999999999.0, 1, 1,10,-99999999999999.0, 1, 8,10
521,4740511591.45774,99999999999999.0,26,15,30,-99999999999999.0,10,11,40
637,27823222911.236645,99999999999999.0,26,15,30,-99999999999999.0, 1, 1,20
649,27823222911.236645,99999999999999.0,26,15,30,-99999999999999.0, 1, 1,20
4,212, 7
11,5557848363.339154,99999999999999.0,11,19,10,-99999999999999.0,10,11,40
23,989125970.8595046,99999999999999.0, 1, 1,10,-99999999999999.0,19,17,10
59,970200000.0,99999999999999.0, 1, 1,10,-99999999999999.0, 1, 8,10
521,4568722392.47959,99999999999999.0,26,15,30,-99999999999999.0,10,11,40
637,6170827906.452983,99999999999999.0,26,15,30,-99999999999999.0, 1, 1,20
649,6170827906.452983,99999999999999.0,26,15,30,-99999999999999.0, 1, 1,20
4,243, 8
11,3937663908.975439,99999999999999.0,11,19,10,-99999999999999.0,10,11,40
23,951908512.5694085,99999999999999.0, 1, 1,10,-99999999999999.0,19,17,10
59,933840000.0,99999999999999.0, 1, 1,10,-99999999999999.0, 1, 8,10
521,2985755396.4059362,99999999999999.0,26,15,30,-99999999999999.0,10,11,40
637,11762246858.256048,99999999999999.0,26,15,30,-99999999999999.0, 1, 1,20
649,11762246858.256048,99999999999999.0,26,15,30,-99999999999999.0, 1, 1,20
4,273, 9
11,5179059842.900058,99999999999999.0,11,19,10,-99999999999999.0,10,11,40
23,910204319.88215,99999999999999.0, 1, 1,10,-99999999999999.0,19,17,10
59,893160000.0,99999999999999.0, 1, 1,10,-99999999999999.0, 1, 8,10
521,4268855523.0178266,99999999999999.0,26,15,30,-99999999999999.0,10,11,40
637,43713752460.1279,99999999999999.0,26,15,30,-99999999999999.0, 1, 1,20
649,43713752460.1279,99999999999999.0,26,15,30,-99999999999999.0, 1, 1,20
4,304,10
11,10014673967.458397,99999999999999.0,11,19,10,-99999999999999.0,10,11,40
23,988919833.4745288,99999999999999.0, 1, 1,10,-99999999999999.0,19,17,10
59,970200000.0,99999999999999.0, 1, 1,10,-99999999999999.0, 1, 8,10
521,9025754133.98387,99999999999999.0,26,15,30,-99999999999999.0,10,11,40
637,121872781414.35783,99999999999999.0,26,15,30,-99999999999999.0, 1, 1,20
649,121872781414.35783,99999999999999.0,26,15,30,-99999999999999.0, 1, 1,20
4,334,11
11,10149053081.00168,99999999999999.0,11,19,10,-99999999999999.0,10,11,40
23,910204319.88215,99999999999999.0, 1, 1,10,-99999999999999.0,19,17,10
59,893160000.0,99999999999999.0, 1, 1,10,-99999999999999.0, 1, 8,10
521,9238848761.119534,99999999999999.0,26,15,30,-99999999999999.0,10,11,40
637,143447759518.19122,99999999999999.0,26,15,30,-99999999999999.0, 1, 1,20
649,143447759518.19122,99999999999999.0,26,15,30,-99999999999999.0, 1, 1,20
4,365,12
11,10440646574.546076,99999999999999.0,11,19,10,-99999999999999.0,10,11,40
23,951695954.1622523,99999999999999.0, 1, 1,10,-99999999999999.0,19,17,10
59,933840000.0,99999999999999.0, 1, 1,10,-99999999999999.0, 1, 8,10
521,9488950620.383821,99999999999999.0,26,15,30,-99999999999999.0,10,11,40
637,179073771580.62784,99999999999999.0,26,15,30,-99999999999999.0, 1, 1,20
649,179073771580.62784,99999999999999.0,26,15,30,-99999999999999.0, 1, 1,20
5,365
13,98117944881.29616,30000.0, 4,11,19,10,3069361.1758195683, 5,10,11,40
25,11279462459.120054,30000.0, 1, 1, 1,10,636956.9995062707, 3,19,17,10
61,11066760000.0,30000.0, 1, 1, 1,10,600000.0, 1, 1, 8,10
523,86838482422.18355,0.0, 3,26,15,30,2455833.9378178497, 5,10,11,40
639,1226195484398.4702,0.0, 3,26,15,30,41250000.0, 1, 1, 1,20
651,1226195484398.4702,0.0, 3,26,15,30,41250000.0, 1, 1, 1,20
1,RUN PERIOD 2,  41.98, -87.92,  -6.00, 201.00
4,1, 7
11,118010536.32636711,99999999999999.0,11,19,10,-99999999999999.0,10,11,40
23,41491634.28010314,99999999999999.0, 1, 1,10,-99999999999999.0,19,17,10
59,40680000.0,99999999999999.0, 1, 1,10,-99999999999999.0, 1, 8,10
521,76518902.046264,99999999999999.0,26,15,30,-99999999999999.0,10,11,40
637,0.0,99999999999999.0,26,15,30,-99999999999999.0, 1, 1,20
649,0.0,99999999999999.0,26,15,30,-99999999999999.0, 1, 1,20
5,1
13,118010536.32636711,99999999999999.0, 4,11,19,10,-99999999999999.0, 5,10,11,40
25,41491634.28010314,99999999999999.0, 1, 1, 1,10,-99999999999999.0, 3,19,17,10
61,40680000.0,99999999999999.0, 1, 1, 1,10,-99999999999999.0, 1, 1, 8,10
523,76518902.046264,99999999999999.0, 3,26,15,30,-99999999999999.0, 5,10,11,40
639,0.0,99999999999999.0, 3,26,15,30,-99999999999999.0, 1, 1, 1,20
651,0.0,99999999999999.0, 3,26,15,30,-99999999999999.0, 1, 1, 1,20
End of Data
 Number of Records Written=          90
