Program Version,EnergyPlus, Version 24.2.0-94a887817b, YMD=2025.02.04 15:37
1,5,Environment Title[],Latitude[deg],Longitude[deg],Time Zone[],Elevation[m]
2,8,Day of Simulation[],Month[],Day of Month[],DST Indicator[1=yes 0=no],Hour[],StartMinute[],EndMinute[],DayType
3,5,Cumulative Day of Simulation[],Month[],Day of Month[],DST Indicator[1=yes 0=no],DayType  ! When Daily Report Variables Requested
4,2,Cumulative Days of Simulation[],Month[]  ! When Monthly Report Variables Requested
5,1,Cumulative Days of Simulation[] ! When Run Period Report Variables Requested
6,1,Calendar Year of Simulation[] ! When Annual Report Variables Requested
250,1,LIVING ZONE,Zone Air Temperature [C] !TimeStep,REPORTSCH
251,1,LIVING ZONE,Zone Air System Sensible Heating Energy [J] !TimeStep,REPORTSCH
336,1,LIVING ZONE,Zone Air System Sensible Cooling Energy [J] !TimeStep,REPORTSCH
385,1,LIVING ZONE,Zone Thermostat Heating Setpoint Temperature [C] !TimeStep,REPORTSCH
386,1,LIVING ZONE,Zone Thermostat Cooling Setpoint Temperature [C] !TimeStep,REPORTSCH
387,1,GARAGE ZONE,Zone Air Temperature [C] !TimeStep,REPORTSCH
388,1,GARAGE ZONE,Zone Air System Sensible Heating Energy [J] !TimeStep,REPORTSCH
425,1,GARAGE ZONE,Zone Air System Sensible Cooling Energy [J] !TimeStep,REPORTSCH
450,1,GARAGE ZONE,Zone Thermostat Heating Setpoint Temperature [C] !TimeStep,REPORTSCH
451,1,GARAGE ZONE,Zone Thermostat Cooling Setpoint Temperature [C] !TimeStep,REPORTSCH
452,1,ATTIC ZONE,Zone Air Temperature [C] !TimeStep,REPORTSCH
453,1,ATTIC ZONE,Zone Air System Sensible Heating Energy [J] !TimeStep,REPORTSCH
490,1,ATTIC ZONE,Zone Air System Sensible Cooling Energy [J] !TimeStep,REPORTSCH
515,1,ATTIC ZONE,Zone Thermostat Heating Setpoint Temperature [C] !TimeStep,REPORTSCH
516,1,ATTIC ZONE,Zone Thermostat Cooling Setpoint Temperature [C] !TimeStep,REPORTSCH
542,1,ACDXCOIL 1,Cooling Coil Total Cooling Energy [J] !TimeStep,REPORTSCH
592,1,HEAT PUMP DX HEATING COIL 1,Heating Coil Heating Energy [J] !TimeStep,REPORTSCH
632,1,SUPP HEATING COIL 1,Heating Coil Heating Energy [J] !TimeStep,REPORTSCH
686,1,TWOSPEED HEAT PUMP 1,Unitary System DX Coil Cycling Ratio [] !TimeStep,REPORTSCH
687,1,TWOSPEED HEAT PUMP 1,Unitary System DX Coil Speed Ratio [] !TimeStep,REPORTSCH
688,1,TWOSPEED HEAT PUMP 1,Unitary System DX Coil Speed Level [] !TimeStep,REPORTSCH
End of Data Dictionary
1,RUN PERIOD 1,  41.98, -87.92,  -6.00, 201.00
2,21, 1,21, 0, 1, 0.00,10.00,Monday
250,-0.547386269738018
251,37974967.688546844
336,0.0
385,19.336158264568745
386,26.125467325986833
387,-0.9414843716083773
388,0.0
425,0.0
450,0.0
451,0.0
452,-1.9683677105561905
453,0.0
490,0.0
515,0.0
516,0.0
542,0.0
592,4839743.985079642
632,32877527.4634987
686,1.0
687,1.0
688,2.0
2,21, 1,21, 0, 1,10.00,20.00,Monday
250,-0.5474344773347913
251,37976605.73827091
336,0.0
385,19.336158264568745
386,26.125467325986833
387,-0.9498605902358923
388,0.0
425,0.0
450,0.0
451,0.0
452,-1.95024965971467
453,0.0
490,0.0
515,0.0
516,0.0
542,0.0
592,4823801.676011793
632,32893886.68290847
686,1.0
687,1.0
688,2.0
2,21, 1,21, 0, 1,20.00,30.00,Monday
250,-0.5475977380525653
251,37978356.827726915
336,0.0
385,19.336158264568745
386,26.125467325986833
387,-0.9594670074257705
388,0.0
425,0.0
450,0.0
451,0.0
452,-1.9471633895181066
453,0.0
490,0.0
515,0.0
516,0.0
542,0.0
592,4807858.16290522
632,32911519.34702378
686,1.0
687,1.0
688,2.0
2,21, 1,21, 0, 1,30.00,40.00,Monday
250,-0.5477352129741111
251,37980076.32501863
336,0.0
385,19.336158264568745
386,26.125467325986833
387,-0.9705084017163074
388,0.0
425,0.0
450,0.0
451,0.0
452,-1.9600200570270214
453,0.0
490,0.0
515,0.0
516,0.0
542,0.0
592,4791913.445623511
632,32929197.43982961
686,1.0
687,1.0
688,2.0
2,21, 1,21, 0, 1,40.00,50.00,Monday
250,-0.5478786856488769
251,37981802.32582926
336,0.0
385,19.336158264568745
386,26.125467325986833
387,-0.9831422603678159
388,0.0
425,0.0
450,0.0
451,0.0
452,-1.9872024156061263
453,0.0
490,0.0
515,0.0
516,0.0
542,0.0
592,4775967.524030239
632,32946866.129930224
686,1.0
687,1.0
688,2.0
2,21, 1,21, 0, 1,50.00,60.00,Monday
250,-0.5480228118079561
251,37983529.261306964
336,0.0
385,19.336158264568745
386,26.125467325986833
387,-0.9975575093645994
388,0.0
425,0.0
450,0.0
451,0.0
452,-2.0271777482853826
453,0.0
490,0.0
515,0.0
516,0.0
542,0.0
592,4760020.397988959
632,32964539.83625462
686,1.0
687,1.0
688,2.0
2,21, 1,21, 0, 2, 0.00,10.00,Monday
250,-0.5481581299531875
251,37985251.51409748
336,0.0
385,19.336158264568745
386,26.125467325986833
387,-1.013074638778518
388,0.0
425,0.0
450,0.0
451,0.0
452,-2.073905778998698
453,0.0
490,0.0
515,0.0
516,0.0
542,0.0
592,4760020.397988956
632,32966266.82817525
686,1.0
687,1.0
688,2.0
2,21, 1,21, 0, 2,10.00,20.00,Monday
250,-0.5483137253844672
251,37985372.012984194
336,0.0
385,19.336158264568745
386,26.125467325986833
387,-1.0287540480256787
388,0.0
425,0.0
450,0.0
451,0.0
452,-2.1166085419945935
453,0.0
490,0.0
515,0.0
516,0.0
542,0.0
592,4760020.397988956
632,32966376.40907991
686,1.0
687,1.0
688,2.0
2,21, 1,21, 0, 2,20.00,30.00,Monday
250,-0.5484689731569325
251,37985441.28253306
336,0.0
385,19.336158264568745
386,26.125467325986833
387,-1.0440437162775238
388,0.0
425,0.0
450,0.0
451,0.0
452,-2.14805915608876
453,0.0
490,0.0
515,0.0
516,0.0
542,0.0
592,4760020.397988958
632,32966445.865850437
686,1.0
687,1.0
688,2.0
2,21, 1,21, 0, 2,30.00,40.00,Monday
250,-0.5486209801877394
251,37985526.654939316
336,0.0
385,19.336158264568745
386,26.125467325986833
387,-1.0586225610331201
388,0.0
425,0.0
450,0.0
451,0.0
452,-2.167437714432744
453,0.0
490,0.0
515,0.0
516,0.0
542,0.0
592,4760020.397988956
632,32966532.983162954
686,1.0
687,1.0
688,2.0
2,21, 1,21, 0, 2,40.00,50.00,Monday
250,-0.5487707805831165
251,37985607.694994815
336,0.0
385,19.336158264568745
386,26.125467325986833
387,-1.0723498705716625
388,0.0
425,0.0
450,0.0
451,0.0
452,-2.177579928978711
453,0.0
490,0.0
515,0.0
516,0.0
542,0.0
592,4760020.397988958
632,32966615.21133738
686,1.0
687,1.0
688,2.0
2,21, 1,21, 0, 2,50.00,60.00,Monday
250,-0.5489179218966022
251,37985686.851504914
336,0.0
385,19.336158264568745
386,26.125467325986833
387,-1.0851878945207145
388,0.0
425,0.0
450,0.0
451,0.0
452,-2.181633147083918
453,0.0
490,0.0
515,0.0
516,0.0
542,0.0
592,4760020.397988958
632,32966695.79957833
686,1.0
687,1.0
688,2.0
2,21, 1,21, 0, 3, 0.00,10.00,Monday
250,-0.4677056969166645
251,37941959.71790539
336,0.0
385,19.336158264568745
386,26.125467325986833
387,-1.086753138392421
388,0.0
425,0.0
450,0.0
451,0.0
452,-2.174172786306839
453,0.0
490,0.0
515,0.0
516,0.0
542,0.0
592,4762558.894114006
632,32964236.53147784
686,1.0
687,1.0
688,2.0
2,21, 1,21, 0, 3,10.00,20.00,Monday
250,-0.38454860694978044
251,37898712.64210971
336,0.0
385,19.336158264568745
386,26.125467325986833
387,-1.0757442839615925
388,0.0
425,0.0
450,0.0
451,0.0
452,-2.149221147541868
453,0.0
490,0.0
515,0.0
516,0.0
542,0.0
592,4764988.435730969
632,32919608.893008508
686,1.0
687,1.0
688,2.0
2,21, 1,21, 0, 3,20.00,30.00,Monday
250,-0.30226837612993435
251,37855992.437155
336,0.0
385,19.336158264568745
386,26.125467325986833
387,-1.0565781437860564
388,0.0
425,0.0
450,0.0
451,0.0
452,-2.10532519060546
453,0.0
490,0.0
515,0.0
516,0.0
542,0.0
592,4767308.250738335
632,32874098.579941604
686,1.0
687,1.0
688,2.0
2,21, 1,21, 0, 3,30.00,40.00,Monday
250,-0.21977849991848797
251,37813149.16692106
336,0.0
385,19.336158264568745
386,26.125467325986833
387,-1.0330540790414204
388,0.0
425,0.0
450,0.0
451,0.0
452,-2.045612001220592
453,0.0
490,0.0
515,0.0
516,0.0
542,0.0
592,4769517.689516207
632,32829160.61039854
686,1.0
687,1.0
688,2.0
2,21, 1,21, 0, 3,40.00,50.00,Monday
250,-0.13723420885981277
251,37770286.19752306
336,0.0
385,19.336158264568745
386,26.125467325986833
387,-1.0064864317358766
388,0.0
425,0.0
450,0.0
451,0.0
452,-1.9745639652784748
453,0.0
490,0.0
515,0.0
516,0.0
542,0.0
592,4771616.115684973
632,32784230.38468186
686,1.0
687,1.0
688,2.0
2,21, 1,21, 0, 3,50.00,60.00,Monday
250,-0.054659291784225884
251,37727413.83300043
336,0.0
385,19.336158264568745
386,26.125467325986833
387,-0.9766853932361209
388,0.0
425,0.0
450,0.0
451,0.0
452,-1.8958009539687064
453,0.0
490,0.0
515,0.0
516,0.0
542,0.0
592,4773602.736238396
632,32739389.773394607
686,1.0
687,1.0
688,2.0
2,21, 1,21, 0, 4, 0.00,10.00,Monday
250,-0.053409667831319875
251,37728347.09330161
336,0.0
385,19.336158264568745
386,26.125467325986833
387,-0.9540110541953282
388,0.0
425,0.0
450,0.0
451,0.0
452,-1.8196087652130888
453,0.0
490,0.0
515,0.0
516,0.0
542,0.0
592,4773428.982371633
632,32696699.686662763
686,1.0
687,1.0
688,2.0
2,21, 1,21, 0, 4,10.00,20.00,Monday
250,-0.05408433591960921
251,37728783.93156255
336,0.0
385,19.336158264568745
386,26.125467325986833
387,-0.9413610826272671
388,0.0
425,0.0
450,0.0
451,0.0
452,-1.7550229307745726
453,0.0
490,0.0
515,0.0
516,0.0
542,0.0
592,4773255.169447956
632,32696273.979903333
686,1.0
687,1.0
688,2.0
2,21, 1,21, 0, 4,20.00,30.00,Monday
250,-0.05384194913083936
251,37728678.237436585
336,0.0
385,19.336158264568745
386,26.125467325986833
387,-0.9353329010379609
388,0.0
425,0.0
450,0.0
451,0.0
452,-1.7056514498767092
453,0.0
490,0.0
515,0.0
516,0.0
542,0.0
592,4773081.29743726
632,32696836.052921526
686,1.0
687,1.0
688,2.0
2,21, 1,21, 0, 4,30.00,40.00,Monday
250,-0.0537757471309163
251,37728684.42897767
336,0.0
385,19.336158264568745
386,26.125467325986833
387,-0.9320943929605787
388,0.0
425,0.0
450,0.0
451,0.0
452,-1.669842653604845
453,0.0
490,0.0
515,0.0
516,0.0
542,0.0
592,4772907.3663094025
632,32696921.288340125
686,1.0
687,1.0
688,2.0
2,21, 1,21, 0, 4,40.00,50.00,Monday
250,-0.05373164096845595
251,37728699.54803611
336,0.0
385,19.336158264568745
386,26.125467325986833
387,-0.9298448089966005
388,0.0
425,0.0
450,0.0
451,0.0
452,-1.6439290437434506
453,0.0
490,0.0
515,0.0
516,0.0
542,0.0
592,4772733.376034234
632,32697098.49759904
686,1.0
687,1.0
688,2.0
2,21, 1,21, 0, 4,50.00,60.00,Monday
250,-0.05368465991321672
251,37728712.701717466
336,0.0
385,19.336158264568745
386,26.125467325986833
387,-0.9283805057224049
388,0.0
425,0.0
450,0.0
451,0.0
452,-1.624849623212172
453,0.0
490,0.0
515,0.0
516,0.0
542,0.0
592,4772559.326581575
632,32697287.249084152
686,1.0
687,1.0
688,2.0
2,21, 1,21, 0, 5, 0.00,10.00,Monday
250,-0.05364052610449425
251,37728727.469811834
336,0.0
385,19.336158264568745
386,26.125467325986833
387,-0.9277445887451748
388,0.0
425,0.0
450,0.0
451,0.0
452,-1.6099872790926775
453,0.0
490,0.0
515,0.0
516,0.0
542,0.0
592,4759720.858689582
632,32710138.95165731
686,1.0
687,1.0
688,2.0
2,21, 1,21, 0, 5,10.00,20.00,Monday
250,-0.05357946932288312
251,37729988.327515535
336,0.0
385,19.336158264568745
386,26.125467325986833
387,-0.9278000918972469
388,0.0
425,0.0
450,0.0
451,0.0
452,-1.5970315043934453
453,0.0
490,0.0
515,0.0
516,0.0
542,0.0
592,4746877.262331866
632,32724252.52103692
686,1.0
687,1.0
688,2.0
2,21, 1,21, 0, 5,20.00,30.00,Monday
250,-0.053517740917793155
251,37731289.101372905
336,0.0
385,19.336158264568745
386,26.125467325986833
387,-0.9283195844890089
388,0.0
425,0.0
450,0.0
451,0.0
452,-1.5845803298453611
453,0.0
490,0.0
515,0.0
516,0.0
542,0.0
592,4734028.534436011
632,32738402.3856937
686,1.0
687,1.0
688,2.0
2,21, 1,21, 0, 5,30.00,40.00,Monday
250,-0.05345649723327576
251,37732576.7768226
336,0.0
385,19.336158264568745
386,26.125467325986833
387,-0.9291003530359268
388,0.0
425,0.0
450,0.0
451,0.0
452,-1.5721991657183372
453,0.0
490,0.0
515,0.0
516,0.0
542,0.0
592,4721174.671927155
632,32752543.66373311
686,1.0
687,1.0
688,2.0
2,21, 1,21, 0, 5,40.00,50.00,Monday
250,-0.05339509021791775
251,37733867.33490157
336,0.0
385,19.336158264568745
386,26.125467325986833
387,-0.9300060689360755
388,0.0
425,0.0
450,0.0
451,0.0
452,-1.559955745233461
453,0.0
490,0.0
515,0.0
516,0.0
542,0.0
592,4708315.671727969
632,32766693.311145682
686,1.0
687,1.0
688,2.0
2,21, 1,21, 0, 5,50.00,60.00,Monday
250,-0.0533333948197958
251,37735158.61488545
336,0.0
385,19.336158264568745
386,26.125467325986833
387,-0.9309570979396375
388,0.0
425,0.0
450,0.0
451,0.0
452,-1.5480006346449744
453,0.0
490,0.0
515,0.0
516,0.0
542,0.0
592,4695451.530758676
632,32780848.888601102
686,1.0
687,1.0
688,2.0
2,21, 1,21, 0, 6, 0.00,10.00,Monday
250,-0.05326883048315678
251,37736448.81969321
336,0.0
385,19.336158264568745
386,26.125467325986833
387,-0.9320396783230205
388,0.0
425,0.0
450,0.0
451,0.0
452,-1.5370281482481793
453,0.0
490,0.0
515,0.0
516,0.0
542,0.0
592,4695264.08225586
632,32782328.088524677
686,1.0
687,1.0
688,2.0
2,21, 1,21, 0, 6,10.00,20.00,Monday
250,-0.05322171994694937
251,37736492.04739341
336,0.0
385,19.336158264568745
386,26.125467325986833
387,-0.9333376389744145
388,0.0
425,0.0
450,0.0
451,0.0
452,-1.5278505710570967
453,0.0
490,0.0
515,0.0
516,0.0
542,0.0
592,4695076.569900009
632,32782549.426575296
686,1.0
687,1.0
688,2.0
2,21, 1,21, 0, 6,20.00,30.00,Monday
250,-0.053175292486182045
251,37736495.83826534
336,0.0
385,19.336158264568745
386,26.125467325986833
387,-0.9348461387296626
388,0.0
425,0.0
450,0.0
451,0.0
452,-1.5207985033344975
453,0.0
490,0.0
515,0.0
516,0.0
542,0.0
592,4694888.993658494
632,32782740.42574657
686,1.0
687,1.0
688,2.0
2,21, 1,21, 0, 6,30.00,40.00,Monday
250,-0.05312792034055976
251,37736513.03596008
336,0.0
385,19.336158264568745
386,26.125467325986833
387,-0.9365237317475958
388,0.0
425,0.0
450,0.0
451,0.0
452,-1.5156654393071107
453,0.0
490,0.0
515,0.0
516,0.0
542,0.0
592,4694701.353498662
632,32782945.772516266
686,1.0
687,1.0
688,2.0
2,21, 1,21, 0, 6,40.00,50.00,Monday
250,-0.053079981542634484
251,37736527.493562356
336,0.0
385,19.336158264568745
386,26.125467325986833
387,-0.9383386943190031
388,0.0
425,0.0
450,0.0
451,0.0
452,-1.5120005966630625
453,0.0
490,0.0
515,0.0
516,0.0
542,0.0
592,4694513.649387832
632,32783148.23950358
686,1.0
687,1.0
688,2.0
2,21, 1,21, 0, 6,50.00,60.00,Monday
250,-0.05303138949872479
251,37736541.26063946
336,0.0
385,19.336158264568745
386,26.125467325986833
387,-0.9402739241920286
388,0.0
425,0.0
450,0.0
451,0.0
452,-1.5093831135101425
453,0.0
490,0.0
515,0.0
516,0.0
542,0.0
592,4694325.88129331
632,32783350.126596574
686,1.0
687,1.0
688,2.0
2,21, 1,21, 0, 7, 0.00,10.00,Monday
250,-0.054278461059599444
251,37737253.05266056
336,0.0
385,19.336158264568745
386,26.125467325986833
387,-0.9447550483371738
388,0.0
425,0.0
450,0.0
451,0.0
452,-1.5126789946699193
453,0.0
490,0.0
515,0.0
516,0.0
542,0.0
592,4723573.583255435
632,32754116.260949567
686,1.0
687,1.0
688,2.0
2,21, 1,21, 0, 7,10.00,20.00,Monday
250,-0.05424917126220613
251,37734380.36653406
336,0.0
385,19.336158264568745
386,26.125467325986833
387,-0.953958095266528
388,0.0
425,0.0
450,0.0
451,0.0
452,-1.5313571966110924
453,0.0
490,0.0
515,0.0
516,0.0
542,0.0
592,4752837.186047653
632,32722667.52872179
686,1.0
687,1.0
688,2.0
2,21, 1,21, 0, 7,20.00,30.00,Monday
250,-0.05416606071503088
251,37731385.381574966
336,0.0
385,19.336158264568745
386,26.125467325986833
387,-0.9681233757998063
388,0.0
425,0.0
450,0.0
451,0.0
452,-1.570792548535502
453,0.0
490,0.0
515,0.0
516,0.0
542,0.0
592,4782116.702651945
632,32690422.013943274
686,1.0
687,1.0
688,2.0
2,21, 1,21, 0, 7,30.00,40.00,Monday
250,-0.05409757759262499
251,37728428.7334887
336,0.0
385,19.336158264568745
386,26.125467325986833
387,-0.9862943434826554
388,0.0
425,0.0
450,0.0
451,0.0
452,-1.628613897004335
453,0.0
490,0.0
515,0.0
516,0.0
542,0.0
592,4811412.146064443
632,32658162.041215066
686,1.0
687,1.0
688,2.0
2,21, 1,21, 0, 7,40.00,50.00,Monday
250,-0.05402515695456907
251,37725462.742799334
336,0.0
385,19.336158264568745
386,26.125467325986833
387,-1.0073909168394617
388,0.0
425,0.0
450,0.0
451,0.0
452,-1.6985665779904764
453,0.0
490,0.0
515,0.0
516,0.0
542,0.0
592,4840723.52929546
632,32625886.784862526
686,1.0
687,1.0
688,2.0
2,21, 1,21, 0, 7,50.00,60.00,Monday
250,-0.05395109796024963
251,37722493.47722459
336,0.0
385,19.336158264568745
386,26.125467325986833
387,-1.0306651273134098
388,0.0
425,0.0
450,0.0
451,0.0
452,-1.7749520201262468
453,0.0
490,0.0
515,0.0
516,0.0
542,0.0
592,4870050.865369484
632,32593591.062403787
686,1.0
687,1.0
688,2.0
2,21, 1,21, 0, 8, 0.00,10.00,Monday
250,0.14660523015364135
251,37611575.90533253
336,0.0
385,19.336158264568745
386,26.125467325986833
387,-1.0267425338485061
388,0.0
425,0.0
450,0.0
451,0.0
452,-1.8339188798235893
453,0.0
490,0.0
515,0.0
516,0.0
542,0.0
592,4889730.300311493
632,32570940.90469673
686,1.0
687,1.0
688,2.0
2,21, 1,21, 0, 8,10.00,20.00,Monday
250,0.3473467140801186
251,37505736.17368451
336,0.0
385,19.336158264568745
386,26.125467325986833
387,-0.9850899209932031
388,0.0
425,0.0
450,0.0
451,0.0
452,-1.8251459847799605
453,0.0
490,0.0
515,0.0
516,0.0
542,0.0
592,4909380.719869504
632,32445556.923074104
686,1.0
687,1.0
688,2.0
2,21, 1,21, 0, 8,20.00,30.00,Monday
250,0.5453631900063064
251,37401526.47491258
336,0.0
385,19.336158264568745
386,26.125467325986833
387,-0.9140178458405199
388,0.0
425,0.0
450,0.0
451,0.0
452,-1.7178381313260525
453,0.0
490,0.0
515,0.0
516,0.0
542,0.0
592,4929009.6156952735
632,32320257.886115808
686,1.0
687,1.0
688,2.0
2,21, 1,21, 0, 8,30.00,40.00,Monday
250,0.7441619901318798
251,37296837.44581713
336,0.0
385,19.336158264568745
386,26.125467325986833
387,-0.8235963874140478
388,0.0
425,0.0
450,0.0
451,0.0
452,-1.5224618085044714
453,0.0
490,0.0
515,0.0
516,0.0
542,0.0
592,4952863.646772657
632,32192142.89772636
686,1.0
687,1.0
688,2.0
2,21, 1,21, 0, 8,40.00,50.00,Monday
250,0.9430611120716458
251,37191697.08807665
336,0.0
385,19.336158264568745
386,26.125467325986833
387,-0.721838462798902
388,0.0
425,0.0
450,0.0
451,0.0
452,-1.246651866952183
453,0.0
490,0.0
515,0.0
516,0.0
542,0.0
592,4977062.298687916
632,32062863.60120724
686,1.0
687,1.0
688,2.0
2,21, 1,21, 0, 8,50.00,60.00,Monday
250,1.14293044705853
251,37086952.99842932
336,0.0
385,19.336158264568745
386,26.125467325986833
387,-0.6258696717654048
388,0.0
425,0.0
450,0.0
451,0.0
452,-0.9334457984129813
453,0.0
490,0.0
515,0.0
516,0.0
542,0.0
592,5001395.306277512
632,31881499.833376057
686,1.0
687,1.0
688,2.0
2,21, 1,21, 0, 9, 0.00,10.00,Monday
250,1.4079055367839952
251,36948172.2587505
336,0.0
385,19.336158264568745
386,26.125467325986833
387,-0.48738933369098064
388,0.0
425,0.0
450,0.0
451,0.0
452,-0.4538539770761592
453,0.0
490,0.0
515,0.0
516,0.0
542,0.0
592,5029363.153609448
632,31731535.585140742
686,1.0
687,1.0
688,2.0
2,21, 1,21, 0, 9,10.00,20.00,Monday
250,1.6728095816214228
251,36808498.20560555
336,0.0
385,19.336158264568745
386,26.125467325986833
387,-0.3365078589957978
388,0.0
425,0.0
450,0.0
451,0.0
452,0.07038443038277453
453,0.0
490,0.0
515,0.0
516,0.0
542,0.0
592,5057356.862312016
632,31563841.496912293
686,1.0
687,1.0
688,2.0
2,21, 1,21, 0, 9,20.00,30.00,Monday
250,1.9378897011958098
251,36668722.68732652
336,0.0
385,19.336158264568745
386,26.125467325986833
387,-0.17660482239756647
388,0.0
425,0.0
450,0.0
451,0.0
452,0.6350630515124525
453,0.0
490,0.0
515,0.0
516,0.0
542,0.0
592,5085392.284952975
632,31396078.295080014
686,1.0
687,1.0
688,2.0
2,21, 1,21, 0, 9,30.00,40.00,Monday
250,2.2028829099410445
251,36528992.45186372
336,0.0
385,19.336158264568745
386,26.125467325986833
387,-0.006898608998493608
388,0.0
425,0.0
450,0.0
451,0.0
452,1.2296845285264602
453,0.0
490,0.0
515,0.0
516,0.0
542,0.0
592,5113485.892141593
632,31228232.303469755
686,1.0
687,1.0
688,2.0
2,21, 1,21, 0, 9,40.00,50.00,Monday
250,2.4682701475856583
251,36388081.080662936
336,0.0
385,19.33615826456876
386,26.125467325986854
387,0.13821755206091627
388,0.0
425,0.0
450,0.0
451,0.0
452,1.7315171746146798
453,0.0
490,0.0
515,0.0
516,0.0
542,0.0
592,5141654.529350725
632,31035271.815996364
686,1.0000000000000009
687,1.0000000000000009
688,2.0000000000000018
2,21, 1,21, 0, 9,50.00,60.00,Monday
250,2.7337668277943408
251,36247536.38723569
336,0.0
385,19.336158264568745
386,26.125467325986833
387,0.29034702090336134
388,0.0
425,0.0
450,0.0
451,0.0
452,2.2721292908229644
453,0.0
490,0.0
515,0.0
516,0.0
542,0.0
592,5169915.672059793
632,30891600.618853018
686,1.0
687,1.0
688,2.0
2,21, 1,21, 0,10, 0.00,10.00,Monday
250,3.194596432645568
251,36003041.33690707
336,0.0
385,19.336158264568745
386,26.125467325986833
387,0.48078866456490343
388,0.0
425,0.0
450,0.0
451,0.0
452,2.831566849147103
453,0.0
490,0.0
515,0.0
516,0.0
542,0.0
592,5241404.10703412
632,30585710.35228359
686,1.0
687,1.0
688,2.0
2,21, 1,21, 0,10,10.00,20.00,Monday
250,3.6568090916083413
251,35758404.368293785
336,0.0
385,19.336158264568745
386,26.125467325986833
387,0.77183046034295
388,0.0
425,0.0
450,0.0
451,0.0
452,3.5864634458557267
453,0.0
490,0.0
515,0.0
516,0.0
542,0.0
592,5315291.857316207
632,30266445.851990424
686,1.0
687,1.0
688,2.0
2,21, 1,21, 0,10,20.00,30.00,Monday
250,4.119519238323258
251,35512242.10098198
336,0.0
385,19.336158264568738
386,26.125467325986822
387,1.0522328344802796
388,0.0
425,0.0
450,0.0
451,0.0
452,4.275564679445011
453,0.0
490,0.0
515,0.0
516,0.0
542,0.0
592,5391793.298050374
632,29943914.354827896
686,0.9999999999999996
687,0.9999999999999996
688,1.9999999999999991
2,21, 1,21, 0,10,30.00,40.00,Monday
250,4.582490152698732
251,35265806.35778676
336,0.0
385,19.336158264568752
386,26.125467325986843
387,1.3340104666611636
388,0.0
425,0.0
450,0.0
451,0.0
452,4.977203519709418
453,0.0
490,0.0
515,0.0
516,0.0
542,0.0
592,5471132.199313744
632,29618230.795851175
686,1.0000000000000004
687,1.0000000000000004
688,2.000000000000001
2,21, 1,21, 0,10,40.00,50.00,Monday
250,5.045856374960126
251,35019017.361616135
336,0.0
385,19.33615826456876
386,26.125467325986854
387,1.6241574334475004
388,0.0
425,0.0
450,0.0
451,0.0
452,5.741229641484529
453,0.0
490,0.0
515,0.0
516,0.0
542,0.0
592,5553542.3757593315
632,29289149.33194165
686,1.0000000000000009
687,1.0000000000000009
688,2.0000000000000018
2,21, 1,21, 0,10,50.00,60.00,Monday
250,5.5092162285065935
251,34772084.9003837
336,0.0
385,19.33615826456876
386,26.125467325986854
387,1.9243894617674895
388,0.0
425,0.0
450,0.0
451,0.0
452,6.570333233070011
453,0.0
490,0.0
515,0.0
516,0.0
542,0.0
592,5639267.778995938
632,28956539.042482678
686,1.0000000000000009
687,1.0000000000000009
688,2.0000000000000018
2,21, 1,21, 0,11, 0.00,10.00,Monday
250,5.792781959637695
251,34621190.33235345
336,0.0
385,19.336158264568745
386,26.125467325986833
387,2.210905790847528
388,0.0
425,0.0
450,0.0
451,0.0
452,7.425567027777622
453,0.0
490,0.0
515,0.0
516,0.0
542,0.0
592,5689519.861596228
632,28723276.202402614
686,1.0
687,1.0
688,2.0
2,21, 1,21, 0,11,10.00,20.00,Monday
250,6.075249317171389
251,34470822.2662082
336,0.0
385,19.336158264568745
386,26.125467325986833
387,2.4806786651261943
388,0.0
425,0.0
450,0.0
451,0.0
452,8.27611304404815
453,0.0
490,0.0
515,0.0
516,0.0
542,0.0
592,5740969.350869596
632,28521269.03647401
686,1.0
687,1.0
688,2.0
2,21, 1,21, 0,11,20.00,30.00,Monday
250,6.357778491145109
251,34320372.840029635
336,0.0
385,19.336158264568738
386,26.125467325986822
387,2.7528387466204283
388,0.0
425,0.0
450,0.0
451,0.0
452,9.12274765195359
453,0.0
490,0.0
515,0.0
516,0.0
542,0.0
592,5793671.0952822175
632,28318145.194918357
686,0.9999999999999996
687,0.9999999999999996
688,1.9999999999999991
2,21, 1,21, 0,11,30.00,40.00,Monday
250,6.639885201273373
251,34170098.18780503
336,0.0
385,19.336158264568752
386,26.125467325986843
387,3.0301721398717474
388,0.0
425,0.0
450,0.0
451,0.0
452,9.944695253683221
453,0.0
490,0.0
515,0.0
516,0.0
542,0.0
592,5847681.4279665835
632,28113801.488624312
686,1.0000000000000004
687,1.0000000000000004
688,2.000000000000001
2,21, 1,21, 0,11,40.00,50.00,Monday
250,6.921806164675303
251,34019869.92936604
336,0.0
385,19.33615826456876
386,26.125467325986854
387,3.309277187107714
388,0.0
425,0.0
450,0.0
451,0.0
452,10.690237865774371
453,0.0
490,0.0
515,0.0
516,0.0
542,0.0
592,5903058.082199926
632,27908180.946362622
686,1.0000000000000009
687,1.0000000000000009
688,2.0000000000000018
2,21, 1,21, 0,11,50.00,60.00,Monday
250,7.2034761189729295
251,33869721.80297084
336,0.0
385,19.33615826456876
386,26.125467325986854
387,3.586300917142947
388,0.0
425,0.0
450,0.0
451,0.0
452,11.325953313681271
453,0.0
490,0.0
515,0.0
516,0.0
542,0.0
592,5959860.237244541
632,27701203.76311576
686,1.0000000000000009
687,1.0000000000000009
688,2.0000000000000018
2,21, 1,21, 0,12, 0.00,10.00,Monday
250,7.470087384571761
251,33727609.478088744
336,0.0
385,19.336158264568745
386,26.125467325986833
387,3.826290261574516
388,0.0
425,0.0
450,0.0
451,0.0
452,11.825111813852953
453,0.0
490,0.0
515,0.0
516,0.0
542,0.0
592,5991096.197635709
632,27550849.457721334
686,1.0
687,1.0
688,2.0
2,21, 1,21, 0,12,10.00,20.00,Monday
250,7.734280537847044
251,33590272.03442536
336,0.0
385,19.336158264568745
386,26.125467325986833
387,4.118674577656178
388,0.0
425,0.0
450,0.0
451,0.0
452,12.389100925923923
453,0.0
490,0.0
515,0.0
516,0.0
542,0.0
592,7572016.881221027
632,25830659.817393072
686,1.0
687,1.0
688,2.0
2,21, 1,21, 0,12,20.00,30.00,Monday
250,7.999714698382936
251,33450563.640029572
336,0.0
385,19.336158264568745
386,26.125467325986833
387,4.38779017159008
388,0.0
425,0.0
450,0.0
451,0.0
452,12.9044926690549
453,0.0
490,0.0
515,0.0
516,0.0
542,0.0
592,7609409.155487607
632,25653871.6484183
686,1.0
687,1.0
688,2.0
2,21, 1,21, 0,12,30.00,40.00,Monday
250,8.26497011285011
251,33310953.71336551
336,0.0
385,19.336158264568745
386,26.125467325986833
387,4.646599403631348
388,0.0
425,0.0
450,0.0
451,0.0
452,13.39600886656716
453,0.0
490,0.0
515,0.0
516,0.0
542,0.0
592,7646583.592010481
632,25477039.03743489
686,1.0
687,1.0
688,2.0
2,21, 1,21, 0,12,40.00,50.00,Monday
250,8.530168794555575
251,33171374.011152014
336,0.0
385,19.336158264568745
386,26.125467325986833
387,4.901022443220465
388,0.0
425,0.0
450,0.0
451,0.0
452,13.837839148213101
453,0.0
490,0.0
515,0.0
516,0.0
542,0.0
592,7683540.190789655
632,25300487.467640474
686,1.0
687,1.0
688,2.0
2,21, 1,21, 0,12,50.00,60.00,Monday
250,8.795348804845812
251,33031803.586747542
336,0.0
385,19.336158264568745
386,26.125467325986833
387,5.149966479520211
388,0.0
425,0.0
450,0.0
451,0.0
452,14.205655514286953
453,0.0
490,0.0
515,0.0
516,0.0
542,0.0
592,7720278.951825122
632,25124173.747173995
686,1.0
687,1.0
688,2.0
2,21, 1,21, 0,13, 0.00,10.00,Monday
250,8.978004600168168
251,32933379.789432693
336,0.0
385,19.336158264568745
386,26.125467325986833
387,5.382349760946683
388,0.0
425,0.0
450,0.0
451,0.0
452,14.496921048424673
453,0.0
490,0.0
515,0.0
516,0.0
542,0.0
592,7745410.487127085
632,25024158.61725782
686,1.0
687,1.0
688,2.0
2,21, 1,21, 0,13,10.00,20.00,Monday
250,9.159954022289046
251,32839172.115131095
336,0.0
385,19.336158264568745
386,26.125467325986833
387,5.601130199684915
388,0.0
425,0.0
450,0.0
451,0.0
452,14.726161318137677
453,0.0
490,0.0
515,0.0
516,0.0
542,0.0
592,7770439.060057994
632,24908051.09188349
686,1.0
687,1.0
688,2.0
2,21, 1,21, 0,13,20.00,30.00,Monday
250,9.34284859539902
251,32744617.08148928
336,0.0
385,19.336158264568745
386,26.125467325986833
387,5.8060242451572535
388,0.0
425,0.0
450,0.0
451,0.0
452,14.909320328689294
453,0.0
490,0.0
515,0.0
516,0.0
542,0.0
592,7795364.670617863
632,24789093.161838416
686,1.0
687,1.0
688,2.0
2,21, 1,21, 0,13,30.00,40.00,Monday
250,9.525495088088922
251,32650223.92627128
336,0.0
385,19.336158264568745
386,26.125467325986833
387,6.001051505378438
388,0.0
425,0.0
450,0.0
451,0.0
452,15.058191809327466
453,0.0
490,0.0
515,0.0
516,0.0
542,0.0
592,7820187.318806681
632,24669756.137252565
686,1.0
687,1.0
688,2.0
2,21, 1,21, 0,13,40.00,50.00,Monday
250,9.70805208028387
251,32555912.704882115
336,0.0
385,19.336158264568745
386,26.125467325986833
387,6.18996140621205
388,0.0
425,0.0
450,0.0
451,0.0
452,15.177491400499228
453,0.0
490,0.0
515,0.0
516,0.0
542,0.0
592,7844907.00462445
632,24550689.78146208
686,1.0
687,1.0
688,2.0
2,21, 1,21, 0,13,50.00,60.00,Monday
250,9.890634919360991
251,32461620.62183567
336,0.0
385,19.336158264568745
386,26.125467325986833
387,6.374054232719838
388,0.0
425,0.0
450,0.0
451,0.0
452,15.27086096616436
453,0.0
490,0.0
515,0.0
516,0.0
542,0.0
592,7869523.72807117
632,24431807.98488743
686,1.0
687,1.0
688,2.0
2,21, 1,21, 0,14, 0.00,10.00,Monday
250,10.090472025722192
251,32358042.364329785
336,0.0
385,19.336158264568745
386,26.125467325986833
387,6.556167827958603
388,0.0
425,0.0
450,0.0
451,0.0
452,15.326910639813754
453,0.0
490,0.0
515,0.0
516,0.0
542,0.0
592,7896260.907308882
632,24310825.07271117
686,1.0
687,1.0
688,2.0
2,21, 1,21, 0,14,10.00,20.00,Monday
250,10.289620024914663
251,32254447.295084953
336,0.0
385,19.336158264568745
386,26.125467325986833
387,6.736433924113163
388,0.0
425,0.0
450,0.0
451,0.0
452,15.327330781459686
453,0.0
490,0.0
515,0.0
516,0.0
542,0.0
592,7922875.552815753
632,24180256.394214347
686,1.0
687,1.0
688,2.0
2,21, 1,21, 0,14,20.00,30.00,Monday
250,10.488539552173775
251,32150981.316615116
336,0.0
385,19.336158264568745
386,26.125467325986833
387,6.912696232984051
388,0.0
425,0.0
450,0.0
451,0.0
452,15.271661412190863
453,0.0
490,0.0
515,0.0
516,0.0
542,0.0
592,7949367.664591794
632,24050188.213301435
686,1.0
687,1.0
688,2.0
2,21, 1,21, 0,14,30.00,40.00,Monday
250,10.687317492895929
251,32047618.562606007
336,0.0
385,19.336158264568745
386,26.125467325986833
387,7.079004672042114
388,0.0
425,0.0
450,0.0
451,0.0
452,15.149380202416536
453,0.0
490,0.0
515,0.0
516,0.0
542,0.0
592,7975737.242637001
632,23920392.88437739
686,1.0
687,1.0
688,2.0
2,21, 1,21, 0,14,40.00,50.00,Monday
250,10.885967946774423
251,31944346.287508797
336,0.0
385,19.336158264568745
386,26.125467325986833
387,7.231665871950667
388,0.0
425,0.0
450,0.0
451,0.0
452,14.940766630997812
453,0.0
490,0.0
515,0.0
516,0.0
542,0.0
592,8001984.286951372
632,23790818.331366576
686,1.0
687,1.0
688,2.0
2,21, 1,21, 0,14,50.00,60.00,Monday
250,11.08453405130622
251,31841141.87808689
336,0.0
385,19.336158264568745
386,26.125467325986833
387,7.37096956218358
388,0.0
425,0.0
450,0.0
451,0.0
452,14.64886286163437
453,0.0
490,0.0
515,0.0
516,0.0
542,0.0
592,8028108.797534912
632,23661457.641165487
686,1.0
687,1.0
688,2.0
2,21, 1,21, 0,15, 0.00,10.00,Monday
250,11.349357992295033