Program Version,EnergyPlus, Version 24.2.0-94a887817b, YMD=2025.01.30 20:34
1,5,Environment Title[],Latitude[deg],Longitude[deg],Time Zone[],Elevation[m]
2,8,Day of Simulation[],Month[],Day of Month[],DST Indicator[1=yes 0=no],Hour[],StartMinute[],EndMinute[],DayType
3,5,Cumulative Day of Simulation[],Month[],Day of Month[],DST Indicator[1=yes 0=no],DayType  ! When Daily Meters Requested
4,2,Cumulative Days of Simulation[],Month[]  ! When Monthly Meters Requested
5,1,Cumulative Days of Simulation[] ! When Run Period Meters Requested
6,1,Calendar Year of Simulation[] ! When Annual Meters Requested
11,9,Electricity:Facility [J] !Monthly [Value,Min,Day,Hour,Minute,Max,Day,Hour,Minute]
23,9,Electricity:Building [J] !Monthly [Value,Min,Day,Hour,Minute,Max,Day,Hour,Minute]
59,9,InteriorLights:Electricity [J] !Monthly [Value,Min,Day,Hour,Minute,Max,Day,Hour,Minute]
521,9,Electricity:HVAC [J] !Monthly [Value,Min,Day,Hour,Minute,Max,Day,Hour,Minute]
637,9,NaturalGas:Facility [J] !Monthly [Value,Min,Day,Hour,Minute,Max,Day,Hour,Minute]
649,9,NaturalGas:HVAC [J] !Monthly [Value,Min,Day,Hour,Minute,Max,Day,Hour,Minute]
13,11,Electricity:Facility [J] !RunPeriod [Value,Min,Month,Day,Hour,Minute,Max,Month,Day,Hour,Minute]
25,11,Electricity:Building [J] !RunPeriod [Value,Min,Month,Day,Hour,Minute,Max,Month,Day,Hour,Minute]
61,11,InteriorLights:Electricity [J] !RunPeriod [Value,Min,Month,Day,Hour,Minute,Max,Month,Day,Hour,Minute]
523,11,Electricity:HVAC [J] !RunPeriod [Value,Min,Month,Day,Hour,Minute,Max,Month,Day,Hour,Minute]
639,11,NaturalGas:Facility [J] !RunPeriod [Value,Min,Month,Day,Hour,Minute,Max,Month,Day,Hour,Minute]
651,11,NaturalGas:HVAC [J] !RunPeriod [Value,Min,Month,Day,Hour,Minute,Max,Month,Day,Hour,Minute]
End of Data Dictionary
1,RUN PERIOD 1,  41.98, -87.92,  -6.00, 201.00
4,31, 1
11,6274026575.896153,150000.0, 5,14,40,3340129.0441534687,14, 9,60
23,1738099353.035028,30000.0, 1, 2,60,1105412.216403398, 7,10,50
59,970200000.0,30000.0, 1, 1,10,600000.0, 1, 8,10
521,4535927222.861069,0.0,16,15,60,2275284.9798671966,25,19,40
637,13708623974.198074,0.0, 1, 3,30,20652120.806255545,27, 7,60
649,13708623974.198074,0.0, 1, 3,30,20652120.806255545,27, 7,60
4,59, 2
11,5037543796.005734,30000.0,23, 8,10,-99999999999999.0,14, 9,60
23,1486228357.6104505,99999999999999.0, 1, 2,60,-99999999999999.0, 7,10,50
59,848160000.0,99999999999999.0, 1, 1,10,-99999999999999.0, 1, 8,10
521,3551315438.395287,99999999999999.0,16,15,60,2297600.910792232, 3, 8,60
637,8035644712.049967,99999999999999.0, 1, 3,30,-99999999999999.0,27, 7,60
649,8035644712.049967,99999999999999.0, 1, 3,30,-99999999999999.0,27, 7,60
4,90, 3
11,3882406154.265577,99999999999999.0,23, 8,10,-99999999999999.0,14, 9,60
23,1557969641.8552773,99999999999999.0, 1, 2,60,-99999999999999.0, 7,10,50
59,897480000.0,99999999999999.0, 1, 1,10,-99999999999999.0, 1, 8,10
521,2324436512.410298,99999999999999.0,16,15,60,-99999999999999.0, 3, 8,60
637,2887961741.029911,99999999999999.0, 1, 3,30,-99999999999999.0,27, 7,60
649,2887961741.029911,99999999999999.0, 1, 3,30,-99999999999999.0,27, 7,60
4,120, 4
11,2906501575.7498107,99999999999999.0,23, 8,10,-99999999999999.0,14, 9,60
23,1609560113.8053992,99999999999999.0, 1, 2,60,-99999999999999.0, 7,10,50
59,929520000.0,99999999999999.0, 1, 1,10,-99999999999999.0, 1, 8,10
521,1296941461.9444108,99999999999999.0,16,15,60,-99999999999999.0, 3, 8,60
637,1274401527.6627326,99999999999999.0, 1, 3,30,-99999999999999.0,27, 7,60
649,1274401527.6627326,99999999999999.0, 1, 3,30,-99999999999999.0,27, 7,60
4,151, 5
11,2035094501.2001402,99999999999999.0,23, 8,10,-99999999999999.0,14, 9,60
23,1747173048.8923097,99999999999999.0, 1, 2,60,-99999999999999.0, 7,10,50
59,970200000.0,99999999999999.0, 1, 1,10,-99999999999999.0, 1, 8,10
521,287921452.30783004,99999999999999.0,16,15,60,-99999999999999.0, 3, 8,60
637,34873922.91140976,99999999999999.0, 1, 3,30,-99999999999999.0,27, 7,60
649,34873922.91140976,99999999999999.0, 1, 3,30,-99999999999999.0,27, 7,60
4,181, 6
11,2096555271.707563,99999999999999.0,23, 8,10,-99999999999999.0,14, 9,60
23,1584907371.4863286,99999999999999.0, 1, 2,60,-99999999999999.0, 7,10,50
59,856800000.0,99999999999999.0, 1, 1,10,-99999999999999.0, 1, 8,10
521,511647900.2212353,99999999999999.0,16,15,60,-99999999999999.0, 3, 8,60
637,0.0,99999999999999.0, 1, 3,30,-99999999999999.0,27, 7,60
649,0.0,99999999999999.0, 1, 3,30,-99999999999999.0,27, 7,60
4,212, 7
11,2798279690.9591765,99999999999999.0,23, 8,10,-99999999999999.0,14, 9,60
23,1731824611.4403632,99999999999999.0, 1, 2,60,-99999999999999.0, 7,10,50
59,970200000.0,99999999999999.0, 1, 1,10,-99999999999999.0, 1, 8,10
521,1066455079.5188165,99999999999999.0,16,15,60,-99999999999999.0, 3, 8,60
637,0.0,99999999999999.0, 1, 3,30,-99999999999999.0,27, 7,60
649,0.0,99999999999999.0, 1, 3,30,-99999999999999.0,27, 7,60
4,243, 8
11,2226759777.473913,99999999999999.0,23, 8,10,-99999999999999.0,14, 9,60
23,1712960399.5983477,99999999999999.0, 1, 2,60,-99999999999999.0, 7,10,50
59,933840000.0,99999999999999.0, 1, 1,10,-99999999999999.0, 1, 8,10
521,513799377.87556756,99999999999999.0,16,15,60,-99999999999999.0, 3, 8,60
637,0.0,99999999999999.0, 1, 3,30,-99999999999999.0,27, 7,60
649,0.0,99999999999999.0, 1, 3,30,-99999999999999.0,27, 7,60
4,273, 9
11,1876019298.5520933,99999999999999.0,23, 8,10,-99999999999999.0,14, 9,60
23,1627700415.2480729,99999999999999.0, 1, 2,60,-99999999999999.0, 7,10,50
59,893160000.0,99999999999999.0, 1, 1,10,-99999999999999.0, 1, 8,10
521,248318883.30402228,99999999999999.0,16,15,60,-99999999999999.0, 3, 8,60
637,6941850.851085717,99999999999999.0, 1, 3,30,-99999999999999.0,27, 7,60
649,6941850.851085717,99999999999999.0, 1, 3,30,-99999999999999.0,27, 7,60
4,304,10
11,2207634672.4936028,99999999999999.0,23, 8,10,-99999999999999.0,14, 9,60
23,1686395384.805798,99999999999999.0, 1, 2,60,-99999999999999.0, 7,10,50
59,970200000.0,99999999999999.0, 1, 1,10,-99999999999999.0, 1, 8,10
521,521239287.68780345,99999999999999.0,16,15,60,-99999999999999.0, 3, 8,60
637,481150158.97096485,99999999999999.0, 1, 3,30,-99999999999999.0,27, 7,60
649,481150158.97096485,99999999999999.0, 1, 3,30,-99999999999999.0,27, 7,60
4,334,11
11,3995139303.2325773,99999999999999.0,23, 8,10,-99999999999999.0,14, 9,60
23,1547698312.4333496,99999999999999.0, 1, 2,60,-99999999999999.0, 7,10,50
59,893160000.0,99999999999999.0, 1, 1,10,-99999999999999.0, 1, 8,10
521,2447440990.7992253,99999999999999.0,16,15,60,2302116.878048206,22, 5,50
637,3972215644.0642843,99999999999999.0, 1, 3,30,-99999999999999.0,27, 7,60
649,3972215644.0642843,99999999999999.0, 1, 3,30,-99999999999999.0,27, 7,60
4,365,12
11,6615890545.114159,99999999999999.0,23, 8,10,-99999999999999.0,14, 9,60
23,1659612503.9489372,99999999999999.0, 1, 2,60,-99999999999999.0, 7,10,50
59,933840000.0,99999999999999.0, 1, 1,10,-99999999999999.0, 1, 8,10
521,4956278041.16525,99999999999999.0,16,15,60,2314771.9838862363,31, 1,50
637,9842121174.30025,99999999999999.0, 1, 3,30,-99999999999999.0,27, 7,60
649,9842121174.30025,99999999999999.0, 1, 3,30,-99999999999999.0,27, 7,60
5,365
13,41951851162.65077,30000.0, 2,23, 8,10,3340129.0441534687, 1,14, 9,60
25,19690129514.15982,30000.0, 1, 1, 2,60,1105412.216403398, 1, 7,10,50
61,11066760000.0,30000.0, 1, 1, 1,10,600000.0, 1, 1, 8,10
523,22261721648.490486,0.0, 1,16,15,60,2314771.9838862363,12,31, 1,50
639,40243934706.03888,0.0, 1, 1, 3,30,20652120.806255545, 1,27, 7,60
651,40243934706.03888,0.0, 1, 1, 3,30,20652120.806255545, 1,27, 7,60
1,RUN PERIOD 2,  41.98, -87.92,  -6.00, 201.00
4,1, 7
11,89032323.51543212,99999999999999.0,23, 8,10,-99999999999999.0,14, 9,60
23,71555545.42139314,99999999999999.0, 1, 2,60,-99999999999999.0, 7,10,50
59,40680000.0,99999999999999.0, 1, 1,10,-99999999999999.0, 1, 8,10
521,17476778.094038963,99999999999999.0,16,15,60,-99999999999999.0,31, 1,50
637,0.0,99999999999999.0, 1, 3,30,-99999999999999.0,27, 7,60
649,0.0,99999999999999.0, 1, 3,30,-99999999999999.0,27, 7,60
5,1
13,89032323.51543212,99999999999999.0, 2,23, 8,10,-99999999999999.0, 1,14, 9,60
25,71555545.42139314,99999999999999.0, 1, 1, 2,60,-99999999999999.0, 1, 7,10,50
61,40680000.0,99999999999999.0, 1, 1, 1,10,-99999999999999.0, 1, 1, 8,10
523,17476778.094038963,99999999999999.0, 1,16,15,60,-99999999999999.0,12,31, 1,50
639,0.0,99999999999999.0, 1, 1, 3,30,-99999999999999.0, 1,27, 7,60
651,0.0,99999999999999.0, 1, 1, 3,30,-99999999999999.0, 1,27, 7,60
End of Data
 Number of Records Written=          90
