Program Version,EnergyPlus, Version 24.2.0-94a887817b, YMD=2025.01.30 19:33
1,5,Environment Title[],Latitude[deg],Longitude[deg],Time Zone[],Elevation[m]
2,8,Day of Simulation[],Month[],Day of Month[],DST Indicator[1=yes 0=no],Hour[],StartMinute[],EndMinute[],DayType
3,5,Cumulative Day of Simulation[],Month[],Day of Month[],DST Indicator[1=yes 0=no],DayType  ! When Daily Report Variables Requested
4,2,Cumulative Days of Simulation[],Month[]  ! When Monthly Report Variables Requested
5,1,Cumulative Days of Simulation[] ! When Run Period Report Variables Requested
6,1,Calendar Year of Simulation[] ! When Annual Report Variables Requested
250,1,LIVING ZONE,Zone Air Temperature [C] !TimeStep,REPORTSCH
251,1,LIVING ZONE,Zone Air System Sensible Heating Energy [J] !TimeStep,REPORTSCH
336,1,LIVING ZONE,Zone Air System Sensible Cooling Energy [J] !TimeStep,REPORTSCH
385,1,LIVING ZONE,Zone Thermostat Heating Setpoint Temperature [C] !TimeStep,REPORTSCH
386,1,LIVING ZONE,Zone Thermostat Cooling Setpoint Temperature [C] !TimeStep,REPORTSCH
387,1,GARAGE ZONE,Zone Air Temperature [C] !TimeStep,REPORTSCH
388,1,GARAGE ZONE,Zone Air System Sensible Heating Energy [J] !TimeStep,REPORTSCH
425,1,GARAGE ZONE,Zone Air System Sensible Cooling Energy [J] !TimeStep,REPORTSCH
450,1,GARAGE ZONE,Zone Thermostat Heating Setpoint Temperature [C] !TimeStep,REPORTSCH
451,1,GARAGE ZONE,Zone Thermostat Cooling Setpoint Temperature [C] !TimeStep,REPORTSCH
452,1,ATTIC ZONE,Zone Air Temperature [C] !TimeStep,REPORTSCH
453,1,ATTIC ZONE,Zone Air System Sensible Heating Energy [J] !TimeStep,REPORTSCH
490,1,ATTIC ZONE,Zone Air System Sensible Cooling Energy [J] !TimeStep,REPORTSCH
515,1,ATTIC ZONE,Zone Thermostat Heating Setpoint Temperature [C] !TimeStep,REPORTSCH
516,1,ATTIC ZONE,Zone Thermostat Cooling Setpoint Temperature [C] !TimeStep,REPORTSCH
542,1,ACDXCOIL 1,Cooling Coil Total Cooling Energy [J] !TimeStep,REPORTSCH
592,1,HEAT PUMP DX HEATING COIL 1,Heating Coil Heating Energy [J] !TimeStep,REPORTSCH
632,1,SUPP HEATING COIL 1,Heating Coil Heating Energy [J] !TimeStep,REPORTSCH
686,1,TWOSPEED HEAT PUMP 1,Unitary System DX Coil Cycling Ratio [] !TimeStep,REPORTSCH
687,1,TWOSPEED HEAT PUMP 1,Unitary System DX Coil Speed Ratio [] !TimeStep,REPORTSCH
688,1,TWOSPEED HEAT PUMP 1,Unitary System DX Coil Speed Level [] !TimeStep,REPORTSCH
End of Data Dictionary
1,RUN PERIOD 1,  41.98, -87.92,  -6.00, 201.00
2,21, 1,21, 0, 1, 0.00,10.00,Monday
250,-0.789002803810056
251,38097988.383577116
336,0.0
385,20.90072599327537
386,26.127336049110056
387,-0.9466874911171019
388,0.0
425,0.0
450,0.0
451,0.0
452,-1.973987471342626
453,0.0
490,0.0
515,0.0
516,0.0
542,0.0
592,4839743.985079641
632,33000000.0
686,1.0
687,1.0
688,2.0
2,21, 1,21, 0, 1,10.00,20.00,Monday
250,-0.7891767058989955
251,38082786.71838919
336,0.0
385,20.90072599327537
386,26.127336049110056
387,-0.955050363099837
388,0.0
425,0.0
450,0.0
451,0.0
452,-1.955846290136013
453,0.0
490,0.0
515,0.0
516,0.0
542,0.0
592,4823801.676011795
632,33000000.0
686,1.0
687,1.0
688,2.0
2,21, 1,21, 0, 1,20.00,30.00,Monday
250,-0.7894030897435568
251,38066871.46222734
336,0.0
385,20.90072599327537
386,26.127336049110056
387,-0.9646479910021428
388,0.0
425,0.0
450,0.0
451,0.0
452,-1.952766898399603
453,0.0
490,0.0
515,0.0
516,0.0
542,0.0
592,4807858.162905221
632,33000000.0
686,1.0
687,1.0
688,2.0
2,21, 1,21, 0, 1,30.00,40.00,Monday
250,-0.7896222617358021
251,38050922.86765642
336,0.0
385,20.90072599327537
386,26.127336049110056
387,-0.975685096776495
388,0.0
425,0.0
450,0.0
451,0.0
452,-1.9656388947679424
453,0.0
490,0.0
515,0.0
516,0.0
542,0.0
592,4791913.445623511
632,33000000.0
686,1.0
687,1.0
688,2.0
2,21, 1,21, 0, 1,40.00,50.00,Monday
250,-0.7898433243142536
251,38034977.969046585
336,0.0
385,20.90072599327537
386,26.127336049110056
387,-0.9883189936978458
388,0.0
425,0.0
450,0.0
451,0.0
452,-1.992841641231434
453,0.0
490,0.0
515,0.0
516,0.0
542,0.0
592,4775967.524030239
632,33000000.0
686,1.0
687,1.0
688,2.0
2,21, 1,21, 0, 1,50.00,60.00,Monday
250,-0.7900650879679687
251,38019031.22563714
336,0.0
385,20.90072599327537
386,26.127336049110056
387,-1.0027384901825918
388,0.0
425,0.0
450,0.0
451,0.0
452,-2.032845798239106
453,0.0
490,0.0
515,0.0
516,0.0
542,0.0
592,4760020.397988958
632,33000000.0
686,1.0
687,1.0
688,2.0
2,21, 1,21, 0, 2, 0.00,10.00,Monday
250,-0.7901567107472484
251,38018961.15903718
336,0.0
385,20.90072599327537
386,26.127336049110056
387,-1.0182614488435633
388,0.0
425,0.0
450,0.0
451,0.0
452,-2.0796066087599945
453,0.0
490,0.0
515,0.0
516,0.0
542,0.0
592,4760020.397988958
632,33000000.0
686,1.0
687,1.0
688,2.0
2,21, 1,21, 0, 2,10.00,20.00,Monday
250,-0.7902449448792541
251,38018959.3345129
336,0.0
385,20.90072599327537
386,26.127336049110056
387,-1.0339452923308778
388,0.0
425,0.0
450,0.0
451,0.0
452,-2.122335237469728
453,0.0
490,0.0
515,0.0
516,0.0
542,0.0
592,4760020.397988958
632,33000000.0
686,1.0
687,1.0
688,2.0
2,21, 1,21, 0, 2,20.00,30.00,Monday
250,-0.7903330583009845
251,38018959.26950833
336,0.0
385,20.90072599327537
386,26.127336049110056
387,-1.0492365101119567
388,0.0
425,0.0
450,0.0
451,0.0
452,-2.1538021336080715
453,0.0
490,0.0
515,0.0
516,0.0
542,0.0
592,4760020.397988958
632,33000000.0
686,1.0
687,1.0
688,2.0
2,21, 1,21, 0, 2,30.00,40.00,Monday
250,-0.7904194493674361
251,38018958.34214253
336,0.0
385,20.90072599327537
386,26.127336049110056
387,-1.0638137677693587
388,0.0
425,0.0
450,0.0
451,0.0
452,-2.173184451216359
453,0.0
490,0.0
515,0.0
516,0.0
542,0.0
592,4760020.397988958
632,33000000.0
686,1.0
687,1.0
688,2.0
2,21, 1,21, 0, 2,40.00,50.00,Monday
250,-0.7905045422955824
251,38018957.64318547
336,0.0
385,20.90072599327537
386,26.127336049110056
387,-1.0775365862439694
388,0.0
425,0.0
450,0.0
451,0.0
452,-2.1833252556214364
453,0.0
490,0.0
515,0.0
516,0.0
542,0.0
592,4760020.397988956
632,33000000.0
686,1.0
687,1.0
688,2.0
2,21, 1,21, 0, 2,50.00,60.00,Monday
250,-0.7905881243306189
251,38018956.829674564
336,0.0
385,20.90072599327537
386,26.127336049110056
387,-1.090367529355757
388,0.0
425,0.0
450,0.0
451,0.0
452,-2.187373113840348
453,0.0
490,0.0
515,0.0
516,0.0
542,0.0
592,4760020.397988959
632,33000000.0
686,1.0
687,1.0
688,2.0
2,21, 1,21, 0, 3, 0.00,10.00,Monday
250,-0.708439283227426
251,37977218.883789666
336,0.0
385,20.90072599327537
386,26.127336049110056
387,-1.091918200502737
388,0.0
425,0.0
450,0.0
451,0.0
452,-2.179896724191369
453,0.0
490,0.0
515,0.0
516,0.0
542,0.0
592,4762558.894114006
632,33000000.0
686,1.0
687,1.0
688,2.0
2,21, 1,21, 0, 3,10.00,20.00,Monday
250,-0.6248433698552459
251,37978867.44573793
336,0.0
385,20.90072599327537
386,26.127336049110056
387,-1.0808773051481424
388,0.0
425,0.0
450,0.0
451,0.0
452,-2.154919958822263
453,0.0
490,0.0
515,0.0
516,0.0
542,0.0
592,4764988.4357309695
632,33000000.0
686,1.0
687,1.0
688,2.0
2,21, 1,21, 0, 3,20.00,30.00,Monday
250,-0.5417511704184043
251,37981456.621342786
336,0.0
385,20.90072599327537
386,26.127336049110056
387,-1.061654079678916
388,0.0
425,0.0
450,0.0
451,0.0
452,-2.110993950003198
453,0.0
490,0.0
515,0.0
516,0.0
542,0.0
592,4767308.250738335
632,33000000.0
686,1.0
687,1.0
688,2.0
2,21, 1,21, 0, 3,30.00,40.00,Monday
250,-0.4588632968672669
251,37941906.55477474
336,0.0
385,20.90072599327537
386,26.127336049110056
387,-1.0380446393325482
388,0.0
425,0.0
450,0.0
451,0.0
452,-2.0512507357774807
453,0.0
490,0.0
515,0.0
516,0.0
542,0.0
592,4769517.689516207
632,32958132.33151291
686,1.0
687,1.0
688,2.0
2,21, 1,21, 0, 3,40.00,50.00,Monday
250,-0.37598171305685724
251,37898867.656286
336,0.0
385,20.90072599327537
386,26.127336049110056
387,-1.0113564798524062
388,0.0
425,0.0
450,0.0
451,0.0
452,-1.9801747197928552
453,0.0
490,0.0
515,0.0
516,0.0
542,0.0
592,4771616.115684973
632,32912993.495458357
686,1.0
687,1.0
688,2.0
2,21, 1,21, 0, 3,50.00,60.00,Monday
250,-0.2930818149430483
251,37855825.73342387
336,0.0
385,20.90072599327537
386,26.127336049110056
387,-0.9813583408512021
388,0.0
425,0.0
450,0.0
451,0.0
452,-1.9013843894958025
453,0.0
490,0.0
515,0.0
516,0.0
542,0.0
592,4773602.736238396
632,32867976.70317475
686,1.0
687,1.0
688,2.0
2,21, 1,21, 0, 4, 0.00,10.00,Monday
250,-0.2923736940000038
251,37857056.16881811
336,0.0
385,20.90072599327537
386,26.127336049110056
387,-0.95863068790929
388,0.0
425,0.0
450,0.0
451,0.0
452,-1.8251681405216513
453,0.0
490,0.0
515,0.0
516,0.0
542,0.0
592,4773428.982371633
632,32825117.12747329
686,1.0
687,1.0
688,2.0
2,21, 1,21, 0, 4,10.00,20.00,Monday
250,-0.292763017496009
251,37857324.29665357
336,0.0
385,20.90072599327537
386,26.127336049110056
387,-0.9460147202813907
388,0.0
425,0.0
450,0.0
451,0.0
452,-1.7605655371152742
453,0.0
490,0.0
515,0.0
516,0.0
542,0.0
592,4773255.169447958
632,32824968.0220585
686,1.0
687,1.0
688,2.0
2,21, 1,21, 0, 4,20.00,30.00,Monday
250,-0.29261698489823046
251,37857276.25576834
336,0.0
385,20.90072599327537
386,26.127336049110056
387,-0.9400200087338557
388,0.0
425,0.0
450,0.0
451,0.0
452,-1.711181225988556
453,0.0
490,0.0
515,0.0
516,0.0
542,0.0
592,4773081.297437258
632,32825382.178081956
686,1.0
687,1.0
688,2.0
2,21, 1,21, 0, 4,30.00,40.00,Monday
250,-0.29258271839633043
251,37857298.53369264
336,0.0
385,20.90072599327537
386,26.127336049110056
387,-0.9367779973035655
388,0.0
425,0.0
450,0.0
451,0.0
452,-1.6753563103852596
453,0.0
490,0.0
515,0.0
516,0.0
542,0.0
592,4772907.366309401
632,32825518.1936351
686,1.0
687,1.0
688,2.0
2,21, 1,21, 0, 4,40.00,50.00,Monday
250,-0.2925563255452889
251,37857323.08173394
336,0.0
385,20.90072599327537
386,26.127336049110056
387,-0.9344966287378907
388,0.0
425,0.0
450,0.0
451,0.0
452,-1.6494204817577396
453,0.0
490,0.0
515,0.0
516,0.0
542,0.0
592,4772733.376034233
632,32825712.491473883
686,1.0
687,1.0
688,2.0
2,21, 1,21, 0, 4,50.00,60.00,Monday
250,-0.29252916020689085
251,37857347.08011144
336,0.0
385,20.90072599327537
386,26.127336049110056
387,-0.9329924040312759
388,0.0
425,0.0
450,0.0
451,0.0
452,-1.630315435130946
453,0.0
490,0.0
515,0.0
516,0.0
542,0.0
592,4772559.326581574
632,32825910.95535596
686,1.0
687,1.0
688,2.0
2,21, 1,21, 0, 5, 0.00,10.00,Monday
250,-0.29250363388107375
251,37857372.00051983
336,0.0
385,20.90072599327537
386,26.127336049110056
387,-0.9323195844586277
388,0.0
425,0.0
450,0.0
451,0.0
452,-1.615425621229093
453,0.0
490,0.0
515,0.0
516,0.0
542,0.0
592,4759720.85868958
632,32838773.46094971
686,1.0
687,1.0
688,2.0
2,21, 1,21, 0, 5,10.00,20.00,Monday
250,-0.2924683533963292
251,37858663.64532486
336,0.0
385,20.90072599327537
386,26.127336049110056
387,-0.9323428100458967
388,0.0
425,0.0
450,0.0
451,0.0
452,-1.6024402363475543
453,0.0
490,0.0
515,0.0
516,0.0
542,0.0
592,4746877.262331866
632,32852913.9560591
686,1.0
687,1.0
688,2.0
2,21, 1,21, 0, 5,20.00,30.00,Monday
250,-0.29243293037228824
251,37859978.50383068
336,0.0
385,20.90072599327537
386,26.127336049110056
387,-0.9328330389750287
388,0.0
425,0.0
450,0.0
451,0.0
452,-1.5899577032703773
453,0.0
490,0.0
515,0.0
516,0.0
542,0.0
592,4734028.534436013
632,32867077.619902916
686,1.0
687,1.0
688,2.0
2,21, 1,21, 0, 5,30.00,40.00,Monday
250,-0.292397682273939
251,37861285.71864012
336,0.0
385,20.90072599327537
386,26.127336049110056
387,-0.9335866167969151
388,0.0
425,0.0
450,0.0
451,0.0
452,-1.577544838549955
453,0.0
490,0.0
515,0.0
516,0.0
542,0.0
592,4721174.671927155
632,32881238.603670076
686,1.0
687,1.0
688,2.0
2,21, 1,21, 0, 5,40.00,50.00,Monday
250,-0.2923623258521239
251,37862595.02710842
336,0.0
385,20.90072599327537
386,26.127336049110056
387,-0.9344673696803646
388,0.0
425,0.0
450,0.0
451,0.0
452,-1.5652706463353885
453,0.0
490,0.0
515,0.0
516,0.0
542,0.0
592,4708315.671727969
632,32895406.971351508
686,1.0
687,1.0
688,2.0
2,21, 1,21, 0, 5,50.00,60.00,Monday
250,-0.2923267607535446
251,37863904.871489756
336,0.0
385,20.90072599327537
386,26.127336049110056
387,-0.9353960318689224
388,0.0
425,0.0
450,0.0
451,0.0
452,-1.5532862225949087
453,0.0
490,0.0
515,0.0
516,0.0
542,0.0
592,4695451.530758676
632,32909581.069777153
686,1.0
687,1.0
688,2.0
2,21, 1,21, 0, 6, 0.00,10.00,Monday
250,-0.2922894379629459
251,37865214.2762463
336,0.0
385,20.90072599327537
386,26.127336049110056
387,-0.9364593085711346
388,0.0
425,0.0
450,0.0
451,0.0
452,-1.5422882853726527
453,0.0
490,0.0
515,0.0
516,0.0
542,0.0
592,4695264.08225586
632,32911078.870546825
686,1.0
687,1.0
688,2.0
2,21, 1,21, 0, 6,10.00,20.00,Monday
250,-0.2922623155681648
251,37865255.994752936
336,0.0
385,20.90072599327537
386,26.127336049110056
387,-0.9377406351263688
388,0.0
425,0.0
450,0.0
451,0.0
452,-1.5330906720091744
453,0.0
490,0.0
515,0.0
516,0.0
542,0.0
592,4695076.569900009
632,32911302.60665806
686,1.0
687,1.0
688,2.0
2,21, 1,21, 0, 6,20.00,30.00,Monday
250,-0.2922354295328451
251,37865275.05377262
336,0.0
385,20.90072599327537
386,26.127336049110056
387,-0.9392342410797089
388,0.0
425,0.0
450,0.0
451,0.0
452,-1.5260185929587688
453,0.0
490,0.0
515,0.0
516,0.0
542,0.0
592,4694888.993658494
632,32911509.114609227
686,1.0
687,1.0
688,2.0
2,21, 1,21, 0, 6,30.00,40.00,Monday
250,-0.2922082941850107
251,37865302.268561885
336,0.0
385,20.90072599327537
386,26.127336049110056
387,-0.9408979865677772
388,0.0
425,0.0
450,0.0
451,0.0
452,-1.5208645501113067
453,0.0
490,0.0
515,0.0
516,0.0
542,0.0
592,4694701.353498661
632,32911724.10387504
686,1.0
687,1.0
688,2.0
2,21, 1,21, 0, 6,40.00,50.00,Monday
250,-0.29218092836681603
251,37865327.74674301
336,0.0
385,20.90072599327537
386,26.127336049110056
387,-0.942699877293205
388,0.0
425,0.0
450,0.0
451,0.0
452,-1.51717940442016
453,0.0
490,0.0
515,0.0
516,0.0
542,0.0
592,4694513.649387832
632,32911937.410333402
686,1.0
687,1.0
688,2.0
2,21, 1,21, 0, 6,50.00,60.00,Monday
250,-0.29215327418360254
251,37865352.96306068
336,0.0
385,20.90072599327537
386,26.127336049110056
387,-0.9446227350852088
388,0.0
425,0.0
450,0.0
451,0.0
452,-1.514543404389067
453,0.0
490,0.0
515,0.0
516,0.0
542,0.0
592,4694325.88129331
632,32912150.550099216
686,1.0
687,1.0
688,2.0
2,21, 1,21, 0, 7, 0.00,10.00,Monday
250,-0.2928583787136016
251,37865772.941272445
336,0.0
385,20.90072599327537
386,26.127336049110056
387,-0.9490885293521947
388,0.0
425,0.0
450,0.0
451,0.0
452,-1.5178242319617326
453,0.0
490,0.0
515,0.0
516,0.0
542,0.0
592,4723573.583255435
632,32882928.099564582
686,1.0
687,1.0
688,2.0
2,21, 1,21, 0, 7,10.00,20.00,Monday
250,-0.2928345420259962
251,37862864.637027234
336,0.0
385,20.90072599327537
386,26.127336049110056
387,-0.9582705558492375
388,0.0
425,0.0
450,0.0
451,0.0
452,-1.5364957070959167
453,0.0
490,0.0
515,0.0
516,0.0
542,0.0
592,4752837.186047654
632,32851148.86191423
686,1.0
687,1.0
688,2.0
2,21, 1,21, 0, 7,20.00,30.00,Monday
250,-0.2927909737618522
251,37859891.588390164
336,0.0
385,20.90072599327537
386,26.127336049110056
387,-0.9724095832345091
388,0.0
425,0.0
450,0.0
451,0.0
452,-1.5759275506297972
453,0.0
490,0.0
515,0.0
516,0.0
542,0.0
592,4782116.702651945
632,32818906.923154335
686,1.0
687,1.0
688,2.0
2,21, 1,21, 0, 7,30.00,40.00,Monday
250,-0.2927518553711125
251,37856938.42197696
336,0.0
385,20.90072599327537
386,26.127336049110056
387,-0.9905507068906054
388,0.0
425,0.0
450,0.0
451,0.0
452,-1.6337355723350302
453,0.0
490,0.0
515,0.0
516,0.0
542,0.0
592,4811412.146064445
632,32786655.914982773
686,1.0
687,1.0
688,2.0
2,21, 1,21, 0, 7,40.00,50.00,Monday
250,-0.29271111945833994
251,37853979.04946445
336,0.0
385,20.90072599327537
386,26.127336049110056
387,-1.0116152332110382
388,0.0
425,0.0
450,0.0
451,0.0
452,-1.7036649797410954
453,0.0
490,0.0
515,0.0
516,0.0
542,0.0
592,4840723.52929546
632,32754386.028671324
686,1.0
687,1.0
688,2.0
2,21, 1,21, 0, 7,50.00,60.00,Monday
250,-0.2926697726527039
251,37851017.48191056
336,0.0
385,20.90072599327537
386,26.127336049110056
387,-1.0348562155315004
388,0.0
425,0.0
450,0.0
451,0.0
452,-1.7800230801724568
453,0.0
490,0.0
515,0.0
516,0.0
542,0.0
592,4870050.865369482
632,32722097.45229206
686,1.0
687,1.0
688,2.0
2,21, 1,21, 0, 8, 0.00,10.00,Monday
250,-0.09237024109350299
251,37740228.23515769
336,0.0
385,20.90072599327537
386,26.127336049110056
387,-1.0309712177769623
388,0.0
425,0.0
450,0.0
451,0.0
452,-1.8389737189127593
453,0.0
490,0.0
515,0.0
516,0.0
542,0.0
592,4889730.300311493
632,32699454.90704133
686,1.0
687,1.0
688,2.0
2,21, 1,21, 0, 8,10.00,20.00,Monday
250,0.10803501758330646
251,37634628.74652293
336,0.0
385,20.90072599327537
386,26.127336049110056
387,-0.9894399675154295
388,0.0
425,0.0
450,0.0
451,0.0
452,-1.8301300974884351
453,0.0
490,0.0
515,0.0
516,0.0
542,0.0
592,4909380.719869504
632,32574268.537759908
686,1.0
687,1.0
688,2.0
2,21, 1,21, 0, 8,20.00,30.00,Monday
250,0.30693887631237426
251,37529930.5369421
336,0.0
385,20.90072599327537
386,26.127336049110056
387,-0.9184373894962545
388,0.0
425,0.0
450,0.0
451,0.0
452,-1.7227167809988853
453,0.0
490,0.0
515,0.0
516,0.0
542,0.0
592,4929009.6156952735
632,32449139.84026629
686,1.0
687,1.0
688,2.0
2,21, 1,21, 0, 8,30.00,40.00,Monday
250,0.5062645941363638
251,37424970.13170873
336,0.0
385,20.90072599327537
386,26.127336049110056
387,-0.82815782942125
388,0.0
425,0.0
450,0.0
451,0.0
452,-1.5271185077467333
453,0.0
490,0.0
515,0.0
516,0.0
542,0.0
592,4952863.646772657
632,32320559.394562565
686,1.0
687,1.0
688,2.0
2,21, 1,21, 0, 8,40.00,50.00,Monday
250,0.705659639257281
251,37319566.28723293
336,0.0
385,20.90072599327537
386,26.127336049110056
387,-0.7265650033350879
388,0.0
425,0.0
450,0.0
451,0.0
452,-1.2515943759332184
453,0.0
490,0.0
515,0.0
516,0.0
542,0.0
592,4977062.298687916
632,32190999.924728
686,1.0
687,1.0
688,2.0
2,21, 1,21, 0, 8,50.00,60.00,Monday
250,0.9056182422585297
251,37214791.23127475
336,0.0
385,20.90072599327537
386,26.127336049110056
387,-0.630690012868003
388,0.0
425,0.0
450,0.0
451,0.0
452,-0.9386407361228442
453,0.0
490,0.0
515,0.0
516,0.0
542,0.0
592,5001395.306277512
632,32008933.560843613
686,1.0
687,1.0
688,2.0
2,21, 1,21, 0, 9, 0.00,10.00,Monday
250,1.1714409594336515
251,37075584.361229464
336,0.0
385,20.90072599327537
386,26.127336049110056
387,-0.4923124483609357
388,0.0
425,0.0
450,0.0
451,0.0
452,-0.45923420303927287
453,0.0
490,0.0
515,0.0
516,0.0
542,0.0
592,5029363.153609448
632,31858438.354917303
686,1.0
687,1.0
688,2.0
2,21, 1,21, 0, 9,10.00,20.00,Monday
250,1.4371136391500179
251,36935505.18001081
336,0.0
385,20.90072599327537
386,26.127336049110056
387,-0.34153642247508875
388,0.0
425,0.0
450,0.0
451,0.0
452,0.06499033762072587
453,0.0
490,0.0
515,0.0
516,0.0
542,0.0
592,5057356.862312016
632,31690330.381290685
686,1.0
687,1.0
688,2.0
2,21, 1,21, 0, 9,20.00,30.00,Monday
250,1.7028916110970844
251,36795364.75690484
336,0.0
385,20.90072599327537
386,26.127336049110056
387,-0.18163042254019804
388,0.0
425,0.0
450,0.0
451,0.0
452,0.629690110016326
453,0.0
490,0.0
515,0.0
516,0.0
542,0.0
592,5085392.284952975
632,31522183.477168217
686,1.0
687,1.0
688,2.0
2,21, 1,21, 0, 9,30.00,40.00,Monday
250,1.9686203209994766
251,36655248.84301819
336,0.0
385,20.90072599327537
386,26.127336049110056
387,-0.011873088108945279
388,0.0
425,0.0
450,0.0
451,0.0
452,1.2243277114475406
453,0.0
490,0.0
515,0.0
516,0.0
542,0.0
592,5113485.892141593
632,31353961.788795635
686,1.0
687,1.0
688,2.0
2,21, 1,21, 0, 9,40.00,50.00,Monday
250,2.2345665794738516
251,36514023.60761586
336,0.0
385,20.900725993275387
386,26.127336049110074
387,0.13330937354525568
388,0.0
425,0.0
450,0.0
451,0.0
452,1.7260441666274855
453,0.0
490,0.0
515,0.0
516,0.0
542,0.0
592,5141654.529350725
632,31161251.94796493
686,1.0000000000000009
687,1.0000000000000009
688,2.0000000000000018
2,21, 1,21, 0, 9,50.00,60.00,Monday
250,2.500638741102937
251,36373187.347018376
336,0.0
385,20.90072599327537
386,26.127336049110056
387,0.28547210212366314
388,0.0
425,0.0
450,0.0
451,0.0
452,2.2665611928039944
453,0.0
490,0.0
515,0.0
516,0.0
542,0.0
592,5169915.672059795
632,31016839.27089555
686,1.0
687,1.0
688,2.0
2,21, 1,21, 0,10, 0.00,10.00,Monday
250,2.9639833190314375
251,36127340.23425077
336,0.0
385,20.90072599327537
386,26.127336049110056
387,0.47595726467828836
388,0.0
425,0.0
450,0.0
451,0.0
452,2.825880055638194
453,0.0
490,0.0
515,0.0
516,0.0
542,0.0
592,5241404.10703412
632,30710324.052722026
686,1.0
687,1.0
688,2.0
2,21, 1,21, 0,10,10.00,20.00,Monday
250,3.4281971876859023
251,35881646.201962754
336,0.0
385,20.90072599327537
386,26.127336049110056
387,0.7670086800665229
388,0.0
425,0.0
450,0.0
451,0.0
452,3.5807845745759597
453,0.0
490,0.0
515,0.0
516,0.0
542,0.0
592,5315291.857316207
632,30389843.866526738
686,1.0
687,1.0
688,2.0
2,21, 1,21, 0,10,20.00,30.00,Monday
250,3.8926545243925306
251,35634552.80712037
336,0.0
385,20.900725993275362
386,26.12733604911005
387,1.047391196671765
388,0.0
425,0.0
450,0.0
451,0.0
452,4.269725164692501
453,0.0
490,0.0
515,0.0
516,0.0
542,0.0
592,5391793.298050372
632,30066335.16145707
686,0.9999999999999996
687,0.9999999999999996
688,1.9999999999999991
2,21, 1,21, 0,10,30.00,40.00,Monday
250,4.357257897606068
251,35387246.974855945
336,0.0
385,20.90072599327538
386,26.127336049110067
387,1.3291522896316588
388,0.0
425,0.0
450,0.0
451,0.0
452,4.971616367120088
453,0.0
490,0.0
515,0.0
516,0.0
542,0.0
592,5471132.199313744
632,29739761.21171706
686,1.0000000000000004
687,1.0000000000000004
688,2.000000000000001
2,21, 1,21, 0,10,40.00,50.00,Monday
250,4.822066412333062
251,35139689.87813776
336,0.0
385,20.900725993275387
386,26.127336049110074
387,1.6192854006746047
388,0.0
425,0.0
450,0.0
451,0.0
452,5.735714553037997
453,0.0
490,0.0
515,0.0
516,0.0
542,0.0
592,5553542.3757593315
632,29409877.604770094
686,1.0000000000000009
687,1.0000000000000009
688,2.0000000000000018
2,21, 1,21, 0,10,50.00,60.00,Monday
250,5.28688620898407
251,34891979.2409533
336,0.0
385,20.900725993275387
386,26.127336049110074
387,1.919504325029029
388,0.0
425,0.0
450,0.0
451,0.0
452,6.564772911633083
453,0.0
490,0.0
515,0.0
516,0.0
542,0.0
592,5639267.778995938
632,29076492.624746602
686,1.0000000000000009
687,1.0000000000000009
688,2.0000000000000018
2,21, 1,21, 0,11, 0.00,10.00,Monday
250,5.570370981701034
251,34741128.46864864
336,0.0
385,20.90072599327537
386,26.127336049110056
387,2.206008579983317
388,0.0
425,0.0
450,0.0
451,0.0
452,7.419995232485662
453,0.0
490,0.0
515,0.0
516,0.0
542,0.0
592,5689519.861596226
632,28843067.779535167
686,1.0
687,1.0
688,2.0
2,21, 1,21, 0,11,10.00,20.00,Monday
250,5.8531960513674095
251,34590574.70133747
336,0.0
385,20.90072599327537
386,26.127336049110056
387,2.475775902259359
388,0.0
425,0.0
450,0.0
451,0.0
452,8.270518178375555
453,0.0
490,0.0
515,0.0
516,0.0
542,0.0
592,5740969.350869596
632,28640960.998648327
686,1.0
687,1.0
688,2.0
2,21, 1,21, 0,11,20.00,30.00,Monday
250,6.136073787198799
251,34439943.23227568
336,0.0
385,20.900725993275362
386,26.12733604911005
387,2.7479355533105165
388,0.0
425,0.0
450,0.0
451,0.0
452,9.11712415235296
453,0.0
490,0.0
515,0.0
516,0.0
542,0.0
592,5793671.0952822175
632,28437653.828784868
686,0.9999999999999996
687,0.9999999999999996
688,1.9999999999999991
2,21, 1,21, 0,11,30.00,40.00,Monday
250,6.418713909780633
251,34289386.9946682
336,0.0
385,20.90072599327538
386,26.127336049110067
387,3.0252703469429254
388,0.0
425,0.0
450,0.0
451,0.0
452,9.938964076857818
453,0.0
490,0.0
515,0.0
516,0.0
542,0.0
592,5847681.427966584
632,28233061.974191517
686,1.0000000000000004
687,1.0000000000000004
688,2.000000000000001
2,21, 1,21, 0,11,40.00,50.00,Monday
250,6.70125150128295
251,34138832.09772991
336,0.0
385,20.900725993275387
386,26.127336049110074
387,3.304378862096832
388,0.0
425,0.0
450,0.0
451,0.0
452,10.684517683137901
453,0.0
490,0.0
515,0.0
516,0.0
542,0.0
592,5903058.082199926
632,28027129.918484785
686,1.0000000000000009
687,1.0000000000000009
688,2.0000000000000018
2,21, 1,21, 0,11,50.00,60.00,Monday
250,6.983650462000869
251,33988296.533578776
336,0.0
385,20.900725993275387
386,26.127336049110074
387,3.581408701721601
388,0.0
425,0.0
450,0.0
451,0.0
452,11.320327803916186
453,0.0
490,0.0
515,0.0
516,0.0
542,0.0
592,5959860.237244541
632,27819785.69163186
686,1.0000000000000009
687,1.0000000000000009
688,2.0000000000000018
2,21, 1,21, 0,12, 0.00,10.00,Monday
250,7.25031982142885
251,33846176.176339425
336,0.0
385,20.90072599327537
386,26.127336049110056
387,3.8214139424260702
388,0.0
425,0.0
450,0.0
451,0.0
452,11.819447787730205
453,0.0
490,0.0
515,0.0
516,0.0
542,0.0
592,5991096.197635708
632,27668868.00705468
686,1.0
687,1.0
688,2.0
2,21, 1,21, 0,12,10.00,20.00,Monday
250,7.515575256957801
251,33708295.230446145
336,0.0
385,20.90072599327537
386,26.127336049110056
387,4.1138080097105325
388,0.0
425,0.0
450,0.0
451,0.0
452,12.383440223331885
453,0.0
490,0.0
515,0.0
516,0.0
542,0.0
592,7572016.881221028
632,25948229.28251847
686,1.0
687,1.0
688,2.0
2,21, 1,21, 0,12,20.00,30.00,Monday
250,7.78153716607063
251,33568315.19438936
336,0.0
385,20.90072599327537
386,26.127336049110056
387,4.3829317522771545
388,0.0
425,0.0
450,0.0
451,0.0
452,12.898528097675133
453,0.0
490,0.0
515,0.0
516,0.0
542,0.0
592,7609409.155487606
632,25771038.409771323
686,1.0
687,1.0
688,2.0
2,21, 1,21, 0,12,30.00,40.00,Monday
250,8.047411483373375
251,33428383.733482316
336,0.0
385,20.90072599327537
386,26.127336049110056
387,4.6417520853355665
388,0.0
425,0.0
450,0.0
451,0.0
452,13.390281228456114
453,0.0
490,0.0
515,0.0
516,0.0
542,0.0
592,7646583.592010481
632,25593908.789708547
686,1.0
687,1.0
688,2.0
2,21, 1,21, 0,12,40.00,50.00,Monday
250,8.313255158997105
251,33288468.486804605
336,0.0
385,20.90072599327537
386,26.127336049110056
387,4.896184435802514
388,0.0
425,0.0
450,0.0
451,0.0
452,13.832292883143742
453,0.0
490,0.0
515,0.0
516,0.0
542,0.0
592,7683540.190789655
632,25417028.85517586
686,1.0
687,1.0
688,2.0
2,21, 1,21, 0,12,50.00,60.00,Monday
250,8.579089305902183
251,33148557.59427031
336,0.0
385,20.90072599327537
386,26.127336049110056
387,5.145136739245551
388,0.0
425,0.0
450,0.0
451,0.0
452,14.200080118096121
453,0.0
490,0.0
515,0.0
516,0.0
542,0.0
592,7720278.951825123
632,25240377.120794356
686,1.0
687,1.0
688,2.0
2,21, 1,21, 0,13, 0.00,10.00,Monday
250,8.762037290407061
251,33049912.566476915
336,0.0
385,20.90072599327537
386,26.127336049110056
387,5.3775304587681205
388,0.0
425,0.0
450,0.0
451,0.0
452,14.491327351300502
453,0.0
490,0.0
515,0.0
516,0.0
542,0.0
592,7745410.487127082
632,25142285.553564716
686,1.0
687,1.0
688,2.0
2,21, 1,21, 0,13,10.00,20.00,Monday
250,8.944577976419888
251,32955453.144851364
336,0.0
385,20.90072599327537
386,26.127336049110056
387,5.596325757708211
388,0.0
425,0.0
450,0.0
451,0.0
452,14.72058902579739
453,0.0
490,0.0
515,0.0
516,0.0
542,0.0
592,7770439.060057996
632,25024651.35073496
686,1.0
687,1.0
688,2.0
2,21, 1,21, 0,13,20.00,30.00,Monday
250,9.127656861552609
251,32860812.542645182
336,0.0
385,20.90072599327537
386,26.127336049110056
387,5.801235943595845
388,0.0
425,0.0
450,0.0
451,0.0
452,14.903774096624323
453,0.0
490,0.0
515,0.0
516,0.0
542,0.0
592,7795364.6706178645
632,24905388.205380674
686,1.0
687,1.0
688,2.0
2,21, 1,21, 0,13,30.00,40.00,Monday
250,9.310572032854356
251,32766289.924310204
336,0.0
385,20.90072599327537
386,26.127336049110056
387,5.996280774510958
388,0.0
425,0.0
450,0.0
451,0.0
452,15.052648367780657
453,0.0
490,0.0
515,0.0
516,0.0
542,0.0
592,7820187.318806681
632,24785967.28215807
686,1.0
687,1.0
688,2.0
2,21, 1,21, 0,13,40.00,50.00,Monday
250,9.493493095585485
251,32671797.661247995
336,0.0
385,20.90072599327537
386,26.127336049110056
387,6.18521055266851
388,0.0
425,0.0
450,0.0
451,0.0
452,15.171980076393776
453,0.0
490,0.0
515,0.0
516,0.0
542,0.0
592,7844907.0046244515
632,24666771.413975406
686,1.0
687,1.0
688,2.0
2,21, 1,21, 0,13,50.00,60.00,Monday
250,9.6764073831435
251,32577342.20725523
336,0.0
385,20.90072599327537
386,26.127336049110056
387,6.369325365242383
388,0.0
425,0.0
450,0.0
451,0.0
452,15.265402759034204
453,0.0
490,0.0
515,0.0
516,0.0
542,0.0
592,7869523.728071173
632,24547708.65631409
686,1.0
687,1.0
688,2.0
2,21, 1,21, 0,14, 0.00,10.00,Monday
250,9.876321872598773
251,32473737.970974308
336,0.0
385,20.90072599327537
386,26.127336049110056
387,6.55146406041632
388,0.0
425,0.0
450,0.0
451,0.0
452,15.321515294785739
453,0.0
490,0.0
515,0.0
516,0.0
542,0.0
592,7896260.907308882
632,24426562.574452486
686,1.0
687,1.0
688,2.0
2,21, 1,21, 0,14,10.00,20.00,Monday
250,10.075841078431024
251,32369951.02226299
336,0.0
385,20.90072599327537
386,26.127336049110056
387,6.731758332391157
388,0.0
425,0.0
450,0.0
451,0.0
452,15.32199805567617
453,0.0
490,0.0
515,0.0
516,0.0
542,0.0
592,7922875.552815756
632,24295960.721216764
686,1.0
687,1.0
688,2.0
2,21, 1,21, 0,14,20.00,30.00,Monday
250,10.275236127035646
251,32266244.072552435
336,0.0
385,20.90072599327537
386,26.127336049110056
387,6.908050523306465
388,0.0
425,0.0
450,0.0
451,0.0
452,15.266383819002776
453,0.0
490,0.0
515,0.0
516,0.0
542,0.0
592,7949367.664591794
632,24165707.955386568
686,1.0
687,1.0
688,2.0
2,21, 1,21, 0,14,30.00,40.00,Monday
250,10.47454879879409
251,32162606.724130068
336,0.0
385,20.90072599327537
386,26.127336049110056
387,7.074388560225704
388,0.0
425,0.0
450,0.0
451,0.0
452,15.144147551914328
453,0.0
490,0.0
515,0.0
516,0.0
542,0.0
592,7975737.242637001
632,24035670.056048747
686,1.0
687,1.0
688,2.0
2,21, 1,21, 0,14,40.00,50.00,Monday
250,10.673787789898467
251,32059031.11919571
336,0.0
385,20.90072599327537
386,26.127336049110056
387,7.227078721407566
388,0.0
425,0.0
450,0.0
451,0.0
452,14.935568322271777
453,0.0
490,0.0
515,0.0
516,0.0
542,0.0
592,8001984.286951372
632,23905821.286560427
686,1.0
687,1.0
688,2.0
2,21, 1,21, 0,14,50.00,60.00,Monday
250,10.87297506363417
251,31955505.921362642
336,0.0
385,20.90072599327537
386,26.127336049110056
387,7.366411134745768
388,0.0
425,0.0
450,0.0
451,0.0
452,14.643684991822415
453,0.0
490,0.0
515,0.0
516,0.0
542,0.0
592,8028108.797534912
632,23776157.485823672
686,1.0
687,1.0
688,2.0
2,21, 1,21, 0,15, 0.00,10.00,Monday
250,11.138614630934647
251,31816815.93295934
336,0.0
385,20.90072599327537
386,26.127336049110056
387,7.48738804804656
388,0.0
425,0.0
450,0.0
451,0.0
452,14.348360656121631
453,0.0
490,0.0
515,0.0
516,0.0
542,0.0
592,8062750.870287226