Program Version,EnergyPlus, Version 24.2.0-94a887817b, YMD=2025.02.04 15:39
1,5,Environment Title[],Latitude[deg],Longitude[deg],Time Zone[],Elevation[m]
2,8,Day of Simulation[],Month[],Day of Month[],DST Indicator[1=yes 0=no],Hour[],StartMinute[],EndMinute[],DayType
3,5,Cumulative Day of Simulation[],Month[],Day of Month[],DST Indicator[1=yes 0=no],DayType  ! When Daily Report Variables Requested
4,2,Cumulative Days of Simulation[],Month[]  ! When Monthly Report Variables Requested
5,1,Cumulative Days of Simulation[] ! When Run Period Report Variables Requested
6,1,Calendar Year of Simulation[] ! When Annual Report Variables Requested
250,1,LIVING ZONE,Zone Air Temperature [C] !TimeStep,REPORTSCH
251,1,LIVING ZONE,Zone Air System Sensible Heating Energy [J] !TimeStep,REPORTSCH
336,1,LIVING ZONE,Zone Air System Sensible Cooling Energy [J] !TimeStep,REPORTSCH
385,1,LIVING ZONE,Zone Thermostat Heating Setpoint Temperature [C] !TimeStep,REPORTSCH
386,1,LIVING ZONE,Zone Thermostat Cooling Setpoint Temperature [C] !TimeStep,REPORTSCH
387,1,GARAGE ZONE,Zone Air Temperature [C] !TimeStep,REPORTSCH
388,1,GARAGE ZONE,Zone Air System Sensible Heating Energy [J] !TimeStep,REPORTSCH
425,1,GARAGE ZONE,Zone Air System Sensible Cooling Energy [J] !TimeStep,REPORTSCH
450,1,GARAGE ZONE,Zone Thermostat Heating Setpoint Temperature [C] !TimeStep,REPORTSCH
451,1,GARAGE ZONE,Zone Thermostat Cooling Setpoint Temperature [C] !TimeStep,REPORTSCH
452,1,ATTIC ZONE,Zone Air Temperature [C] !TimeStep,REPORTSCH
453,1,ATTIC ZONE,Zone Air System Sensible Heating Energy [J] !TimeStep,REPORTSCH
490,1,ATTIC ZONE,Zone Air System Sensible Cooling Energy [J] !TimeStep,REPORTSCH
515,1,ATTIC ZONE,Zone Thermostat Heating Setpoint Temperature [C] !TimeStep,REPORTSCH
516,1,ATTIC ZONE,Zone Thermostat Cooling Setpoint Temperature [C] !TimeStep,REPORTSCH
542,1,ACDXCOIL 1,Cooling Coil Total Cooling Energy [J] !TimeStep,REPORTSCH
592,1,HEAT PUMP DX HEATING COIL 1,Heating Coil Heating Energy [J] !TimeStep,REPORTSCH
632,1,SUPP HEATING COIL 1,Heating Coil Heating Energy [J] !TimeStep,REPORTSCH
686,1,TWOSPEED HEAT PUMP 1,Unitary System DX Coil Cycling Ratio [] !TimeStep,REPORTSCH
687,1,TWOSPEED HEAT PUMP 1,Unitary System DX Coil Speed Ratio [] !TimeStep,REPORTSCH
688,1,TWOSPEED HEAT PUMP 1,Unitary System DX Coil Speed Level [] !TimeStep,REPORTSCH
End of Data Dictionary
1,RUN PERIOD 1,  41.98, -87.92,  -6.00, 201.00
2,21, 1,21, 0, 1, 0.00,10.00,Monday
250,-0.9076957099415593
251,38098257.85031695
336,0.0
385,20.47928431153626
386,28.07685114413011
387,-0.949232748873525
388,0.0
425,0.0
450,0.0
451,0.0
452,-1.9767532665410164
453,0.0
490,0.0
515,0.0
516,0.0
542,0.0
592,4839743.985079641
632,33000000.0
686,1.0
687,1.0
688,2.0
2,21, 1,21, 0, 1,10.00,20.00,Monday
250,-0.9078089043454363
251,38082754.03864806
336,0.0
385,20.47928431153626
386,28.07685114413011
387,-0.9575890508968616
388,0.0
425,0.0
450,0.0
451,0.0
452,-1.9585997280558225
453,0.0
490,0.0
515,0.0
516,0.0
542,0.0
592,4823801.676011793
632,33000000.0
686,1.0
687,1.0
688,2.0
2,21, 1,21, 0, 1,20.00,30.00,Monday
250,-0.9079463315290458
251,38066823.57359395
336,0.0
385,20.47928431153626
386,28.07685114413011
387,-0.9671823595786893
388,0.0
425,0.0
450,0.0
451,0.0
452,-1.9555225548499948
453,0.0
490,0.0
515,0.0
516,0.0
542,0.0
592,4807858.16290522
632,33000000.0
686,1.0
687,1.0
688,2.0
2,21, 1,21, 0, 1,30.00,40.00,Monday
250,-0.9080815382237404
251,38050877.66409887
336,0.0
385,20.47928431153626
386,28.07685114413011
387,-0.9782173808879854
388,0.0
425,0.0
450,0.0
451,0.0
452,-1.9684013058850076
453,0.0
490,0.0
515,0.0
516,0.0
542,0.0
592,4791913.445623511
632,33000000.0
686,1.0
687,1.0
688,2.0
2,21, 1,21, 0, 1,40.00,50.00,Monday
250,-0.9082177677925357
251,38034932.29636474
336,0.0
385,20.47928431153626
386,28.07685114413011
387,-0.9908513334056557
388,0.0
425,0.0
450,0.0
451,0.0
452,-1.9956139080764534
453,0.0
490,0.0
515,0.0
516,0.0
542,0.0
592,4775967.524030241
632,33000000.0
686,1.0
687,1.0
688,2.0
2,21, 1,21, 0, 1,50.00,60.00,Monday
250,-0.9083544993524999
251,38018985.443783805
336,0.0
385,20.47928431153626
386,28.07685114413011
387,-1.0052729501296953
388,0.0
425,0.0
450,0.0
451,0.0
452,-2.0356321801828803
453,0.0
490,0.0
515,0.0
516,0.0
542,0.0
592,4760020.397988958
632,33000000.0
686,1.0
687,1.0
688,2.0
2,21, 1,21, 0, 2, 0.00,10.00,Monday
250,-0.908410716994194
251,38018942.095844254
336,0.0
385,20.47928431153626
386,28.07685114413011
387,-1.0207987867092048
388,0.0
425,0.0
450,0.0
451,0.0
452,-2.0824089964417607
453,0.0
490,0.0
515,0.0
516,0.0
542,0.0
592,4760020.397988958
632,33000000.0
686,1.0
687,1.0
688,2.0
2,21, 1,21, 0, 2,10.00,20.00,Monday
250,-0.9084653533427499
251,38018941.24443801
336,0.0
385,20.47928431153626
386,28.07685114413011
387,-1.0364847768958352
388,0.0
425,0.0
450,0.0
451,0.0
452,-2.1251503032769676
453,0.0
490,0.0
515,0.0
516,0.0
542,0.0
592,4760020.397988958
632,33000000.0
686,1.0
687,1.0
688,2.0
2,21, 1,21, 0, 2,20.00,30.00,Monday
250,-0.9085197320206561
251,38018941.105696194
336,0.0
385,20.47928431153626
386,28.07685114413011
387,-1.051776647697587
388,0.0
425,0.0
450,0.0
451,0.0
452,-2.1566254030159167
453,0.0
490,0.0
515,0.0
516,0.0
542,0.0
592,4760020.397988958
632,33000000.0
686,1.0
687,1.0
688,2.0
2,21, 1,21, 0, 2,30.00,40.00,Monday
250,-0.9085730840226728
251,38018940.55290373
336,0.0
385,20.47928431153626
386,28.07685114413011
387,-1.0663529308005442
388,0.0
425,0.0
450,0.0
451,0.0
452,-2.1760096384232583
453,0.0
490,0.0
515,0.0
516,0.0
542,0.0
592,4760020.397988958
632,33000000.0
686,1.0
687,1.0
688,2.0
2,21, 1,21, 0, 2,40.00,50.00,Monday
250,-0.9086256449656755
251,38018940.12697349
336,0.0
385,20.47928431153626
386,28.07685114413011
387,-1.0800732695633544
388,0.0
425,0.0
450,0.0
451,0.0
452,-2.186149890747088
453,0.0
490,0.0
515,0.0
516,0.0
542,0.0
592,4760020.397988958
632,33000000.0
686,1.0
687,1.0
688,2.0
2,21, 1,21, 0, 2,50.00,60.00,Monday
250,-0.9086772752454026
251,38018939.62587602
336,0.0
385,20.47928431153626
386,28.07685114413011
387,-1.0929003984272576
388,0.0
425,0.0
450,0.0
451,0.0
452,-2.1901950968771544
453,0.0
490,0.0
515,0.0
516,0.0
542,0.0
592,4760020.397988958
632,33000000.0
686,1.0
687,1.0
688,2.0
2,21, 1,21, 0, 3, 0.00,10.00,Monday
250,-0.8260785781360196
251,37976976.66762015
336,0.0
385,20.47928431153626
386,28.07685114413011
387,-1.0944433025756417
388,0.0
425,0.0
450,0.0
451,0.0
452,-2.1827108079380433
453,0.0
490,0.0
515,0.0
516,0.0
542,0.0
592,4762558.894114006
632,33000000.0
686,1.0
687,1.0
688,2.0
2,21, 1,21, 0, 3,10.00,20.00,Monday
250,-0.7425791564429008
251,37978919.39304077
336,0.0
385,20.47928431153626
386,28.07685114413011
387,-1.083385354248682
388,0.0
425,0.0
450,0.0
451,0.0
452,-2.1577213770321744
453,0.0
490,0.0
515,0.0
516,0.0
542,0.0
592,4764988.4357309695
632,33000000.0
686,1.0
687,1.0
688,2.0
2,21, 1,21, 0, 3,20.00,30.00,Monday
250,-0.6593995434107222
251,37981409.54589855
336,0.0
385,20.47928431153626
386,28.07685114413011
387,-1.0641314881784798
388,0.0
425,0.0
450,0.0
451,0.0
452,-2.113780360129015
453,0.0
490,0.0
515,0.0
516,0.0
542,0.0
592,4767308.250738333
632,33000000.0
686,1.0
687,1.0
688,2.0
2,21, 1,21, 0, 3,30.00,40.00,Monday
250,-0.5761377236728187
251,37983572.84792341
336,0.0
385,20.47928431153626
386,28.07685114413011
387,-1.0404751805086176
388,0.0
425,0.0
450,0.0
451,0.0
452,-2.0540223706318854
453,0.0
490,0.0
515,0.0
516,0.0
542,0.0
592,4769517.689516207
632,33000000.0
686,1.0
687,1.0
688,2.0
2,21, 1,21, 0, 3,40.00,50.00,Monday
250,-0.49297833071659997
251,37961878.136098064
336,0.0
385,20.47928431153626
386,28.07685114413011
387,-1.0137169901922887
388,0.0
425,0.0
450,0.0
451,0.0
452,-1.982932735087642
453,0.0
490,0.0
515,0.0
516,0.0
542,0.0
592,4771616.115684973
632,32976153.587482248
686,1.0
687,1.0
688,2.0
2,21, 1,21, 0, 3,50.00,60.00,Monday
250,-0.40991448839426137
251,37918750.603519596
336,0.0
385,20.47928431153626
386,28.07685114413011
387,-0.9835591367353738
388,0.0
425,0.0
450,0.0
451,0.0
452,-1.904129217888771
453,0.0
490,0.0
515,0.0
516,0.0
542,0.0
592,4773602.736238394
632,32930989.87069981
686,1.0
687,1.0
688,2.0
2,21, 1,21, 0, 4, 0.00,10.00,Monday
250,-0.40947521356752914
251,37920128.54662947
336,0.0
385,20.47928431153626
386,28.07685114413011
387,-0.9608276079457966
388,0.0
425,0.0
450,0.0
451,0.0
452,-1.827901201546779
453,0.0
490,0.0
515,0.0
516,0.0
542,0.0
592,4773428.982371633
632,32888044.714042466
686,1.0
687,1.0
688,2.0
2,21, 1,21, 0, 4,10.00,20.00,Monday
250,-0.4097185757574333
251,37920310.586838804
336,0.0
385,20.47928431153626
386,28.07685114413011
387,-0.9482865900364269
388,0.0
425,0.0
450,0.0
451,0.0
452,-1.7632900452811957
453,0.0
490,0.0
515,0.0
516,0.0
542,0.0
592,4773255.169447956
632,32888032.92211424
686,1.0
687,1.0
688,2.0
2,21, 1,21, 0, 4,20.00,30.00,Monday
250,-0.409625308540958
251,37920293.98511229
336,0.0
385,20.47928431153626
386,28.07685114413011
387,-0.9423478609619295
388,0.0
425,0.0
450,0.0
451,0.0
452,-1.7138990860523025
453,0.0
490,0.0
515,0.0
516,0.0
542,0.0
592,4773081.297437258
632,32888371.489739716
686,1.0
687,1.0
688,2.0
2,21, 1,21, 0, 4,30.00,40.00,Monday
250,-0.4096051434142728
251,37920323.18697813
336,0.0
385,20.47928431153626
386,28.07685114413011
387,-0.9391163927832624
388,0.0
425,0.0
450,0.0
451,0.0
452,-1.678066334432466
453,0.0
490,0.0
515,0.0
516,0.0
542,0.0
592,4772907.3663094025
632,32888535.252378635
686,1.0
687,1.0
688,2.0
2,21, 1,21, 0, 4,40.00,50.00,Monday
250,-0.40958838257801033
251,37920352.912566185
336,0.0
385,20.47928431153626
386,28.07685114413011
387,-0.9368183448741029
388,0.0
425,0.0
450,0.0
451,0.0
452,-1.6521202207742545
453,0.0
490,0.0
515,0.0
516,0.0
542,0.0
592,4772733.376034232
632,32888737.134810995
686,1.0
687,1.0
688,2.0
2,21, 1,21, 0, 4,50.00,60.00,Monday
250,-0.40957150688368715
251,37920382.53134361
336,0.0
385,20.47928431153626
386,28.07685114413011
387,-0.935292127082732
388,0.0
425,0.0
450,0.0
451,0.0
452,-1.6330035590491865
453,0.0
490,0.0
515,0.0
516,0.0
542,0.0
592,4772559.326581573
632,32888940.864909235
686,1.0
687,1.0
688,2.0
2,21, 1,21, 0, 5, 0.00,10.00,Monday
250,-0.40955567660825315
251,37920412.73723155
336,0.0
385,20.47928431153626
386,28.07685114413011
387,-0.9346013001673541
388,0.0
425,0.0
450,0.0
451,0.0
452,-1.6181013512827565
453,0.0
490,0.0
515,0.0
516,0.0
542,0.0
592,4759720.858689582
632,32901808.97566812
686,1.0
687,1.0
688,2.0
2,21, 1,21, 0, 5,10.00,20.00,Monday
250,-0.40953379172691606
251,37921719.97151639
336,0.0
385,20.47928431153626
386,28.07685114413011
387,-0.9346104388128657
388,0.0
425,0.0
450,0.0
451,0.0
452,-1.605102542769504
453,0.0
490,0.0
515,0.0
516,0.0
542,0.0
592,4746877.262331866
632,32915963.067544453
686,1.0
687,1.0
688,2.0
2,21, 1,21, 0, 5,20.00,30.00,Monday
250,-0.4095119317209726
251,37923041.931874484
336,0.0
385,20.47928431153626
386,28.07685114413011
387,-0.9350881751839316
388,0.0
425,0.0
450,0.0
451,0.0
452,-1.592605710481194
453,0.0
490,0.0
515,0.0
516,0.0
542,0.0
592,4734028.534436013
632,32930133.742814895
686,1.0
687,1.0
688,2.0
2,21, 1,21, 0, 5,30.00,40.00,Monday
250,-0.4094901888795951
251,37924359.236821756
336,0.0
385,20.47928431153626
386,28.07685114413011
387,-0.9358296859645026
388,0.0
425,0.0
450,0.0
451,0.0
452,-1.580178337442974
453,0.0
490,0.0
515,0.0
516,0.0
542,0.0
592,4721174.671927155
632,32944304.847575802
686,1.0
687,1.0
688,2.0
2,21, 1,21, 0, 5,40.00,50.00,Monday
250,-0.4094684258133335
251,37925678.14323016
336,0.0
385,20.47928431153626
386,28.07685114413011
387,-0.9366988469879577
388,0.0
425,0.0
450,0.0
451,0.0
452,-1.5678900277379213
453,0.0
490,0.0
515,0.0
516,0.0
542,0.0
592,4708315.671727969
632,32958482.765488323
686,1.0
687,1.0
688,2.0
2,21, 1,21, 0, 5,50.00,60.00,Monday
250,-0.4094465883745978
251,37926997.58681072
336,0.0
385,20.47928431153626
386,28.07685114413011
387,-0.9376167479693096
388,0.0
425,0.0
450,0.0
451,0.0
452,-1.55589211490589
453,0.0
490,0.0
515,0.0
516,0.0
542,0.0
592,4695451.530758675
632,32972666.390511382
686,1.0
687,1.0
688,2.0
2,21, 1,21, 0, 6, 0.00,10.00,Monday
250,-0.4094237771322595
251,37928317.02692335
336,0.0
385,20.47928431153626
386,28.07685114413011
387,-0.938670437152339
388,0.0
425,0.0
450,0.0
451,0.0
452,-1.5448824186542673
453,0.0
490,0.0
515,0.0
516,0.0
542,0.0
592,4695264.082255858
632,32974173.804110717
686,1.0
687,1.0
688,2.0
2,21, 1,21, 0, 6,10.00,20.00,Monday
250,-0.409407237598212
251,37928358.33915724
336,0.0
385,20.47928431153626
386,28.07685114413011
387,-0.9399432562188955
388,0.0
425,0.0
450,0.0
451,0.0
452,-1.53567554194287
453,0.0
490,0.0
515,0.0
516,0.0
542,0.0
592,4695076.569900009
632,32974399.250253413
686,1.0
687,1.0
688,2.0
2,21, 1,21, 0, 6,20.00,30.00,Monday
250,-0.4093907263273743
251,37928385.4730599
336,0.0
385,20.47928431153626
386,28.07685114413011
387,-0.9414290737925052
388,0.0
425,0.0
450,0.0
451,0.0
452,-1.5285955771072361
453,0.0
490,0.0
515,0.0
516,0.0
542,0.0
592,4694888.993658494
632,32974613.945181116
686,1.0
687,1.0
688,2.0
2,21, 1,21, 0, 6,30.00,40.00,Monday
250,-0.40937398070809883
251,37928417.748947844
336,0.0
385,20.47928431153626
386,28.07685114413011
387,-0.9430854694336763
388,0.0
425,0.0
450,0.0
451,0.0
452,-1.5234322204694577
453,0.0
490,0.0
515,0.0
516,0.0
542,0.0
592,4694701.35349866
632,32974833.987478387
686,1.0
687,1.0
688,2.0
2,21, 1,21, 0, 6,40.00,50.00,Monday
250,-0.4093570363314447
251,37928448.84706485
336,0.0
385,20.47928431153626
386,28.07685114413011
387,-0.944880335790706
388,0.0
425,0.0
450,0.0
451,0.0
452,-1.5197372418090056
453,0.0
490,0.0
515,0.0
516,0.0
542,0.0
592,4694513.649387832
632,32975052.896783363
686,1.0
687,1.0
688,2.0
2,21, 1,21, 0, 6,50.00,60.00,Monday
250,-0.4093398654031101
251,37928479.789237596
336,0.0
385,20.47928431153626
386,28.07685114413011
387,-0.9467964580394512
388,0.0
425,0.0
450,0.0
451,0.0
452,-1.5170920567339499
453,0.0
490,0.0
515,0.0
516,0.0
542,0.0
592,4694325.881293308
632,32975271.729100376
686,1.0
687,1.0
688,2.0
2,21, 1,21, 0, 7, 0.00,10.00,Monday
250,-0.4097763703431412
251,37928755.14284034
336,0.0
385,20.47928431153626
386,28.07685114413011
387,-0.951254015397703
388,0.0
425,0.0
450,0.0
451,0.0
452,-1.5203651686385309
453,0.0
490,0.0
515,0.0
516,0.0
542,0.0
592,4723573.583255435
632,32946054.991948385
686,1.0
687,1.0
688,2.0
2,21, 1,21, 0, 7,10.00,20.00,Monday
250,-0.4097589066297028
251,37925831.164059065
336,0.0
385,20.47928431153626
386,28.07685114413011
387,-0.9604253866678365
388,0.0
425,0.0
450,0.0
451,0.0
452,-1.5390328601293597
453,0.0
490,0.0
515,0.0
516,0.0
542,0.0
592,4752837.186047653
632,32914111.95617362
686,1.0
687,1.0
688,2.0
2,21, 1,21, 0, 7,20.00,30.00,Monday
250,-0.40973263848311753
251,37922868.1204648
336,0.0
385,20.47928431153626
386,28.07685114413011
387,-0.9745521573301426
388,0.0
425,0.0
450,0.0
451,0.0
452,-1.5784624032671715
453,0.0
490,0.0
515,0.0
516,0.0
542,0.0
592,4782116.702651945
632,32881874.13733461
686,1.0
687,1.0
688,2.0
2,21, 1,21, 0, 7,30.00,40.00,Monday
250,-0.409708023768036
251,37919916.48528095
336,0.0
385,20.47928431153626
386,28.07685114413011
387,-0.9926806101266553
388,0.0
425,0.0
450,0.0
451,0.0
452,-1.6362636305544287
453,0.0
490,0.0
515,0.0
516,0.0
542,0.0
592,4811412.146064445
632,32849626.167168453
686,1.0
687,1.0
688,2.0
2,21, 1,21, 0, 7,40.00,50.00,Monday
250,-0.40968265933775283
251,37916960.355754025
336,0.0
385,20.47928431153626
386,28.07685114413011
387,-1.0137327963353497
388,0.0
425,0.0
450,0.0
451,0.0
452,-1.706181614060655
453,0.0
490,0.0
515,0.0
516,0.0
542,0.0
592,4840723.529295459
632,32817359.05711782
686,1.0
687,1.0
688,2.0
2,21, 1,21, 0, 7,50.00,60.00,Monday
250,-0.40965700597307864
251,37914002.36786669
336,0.0
385,20.47928431153626
386,28.07685114413011
387,-1.036962139048658
388,0.0
425,0.0
450,0.0
451,0.0
452,-1.7825264122130922
453,0.0
490,0.0
515,0.0
516,0.0
542,0.0
592,4870050.865369482
632,32785073.88768046
686,1.0
687,1.0
688,2.0
2,21, 1,21, 0, 8, 0.00,10.00,Monday
250,-0.20947397035880264
251,37803270.97240117
336,0.0
385,20.47928431153626
386,28.07685114413011
387,-1.0330889820350244
388,0.0
425,0.0
450,0.0
451,0.0
452,-1.841470583192457
453,0.0
490,0.0
515,0.0
516,0.0
542,0.0
592,4889730.300311493
632,32762434.889976725
686,1.0
687,1.0
688,2.0
2,21, 1,21, 0, 8,10.00,20.00,Monday
250,-0.009232196376327512
251,37697788.90068499
336,0.0
385,20.47928431153626
386,28.07685114413011
387,-0.9916035539519997
388,0.0
425,0.0
450,0.0
451,0.0
452,-1.8325929866244617
453,0.0
490,0.0
515,0.0
516,0.0
542,0.0
592,4909380.719869504
632,32637340.704712443
686,1.0
687,1.0
688,2.0
2,21, 1,21, 0, 8,20.00,30.00,Monday
250,0.19010420435813005
251,37592851.87911531
336,0.0
385,20.47928431153626
386,28.07685114413011
387,-0.9206226013016163
388,0.0
425,0.0
450,0.0
451,0.0
452,-1.725129210417449
453,0.0
490,0.0
515,0.0
516,0.0
542,0.0
592,4929009.6156952735
632,32512294.1233827
686,1.0
687,1.0
688,2.0
2,21, 1,21, 0, 8,30.00,40.00,Monday
250,0.38967751918816423
251,37487764.624456
336,0.0
385,20.47928431153626
386,28.07685114413011
387,-0.8304088985714012
388,0.0
425,0.0
450,0.0
451,0.0
452,-1.5294314686460504
453,0.0
490,0.0
515,0.0
516,0.0
542,0.0
592,4952863.6467726575
632,32383487.250479165
686,1.0
687,1.0
688,2.0
2,21, 1,21, 0, 8,40.00,50.00,Monday
250,0.589305044037639
251,37382237.16251559
336,0.0
385,20.47928431153626
386,28.07685114413011
387,-0.7288979213762298
388,0.0
425,0.0
450,0.0
451,0.0
452,-1.25404575903964
453,0.0
490,0.0
515,0.0
516,0.0
542,0.0
592,4977062.298687916
632,32253796.023666766
686,1.0
687,1.0
688,2.0
2,21, 1,21, 0, 8,50.00,60.00,Monday
250,0.7892918942502194
251,37277455.41401457
336,0.0
385,20.47928431153626
386,28.07685114413011
387,-0.6330690748002233
388,0.0
425,0.0
450,0.0
451,0.0
452,-0.9412017123089076
453,0.0
490,0.0
515,0.0
516,0.0
542,0.0
592,5001395.306277511
632,32071387.340312913
686,1.0
687,1.0
688,2.0
2,21, 1,21, 0, 9, 0.00,10.00,Monday
250,1.055376577816869
251,37138122.84887752
336,0.0
385,20.47928431153626
386,28.07685114413011
387,-0.49474079132167226
388,0.0
425,0.0
450,0.0
451,0.0
452,-0.46187479964970046
453,0.0
490,0.0
515,0.0
516,0.0
542,0.0
592,5029363.153609448
632,31920663.007123776
686,1.0
687,1.0
688,2.0
2,21, 1,21, 0, 9,10.00,20.00,Monday
250,1.3214243236174767
251,36997846.11833185
336,0.0
385,20.47928431153626
386,28.07685114413011
387,-0.3440163457423805
388,0.0
425,0.0
450,0.0
451,0.0
452,0.06234718489585922
453,0.0
490,0.0
515,0.0
516,0.0
542,0.0
592,5057356.862312016
632,31752389.694029197
686,1.0
687,1.0
688,2.0
2,21, 1,21, 0, 9,20.00,30.00,Monday
250,1.587544047260103
251,36857527.03217353
336,0.0
385,20.47928431153626
386,28.07685114413011
387,-0.18411208381818722
388,0.0
425,0.0
450,0.0
451,0.0
452,0.6270549137324157
453,0.0
490,0.0
515,0.0
516,0.0
542,0.0
592,5085392.284952975
632,31584055.444412254
686,1.0
687,1.0
688,2.0
2,21, 1,21, 0, 9,30.00,40.00,Monday
250,1.8536292113803976
251,36717224.27050394
336,0.0
385,20.47928431153626
386,28.07685114413011
387,-0.014336996771263705
388,0.0
425,0.0
450,0.0
451,0.0
452,1.2216860967646794
453,0.0
490,0.0
515,0.0
516,0.0
542,0.0
592,5113485.892141593
632,31415651.09714162
686,1.0
687,1.0
688,2.0
2,21, 1,21, 0, 9,40.00,50.00,Monday
250,2.119846415305068
251,36575845.789031655
336,0.0
385,20.479284311536276
386,28.07685114413013
387,0.13086832323730346
388,0.0
425,0.0
450,0.0
451,0.0
452,1.72332133873713
453,0.0
490,0.0
515,0.0
516,0.0
542,0.0
592,5141654.529350725
632,31223108.662434775
686,1.0000000000000009
687,1.0000000000000009
688,2.0000000000000018
2,21, 1,21, 0, 9,50.00,60.00,Monday
250,2.3861663498647374
251,36434885.69512169
336,0.0
385,20.47928431153626
386,28.07685114413011
387,0.28303645471765476
388,0.0
425,0.0
450,0.0
451,0.0
452,2.2637593776215468
453,0.0
490,0.0
515,0.0
516,0.0
542,0.0
592,5169915.672059795
632,31078314.64365285
686,1.0
687,1.0
688,2.0
2,21, 1,21, 0,10, 0.00,10.00,Monday
250,2.850768950231557
251,36188361.55924983
336,0.0
385,20.47928431153626
386,28.07685114413011
387,0.47353188852901307
388,0.0
425,0.0
450,0.0
451,0.0
452,2.8229840756188826
453,0.0
490,0.0
515,0.0
516,0.0
542,0.0
592,5241404.10703412
632,30771534.207408935
686,1.0
687,1.0
688,2.0
2,21, 1,21, 0,10,10.00,20.00,Monday
250,3.3159361939933625
251,35942164.20118883
336,0.0
385,20.47928431153626
386,28.07685114413011
387,0.7645726471622335
388,0.0
425,0.0
450,0.0
451,0.0
452,3.57785172017901
453,0.0
490,0.0
515,0.0
516,0.0
542,0.0
592,5315291.857316207
632,30450469.720886655
686,1.0
687,1.0
688,2.0
2,21, 1,21, 0,10,20.00,30.00,Monday
250,3.7812421508343266
251,35694618.61485796
336,0.0
385,20.479284311536254
386,28.076851144130096
387,1.0449329598379784
388,0.0
425,0.0
450,0.0
451,0.0
452,4.266670773831804
453,0.0
490,0.0
515,0.0
516,0.0
542,0.0
592,5391793.298050372
632,30126489.996932678
686,0.9999999999999996
687,0.9999999999999996
688,1.9999999999999991
2,21, 1,21, 0,10,30.00,40.00,Monday
250,4.246635960362461
251,35446891.57864451
336,0.0
385,20.47928431153627
386,28.076851144130117
387,1.3266753218221568
388,0.0
425,0.0
450,0.0
451,0.0
452,4.968668640063578
453,0.0
490,0.0
515,0.0
516,0.0
542,0.0
592,5471132.199313744
632,29799484.526361145
686,1.0000000000000004
687,1.0000000000000004
688,2.000000000000001
2,21, 1,21, 0,10,40.00,50.00,Monday
250,4.712156301495463
251,35198955.394906476
336,0.0
385,20.479284311536276
386,28.07685114413013
387,1.616792233615198
388,0.0
425,0.0
450,0.0
451,0.0
452,5.732785556414634
453,0.0
490,0.0
515,0.0
516,0.0
542,0.0
592,5553542.375759331
632,29469207.819098227
686,1.0000000000000009
687,1.0000000000000009
688,2.0000000000000018
2,21, 1,21, 0,10,50.00,60.00,Monday
250,5.177683242511416
251,34950867.92231466
336,0.0
385,20.479284311536276
386,28.07685114413013
387,1.9169964429486632
388,0.0
425,0.0
450,0.0
451,0.0
452,6.561801698001909
453,0.0
490,0.0
515,0.0
516,0.0
542,0.0
592,5639267.778995938
632,29135445.29954155
686,1.0000000000000009
687,1.0000000000000009
688,2.0000000000000018
2,21, 1,21, 0,11, 0.00,10.00,Monday
250,5.461115694755071
251,34800045.53090284
336,0.0
385,20.47928431153626
386,28.07685114413011
387,2.203487566441339
388,0.0
425,0.0
450,0.0
451,0.0
452,7.417002280753399
453,0.0
490,0.0
515,0.0
516,0.0
542,0.0
592,5689519.861596227
632,28901934.94635705
686,1.0
687,1.0
688,2.0
2,21, 1,21, 0,11,10.00,20.00,Monday
250,5.744128940473227
251,34649393.89720209
336,0.0
385,20.47928431153626
386,28.07685114413011
387,2.4732460863373245
388,0.0
425,0.0
450,0.0
451,0.0
452,8.267500272649835
453,0.0
490,0.0
515,0.0
516,0.0
542,0.0
592,5740969.350869596
632,28699775.212409995
686,1.0
687,1.0
688,2.0
2,21, 1,21, 0,11,20.00,30.00,Monday
250,6.027179757850391
251,34498672.00582065
336,0.0
385,20.479284311536254
386,28.076851144130096
387,2.745400310432699
388,0.0
425,0.0
450,0.0
451,0.0
452,9.114080570281876
453,0.0
490,0.0
515,0.0
516,0.0
542,0.0
592,5793671.095282219
632,28496375.091957975
686,0.9999999999999996
687,0.9999999999999996
688,1.9999999999999991
2,21, 1,21, 0,11,30.00,40.00,Monday
250,6.310083941391647
251,34347976.35887678
336,0.0
385,20.47928431153627
386,28.076851144130117
387,3.0227310409902657
388,0.0
425,0.0
450,0.0
451,0.0
452,9.935859159844812
453,0.0
490,0.0
515,0.0
516,0.0
542,0.0
592,5847681.4279665835
632,28291660.244984195
686,1.0000000000000004
687,1.0000000000000004
688,2.000000000000001
2,21, 1,21, 0,11,40.00,50.00,Monday
250,6.592925298573052
251,34197260.55336176
336,0.0
385,20.479284311536276
386,28.07685114413013
387,3.3018368103793536
388,0.0
425,0.0
450,0.0
451,0.0
452,10.681405915879619
453,0.0
490,0.0
515,0.0
516,0.0
542,0.0
592,5903058.082199926
632,28085574.474907048
686,1.0000000000000009
687,1.0000000000000009
688,2.0000000000000018
2,21, 1,21, 0,11,50.00,60.00,Monday
250,6.875681548694846
251,34046535.12035592
336,0.0
385,20.479284311536276
386,28.07685114413013
387,3.5788654337952344
388,0.0
425,0.0
450,0.0
451,0.0
452,11.317258437229858
453,0.0
490,0.0
515,0.0
516,0.0
542,0.0
592,5959860.237244541
632,27878050.064211827
686,1.0000000000000009
687,1.0000000000000009
688,2.0000000000000018
2,21, 1,21, 0,12, 0.00,10.00,Monday
250,7.14236026204241
251,33904421.68076791
336,0.0
385,20.47928431153626
386,28.07685114413011
387,3.818875188839744
388,0.0
425,0.0
450,0.0
451,0.0
452,11.816350252222808
453,0.0
490,0.0
515,0.0
516,0.0
542,0.0
592,5991096.197635707
632,27726829.140662678
686,1.0
687,1.0
688,2.0
2,21, 1,21, 0,12,10.00,20.00,Monday
250,7.408149236929027
251,33766267.92059117
336,0.0
385,20.47928431153626
386,28.07685114413011
387,4.111269555387363
388,0.0
425,0.0
450,0.0
451,0.0
452,12.380335786736229
453,0.0
490,0.0
515,0.0
516,0.0
542,0.0
592,7572016.881221028
632,26005957.867255114
686,1.0
687,1.0
688,2.0
2,21, 1,21, 0,12,20.00,30.00,Monday
250,7.674376569296302
251,33626151.16000066
336,0.0
385,20.47928431153626
386,28.07685114413011
387,4.380392997838948
388,0.0
425,0.0
450,0.0
451,0.0
452,12.895247871712703
453,0.0
490,0.0
515,0.0
516,0.0
542,0.0
592,7609409.155487606
632,25828562.666852668
686,1.0
687,1.0
688,2.0
2,21, 1,21, 0,12,30.00,40.00,Monday
250,7.940553997246604
251,33486062.253313288
336,0.0
385,20.47928431153626
386,28.07685114413011
387,4.639214553665971
388,0.0
425,0.0
450,0.0
451,0.0
452,13.387119986111184
453,0.0
490,0.0
515,0.0
516,0.0
542,0.0
592,7646583.592010486
632,25651285.77340926
686,1.0
687,1.0
688,2.0
2,21, 1,21, 0,12,40.00,50.00,Monday
250,8.20671256666564
251,33345983.230087493
336,0.0
385,20.47928431153626
386,28.07685114413011
387,4.893646982206378
388,0.0
425,0.0
450,0.0
451,0.0
452,13.829225600161479
453,0.0
490,0.0
515,0.0
516,0.0
542,0.0
592,7683540.190789655
632,25474245.24944132
686,1.0
687,1.0
688,2.0
2,21, 1,21, 0,12,50.00,60.00,Monday
250,8.47286570177112
251,33205906.35913408
336,0.0
385,20.47928431153626
386,28.07685114413011
387,5.142598702011335
388,0.0
425,0.0
450,0.0
451,0.0
452,14.19698868829098
453,0.0
490,0.0
515,0.0
516,0.0
542,0.0
592,7720278.951825121
632,25297428.61179506
686,1.0
687,1.0
688,2.0
2,21, 1,21, 0,13, 0.00,10.00,Monday
250,8.655959964398251
251,33107148.85651871
336,0.0
385,20.47928431153626
386,28.07685114413011
387,5.374992965092427
388,0.0
425,0.0
450,0.0
451,0.0
452,14.488216328246224
453,0.0
490,0.0
515,0.0
516,0.0
542,0.0
592,7745410.487127085
632,25200358.53850017
686,1.0
687,1.0
688,2.0
2,21, 1,21, 0,13,10.00,20.00,Monday
250,8.838799918263755
251,33012562.676291067
336,0.0
385,20.47928431153626
386,28.07685114413011
387,5.59379110614925
388,0.0
425,0.0
450,0.0
451,0.0
452,14.717479785458952
453,0.0
490,0.0
515,0.0
516,0.0
542,0.0
592,7770439.060057996
632,25081922.459086146
686,1.0
687,1.0
688,2.0
2,21, 1,21, 0,13,20.00,30.00,Monday
250,9.02197319145205
251,32917877.729411036
336,0.0
385,20.47928431153626
386,28.07685114413011
387,5.798704825818851
388,0.0
425,0.0
450,0.0
451,0.0
452,14.900669230245205
453,0.0
490,0.0
515,0.0
516,0.0
542,0.0
592,7795364.670617863
632,24962504.387268636
686,1.0
687,1.0
688,2.0
2,21, 1,21, 0,13,30.00,40.00,Monday
250,9.205049413061339
251,32823275.878117636
336,0.0
385,20.47928431153626
386,28.07685114413011
387,5.9937539379820715
388,0.0
425,0.0
450,0.0
451,0.0
452,15.049534770644064
453,0.0
490,0.0
515,0.0
516,0.0
542,0.0
592,7820187.318806681
632,24843040.229888227
686,1.0
687,1.0
688,2.0
2,21, 1,21, 0,13,40.00,50.00,Monday
250,9.388128884676705
251,32728705.69607278
336,0.0
385,20.47928431153626
386,28.07685114413011
387,6.1826889276609265
388,0.0
425,0.0
450,0.0
451,0.0
452,15.168872812495385
453,0.0
490,0.0
515,0.0
516,0.0
542,0.0
592,7844907.004624449
632,24723765.028447136
686,1.0
687,1.0
688,2.0
2,21, 1,21, 0,13,50.00,60.00,Monday
250,9.571203766311037
251,32634171.188716464
336,0.0
385,20.47928431153626
386,28.07685114413011
387,6.366809480919221
388,0.0
425,0.0
450,0.0
451,0.0
452,15.262309174051564
453,0.0
490,0.0
515,0.0
516,0.0
542,0.0
592,7869523.728071173
632,24604624.409403507
686,1.0
687,1.0
688,2.0
2,21, 1,21, 0,14, 0.00,10.00,Monday
250,9.771152509208493
251,32530556.219965406
336,0.0
385,20.47928431153626
386,28.07685114413011
387,6.548954968347932
388,0.0
425,0.0
450,0.0
451,0.0
452,15.31843678191517
453,0.0
490,0.0
515,0.0
516,0.0
542,0.0
592,7896260.907308879
632,24483399.372840412
686,1.0
687,1.0
688,2.0
2,21, 1,21, 0,14,10.00,20.00,Monday
250,9.970854655465473
251,32426674.702144597
336,0.0
385,20.47928431153626
386,28.07685114413011
387,6.729257291507212
388,0.0
425,0.0
450,0.0
451,0.0
452,15.318934146467983
453,0.0
490,0.0
515,0.0
516,0.0
542,0.0
592,7922875.552815756
632,24352783.261827145
686,1.0
687,1.0
688,2.0
2,21, 1,21, 0,14,20.00,30.00,Monday
250,10.170481564544275
251,32322850.38370759
336,0.0
385,20.47928431153626
386,28.07685114413011
387,6.905558331532883
388,0.0
425,0.0
450,0.0
451,0.0
452,15.26333289018966
453,0.0
490,0.0
515,0.0
516,0.0
542,0.0
592,7949367.664591794
632,24222439.571517535
686,1.0
687,1.0
688,2.0
2,21, 1,21, 0,14,30.00,40.00,Monday
250,10.370056732868344
251,32219078.203817457
336,0.0
385,20.47928431153626
386,28.07685114413011
387,7.071905161800521
388,0.0
425,0.0
450,0.0
451,0.0
452,15.141107250141745
453,0.0
490,0.0
515,0.0
516,0.0
542,0.0
592,7975737.242637003
632,24092283.409407586
686,1.0
687,1.0
688,2.0
2,21, 1,21, 0,14,40.00,50.00,Monday
250,10.569586033890078
251,32115352.956171535
336,0.0
385,20.47928431153626
386,28.07685114413011
387,7.224604036803509
388,0.0
425,0.0
450,0.0
451,0.0
452,14.93253556348856
453,0.0
490,0.0
515,0.0
516,0.0
542,0.0
592,8001984.286951372
632,23962300.04550191
686,1.0
687,1.0
688,2.0
2,21, 1,21, 0,14,50.00,60.00,Monday
250,10.769082103834817
251,32011668.19766052
336,0.0
385,20.47928431153626
386,28.07685114413011
387,7.363945417410655
388,0.0
425,0.0
450,0.0
451,0.0
452,14.640653906606099
453,0.0
490,0.0
515,0.0
516,0.0
542,0.0
592,8028108.797534912
632,23832486.695704356
686,1.0
687,1.0
688,2.0
2,21, 1,21, 0,15, 0.00,10.00,Monday
250,11.035123723195278
251,31872765.24718908
336,0.0
385,20.47928431153626
386,28.07685114413011
387,7.484931210717933
388,0.0
425,0.0
450,0.0
451,0.0
452,14.345364667281272
453,0.0
490,0.0
515,0.0
516,0.0
542,0.0
592,8062750.870287226
632,23623536.615453683
686,1.0
687,1.0
688,2.0