Program Version,EnergyPlus, Version 24.2.0-94a887817b, YMD=2025.01.30 20:35
1,5,Environment Title[],Latitude[deg],Longitude[deg],Time Zone[],Elevation[m]
2,8,Day of Simulation[],Month[],Day of Month[],DST Indicator[1=yes 0=no],Hour[],StartMinute[],EndMinute[],DayType
3,5,Cumulative Day of Simulation[],Month[],Day of Month[],DST Indicator[1=yes 0=no],DayType  ! When Daily Report Variables Requested
4,2,Cumulative Days of Simulation[],Month[]  ! When Monthly Report Variables Requested
5,1,Cumulative Days of Simulation[] ! When Run Period Report Variables Requested
6,1,Calendar Year of Simulation[] ! When Annual Report Variables Requested
250,1,LIVING ZONE,Zone Air Temperature [C] !TimeStep,REPORTSCH
251,1,LIVING ZONE,Zone Air System Sensible Heating Energy [J] !TimeStep,REPORTSCH
336,1,LIVING ZONE,Zone Air System Sensible Cooling Energy [J] !TimeStep,REPORTSCH
385,1,LIVING ZONE,Zone Thermostat Heating Setpoint Temperature [C] !TimeStep,REPORTSCH
386,1,LIVING ZONE,Zone Thermostat Cooling Setpoint Temperature [C] !TimeStep,REPORTSCH
387,1,GARAGE ZONE,Zone Air Temperature [C] !TimeStep,REPORTSCH
388,1,GARAGE ZONE,Zone Air System Sensible Heating Energy [J] !TimeStep,REPORTSCH
425,1,GARAGE ZONE,Zone Air System Sensible Cooling Energy [J] !TimeStep,REPORTSCH
450,1,GARAGE ZONE,Zone Thermostat Heating Setpoint Temperature [C] !TimeStep,REPORTSCH
451,1,GARAGE ZONE,Zone Thermostat Cooling Setpoint Temperature [C] !TimeStep,REPORTSCH
452,1,ATTIC ZONE,Zone Air Temperature [C] !TimeStep,REPORTSCH
453,1,ATTIC ZONE,Zone Air System Sensible Heating Energy [J] !TimeStep,REPORTSCH
490,1,ATTIC ZONE,Zone Air System Sensible Cooling Energy [J] !TimeStep,REPORTSCH
515,1,ATTIC ZONE,Zone Thermostat Heating Setpoint Temperature [C] !TimeStep,REPORTSCH
516,1,ATTIC ZONE,Zone Thermostat Cooling Setpoint Temperature [C] !TimeStep,REPORTSCH
542,1,ACDXCOIL 1,Cooling Coil Total Cooling Energy [J] !TimeStep,REPORTSCH
592,1,HEAT PUMP DX HEATING COIL 1,Heating Coil Heating Energy [J] !TimeStep,REPORTSCH
632,1,SUPP HEATING COIL 1,Heating Coil Heating Energy [J] !TimeStep,REPORTSCH
686,1,TWOSPEED HEAT PUMP 1,Unitary System DX Coil Cycling Ratio [] !TimeStep,REPORTSCH
687,1,TWOSPEED HEAT PUMP 1,Unitary System DX Coil Speed Ratio [] !TimeStep,REPORTSCH
688,1,TWOSPEED HEAT PUMP 1,Unitary System DX Coil Speed Level [] !TimeStep,REPORTSCH
End of Data Dictionary
1,RUN PERIOD 1,  41.98, -87.92,  -6.00, 201.00
2,21, 1,21, 0, 1, 0.00,10.00,Monday
250,22.43277901724276
251,6550733.505379517
336,0.0
385,22.44
386,31.98
387,-0.42264001378629684
388,0.0
425,0.0
450,0.0
451,0.0
452,-1.3919983519282337
453,0.0
490,0.0
515,0.0
516,0.0
542,0.0
592,4870946.528455986
632,1433668.9946741816
686,1.0
687,1.0
688,2.0
2,21, 1,21, 0, 1,10.00,20.00,Monday
250,21.37585303597404
251,5129611.638304946
336,0.0
385,21.106666666666666
386,31.980000000000004
387,-0.430640767954851
388,0.0
425,0.0
450,0.0
451,0.0
452,-1.3789217429983844
453,0.0
490,0.0
515,0.0
516,0.0
542,0.0
592,2302540.7919698013
632,2736902.764819971
686,0.5149648753900725
687,0.3638911616529105
688,1.1666666666666665
2,21, 1,21, 0, 1,20.00,30.00,Monday
250,22.334067112202824
251,7203656.263774764
336,0.0
385,22.44
386,31.98
387,-0.43982076935676584
388,0.0
425,0.0
450,0.0
451,0.0
452,-1.3767671590213593
453,0.0
490,0.0
515,0.0
516,0.0
542,0.0
592,4838478.025922553
632,2384441.5850440795
686,1.0
687,1.0
688,2.0
2,21, 1,21, 0, 1,30.00,40.00,Monday
250,22.43279601464658
251,6429798.344420103
336,0.0
385,22.44
386,31.98
387,-0.45165629026435633
388,0.0
425,0.0
450,0.0
451,0.0
452,-1.3877587837802234
453,0.0
490,0.0
515,0.0
516,0.0
542,0.0
592,4822807.580028626
632,1360804.7759169564
686,1.0
687,1.0
688,2.0
2,21, 1,21, 0, 1,40.00,50.00,Monday
250,21.382036541993244
251,5004285.240320538
336,0.0
385,21.10666666666664
386,31.979999999999954
387,-0.46245641462023046
388,0.0
425,0.0
450,0.0
451,0.0
452,-1.4100038909674941
453,0.0
490,0.0
515,0.0
516,0.0
542,0.0
592,2216651.1311397837
632,2700111.4441986363
686,0.5081770558635389
687,0.33333333333333287
688,0.9999999999999987
2,21, 1,21, 0, 1,50.00,60.00,Monday
250,22.334518401037357
251,7076305.727429146
336,0.0
385,22.44
386,31.98
387,-0.4751379739336671
388,0.0
425,0.0
450,0.0
451,0.0
452,-1.4439524053302164
453,0.0
490,0.0
515,0.0
516,0.0
542,0.0
592,4790343.188663321
632,2303643.6371970763
686,1.0
687,1.0
688,2.0
2,21, 1,21, 0, 2, 0.00,10.00,Monday
250,22.432810944926207
251,6377427.907800615
336,0.0
385,22.44
386,31.98
387,-0.4910164670481646
388,0.0
425,0.0
450,0.0
451,0.0
452,-1.489385400989673
453,0.0
490,0.0
515,0.0
516,0.0
542,0.0
592,4790708.910271343
632,1340491.8498086783
686,1.0
687,1.0
688,2.0
2,21, 1,21, 0, 2,10.00,20.00,Monday
250,21.381478327077808
251,5016420.751443169
336,0.0
385,21.106666666666666
386,31.980000000000004
387,-0.504122879360981
388,0.0
425,0.0
450,0.0
451,0.0
452,-1.5217295449771449
453,0.0
490,0.0
515,0.0
516,0.0
542,0.0
592,2218047.974631154
632,2710256.1496223616
686,0.5091875092228535
687,0.33744316276015296
688,1.1666666666666665
2,21, 1,21, 0, 2,20.00,30.00,Monday
250,22.33463252953335
251,7160617.721683396
336,0.0
385,22.44
386,31.98
387,-0.518073599659975
388,0.0
425,0.0
450,0.0
451,0.0
452,-1.548620375338956
453,0.0
490,0.0
515,0.0
516,0.0
542,0.0
592,4790342.364783456
632,2388169.8688625717
686,1.0
687,1.0
688,2.0
2,21, 1,21, 0, 2,30.00,40.00,Monday
250,22.432838593883368
251,6461609.74218544
336,0.0
385,22.44
386,31.98
387,-0.534204840541799
388,0.0
425,0.0
450,0.0
451,0.0
452,-1.5708008612703535
453,0.0
490,0.0
515,0.0
516,0.0
542,0.0
592,4790708.904829139
632,1424652.4462424645
686,1.0
687,1.0
688,2.0
2,21, 1,21, 0, 2,40.00,50.00,Monday
250,21.377441272859727
251,5099300.591926765
336,0.0
385,21.10666666666664
386,31.979999999999954
387,-0.5464706557651708
388,0.0
425,0.0
450,0.0
451,0.0
452,-1.5803565484504731
453,0.0
490,0.0
515,0.0
516,0.0
542,0.0
592,2264174.729944844
632,2744844.3030571667
686,0.5136582520288188
687,0.361268808735126
688,1.166666666666665
2,21, 1,21, 0, 2,50.00,60.00,Monday
250,22.334409114753555
251,7246339.7267062515
336,0.0
385,22.44
386,31.98
387,-0.5588559277712548
388,0.0
425,0.0
450,0.0
451,0.0
452,-1.5857811174828382
453,0.0
490,0.0
515,0.0
516,0.0
542,0.0
592,4790337.267112969
632,2475004.5563341305
686,1.0
687,1.0
688,2.0
2,21, 1,21, 0, 3, 0.00,10.00,Monday
250,22.432843378053505
251,6527739.040656865
336,0.0
385,22.44
386,31.98
387,-0.5622543983941918
388,0.0
425,0.0
450,0.0
451,0.0
452,-1.5796963729852018
453,0.0
490,0.0
515,0.0
516,0.0
542,0.0
592,4794198.250563515
632,1487310.178796372
686,1.0
687,1.0
688,2.0
2,21, 1,21, 0, 3,10.00,20.00,Monday
250,21.374876448261983
251,5150508.736150244
336,0.0
385,21.106666666666666
386,31.980000000000004
387,-0.5534760608260749
388,0.0
425,0.0
450,0.0
451,0.0
452,-1.556536125781819
453,0.0
490,0.0
515,0.0
516,0.0
542,0.0
592,2295350.617986466
632,2763690.4742421866
686,0.5165197328094309
687,0.3751836128332758
688,1.1666666666666665
2,21, 1,21, 0, 3,20.00,30.00,Monday
250,22.334291314688418
251,7285336.8296340555
336,0.0
385,22.44
386,31.98
387,-0.5387305885912861
388,0.0
425,0.0
450,0.0
451,0.0
452,-1.5172291721826592
453,0.0
490,0.0
515,0.0
516,0.0
542,0.0
592,4800075.532262855
632,2504974.2837381093
686,1.0
687,1.0
688,2.0
2,21, 1,21, 0, 3,30.00,40.00,Monday
250,22.432851592890874
251,6561139.561540588
336,0.0
385,22.44
386,31.98
387,-0.5164325303524638
388,0.0
425,0.0
450,0.0
451,0.0
452,-1.4568544226734006
453,0.0
490,0.0
515,0.0
516,0.0
542,0.0
592,4803986.865314831
632,1510930.1121802905
686,1.0
687,1.0
688,2.0
2,21, 1,21, 0, 3,40.00,50.00,Monday
250,21.373264816619162
251,5181502.149039139
336,0.0
385,21.10666666666664
386,31.979999999999954
387,-0.4952173498949651
388,0.0
425,0.0
450,0.0
451,0.0
452,-1.3968037177406616
453,0.0
490,0.0
515,0.0
516,0.0
542,0.0
592,2316343.5807747543
632,2773078.44758662
686,0.5183375981595053
687,0.38297645722576384
688,1.166666666666665
2,21, 1,21, 0, 3,50.00,60.00,Monday
250,22.334250858862838
251,7317543.844213969
336,0.0
385,22.44
386,31.98
387,-0.4699498713630616
388,0.0
425,0.0
450,0.0
451,0.0
452,-1.3252204994899617
453,0.0
490,0.0
515,0.0
516,0.0
542,0.0
592,4808790.205159087
632,2528930.6282996424
686,1.0
687,1.0
688,2.0
2,21, 1,21, 0, 4, 0.00,10.00,Monday
250,22.43286162200144
251,6592009.114540653
336,0.0
385,22.44
386,31.98
387,-0.4479744634126367
388,0.0
425,0.0
450,0.0
451,0.0
452,-1.2433136450664348
453,0.0
490,0.0
515,0.0
516,0.0
542,0.0
592,4809764.157890724
632,1536021.5110995846
686,1.0
687,1.0
688,2.0
2,21, 1,21, 0, 4,10.00,20.00,Monday
250,21.371575651093682
251,5213744.993254021
336,0.0
385,21.106666666666666
386,31.980000000000004
387,-0.4393939407214529
388,0.0
425,0.0
450,0.0
451,0.0
452,-1.1897482436150704
453,0.0
490,0.0
515,0.0
516,0.0
542,0.0
592,2336117.973109412
632,2784771.675533998
686,0.5202327423236652
687,0.39225221811952254
688,1.1666666666666665
2,21, 1,21, 0, 4,20.00,30.00,Monday
250,22.334128544912303
251,7352961.167140877
336,0.0
385,22.44
386,31.98
387,-0.4332850025779451
388,0.0
425,0.0
450,0.0
451,0.0
452,-1.1427760302368548
453,0.0
490,0.0
515,0.0
516,0.0
542,0.0
592,4808261.472417062
632,2565349.7420003195
686,1.0
687,1.0
688,2.0
2,21, 1,21, 0, 4,30.00,40.00,Monday
250,22.432858541182647
251,6624489.913557779
336,0.0
385,22.44
386,31.98
387,-0.4285519785008961
388,0.0
425,0.0
450,0.0
451,0.0
452,-1.099118802859668
453,0.0
490,0.0
515,0.0
516,0.0
542,0.0
592,4809238.54640482
632,1569041.0336388242
686,1.0
687,1.0
688,2.0
2,21, 1,21, 0, 4,40.00,50.00,Monday
250,21.369892729350923
251,5245596.11116665
336,0.0
385,21.10666666666664
386,31.979999999999954
387,-0.42654200028537814
388,0.0
425,0.0
450,0.0
451,0.0
452,-1.0744969554616433
453,0.0
490,0.0
515,0.0
516,0.0
542,0.0
592,2354833.8855438717
632,2797086.8711231295
686,0.5221125118951934
687,0.4019464590248931
688,1.166666666666665
2,21, 1,21, 0, 4,50.00,60.00,Monday
250,22.33399831944272
251,7384538.256940961
336,0.0
385,22.44
386,31.98
387,-0.42535709773458485
388,0.0
425,0.0
450,0.0
451,0.0
452,-1.053894682760426
453,0.0
490,0.0
515,0.0
516,0.0
542,0.0
592,4807732.243393648
632,2597917.250697895
686,1.0
687,1.0
688,2.0
2,21, 1,21, 0, 5, 0.00,10.00,Monday
250,22.432855789724215
251,6666772.210448902
336,0.0
385,22.44
386,31.98
387,-0.4249135192870622
388,0.0
425,0.0
450,0.0
451,0.0
452,-1.0345206557001965
453,0.0
490,0.0
515,0.0
516,0.0
542,0.0
592,4795951.642527313
632,1624625.4162562073
686,1.0
687,1.0
688,2.0
2,21, 1,21, 0, 5,10.00,20.00,Monday
250,21.36711853170138
251,5300361.40214259
336,0.0
385,21.106666666666666
386,31.980000000000004
387,-0.4253162315105955
388,0.0
425,0.0
450,0.0
451,0.0
452,-1.0217778539398648
453,0.0
490,0.0
515,0.0
516,0.0
542,0.0
592,2377736.344328155
632,2827192.423045864
686,0.5253723816044296
687,0.42107789097971976
688,1.1666666666666665
2,21, 1,21, 0, 5,20.00,30.00,Monday
250,22.33381651546683
251,7452735.285450958
336,0.0
385,22.44
386,31.98
387,-0.4260536956974056
388,0.0
425,0.0
450,0.0
451,0.0
452,-1.0089661109275447
453,0.0
490,0.0
515,0.0
516,0.0
542,0.0
592,4768911.96967862
632,2705686.9318674686
686,1.0
687,1.0
688,2.0
2,21, 1,21, 0, 5,30.00,40.00,Monday
250,22.432855394234664
251,6732026.3240613
336,0.0
385,22.44
386,31.98
387,-0.4272573774918708
388,0.0
425,0.0
450,0.0
451,0.0
452,-0.9945779620318072
453,0.0
490,0.0
515,0.0
516,0.0
542,0.0
592,4757112.019870816
632,1728737.3108986379
686,1.0
687,1.0
688,2.0
2,21, 1,21, 0, 5,40.00,50.00,Monday
250,21.363818298087992
251,5366148.107266256
336,0.0
385,21.10666666666664
386,31.979999999999954
387,-0.4284637180825329
388,0.0
425,0.0
450,0.0
451,0.0
452,-0.9837685271455366
453,0.0
490,0.0
515,0.0
516,0.0
542,0.0
592,2402437.879634977
632,2866057.9622017895
686,0.5293503843619283
687,0.4451125418601548
688,1.166666666666665
2,21, 1,21, 0, 5,50.00,60.00,Monday
250,21.7242779120064
251,5233701.177527756
336,0.0
385,21.77333333333335
386,31.980000000000025
387,-0.4297048877358967
388,0.0
425,0.0
450,0.0
451,0.0
452,-0.9728937539989024
453,0.0
490,0.0
515,0.0
516,0.0
542,0.0
592,3202770.122204802
632,2032495.779198592
686,0.6810057651289003
687,0.6666666666666672
688,1.6666666666666679
2,21, 1,21, 0, 6, 0.00,10.00,Monday
250,21.959312636062933
251,6556107.703082976
336,0.0
385,22.44
386,31.98
387,-0.4313574344458716
388,0.0
425,0.0
450,0.0
451,0.0
452,-0.9607153770095421
453,0.0
490,0.0
515,0.0
516,0.0
542,0.0
592,4723955.394886088
632,2386423.171224542
686,1.0
687,1.0
688,2.0
2,21, 1,21, 0, 6,10.00,20.00,Monday
250,22.39405046667575
251,7658872.944869919
336,0.0
385,22.44
386,31.98
387,-0.43332264062027576
388,0.0
425,0.0
450,0.0
451,0.0
452,-0.9519008282085102
453,0.0
490,0.0
515,0.0
516,0.0
542,0.0
592,4730549.280309349
632,2795451.0391704943
686,1.0
687,1.0
688,2.0
2,21, 1,21, 0, 6,20.00,30.00,Monday
250,21.35447843206806
251,5514724.670663672
336,0.0
385,21.106666666666683
386,31.98000000000003
387,-0.4354760572634556
388,0.0
425,0.0
450,0.0
451,0.0
452,-0.9467918460392963
453,0.0
490,0.0
515,0.0
516,0.0
542,0.0
592,2485252.077132345
632,2928832.162051396
686,0.5380701036654065
687,0.4926195843672378
688,1.1666666666666674
2,21, 1,21, 0, 6,30.00,40.00,Monday
250,21.725958957411173
251,5344341.637615317
336,0.0
385,21.77333333333335
386,31.980000000000025
387,-0.43786734912489267
388,0.0
425,0.0
450,0.0
451,0.0
452,-0.9427134670018507
453,0.0
490,0.0
515,0.0
516,0.0
542,0.0
592,3232162.228528675
632,2105878.837621746
686,0.6896910257443334
687,0.6666666666666672
688,1.6666666666666679
2,21, 1,21, 0, 6,40.00,50.00,Monday
250,21.962114468838976
251,6645572.375614684
336,0.0
385,22.44
386,31.98
387,-0.44090705380168665
388,0.0
425,0.0
450,0.0
451,0.0
452,-0.9390842972704301
453,0.0
490,0.0
515,0.0
516,0.0
542,0.0
592,4723241.815876867
632,2474857.9066239097
686,1.0
687,1.0
688,2.0
2,21, 1,21, 0, 6,50.00,60.00,Monday
250,22.394360676591052
251,7731440.326882725
336,0.0
385,22.44
386,31.98
387,-0.44387337572785196
388,0.0
425,0.0
450,0.0
451,0.0
452,-0.9369879726965673
453,0.0
490,0.0
515,0.0
516,0.0
542,0.0
592,4729795.639834747
632,2868050.465919347
686,1.0
687,1.0
688,2.0
2,21, 1,21, 0, 7, 0.00,10.00,Monday
250,21.345227703908186
251,5685793.266639326
336,0.0
385,21.10666666666667
386,31.980000000000004
387,-0.44956912108918407
388,0.0
425,0.0
450,0.0
451,0.0
452,-0.9433232279576839
453,0.0
490,0.0
515,0.0
516,0.0
542,0.0
592,2539666.1184954466
632,3047558.947489531
686,0.5467032756889295
687,0.5
688,1.1666666666666667
2,21, 1,21, 0, 7,10.00,20.00,Monday
250,21.730051572452528
251,5586237.338241896
336,0.0
385,21.773333333333333
386,31.98
387,-0.45935347781172386
388,0.0
425,0.0
450,0.0
451,0.0
452,-0.9655224400170344
453,0.0
490,0.0
515,0.0
516,0.0
542,0.0
592,3339045.536300225
632,2221699.374258444
686,0.7088664346489937
687,0.6666666666666667
688,1.6666666666666667
2,21, 1,21, 0, 7,20.00,30.00,Monday
250,21.96733627474142
251,6908468.181853888
336,0.0
385,22.44
386,31.98
387,-0.47506754557285663
388,0.0
425,0.0
450,0.0
451,0.0
452,-1.0103473121898348
453,0.0
490,0.0
515,0.0
516,0.0
542,0.0
592,4811473.702244417
632,2644997.0436692764
686,1.0
687,1.0
688,2.0
2,21, 1,21, 0, 7,30.00,40.00,Monday
250,22.394989163287455
251,8028602.213915179
336,0.0
385,22.44
386,31.98
387,-0.4924027796614429
388,0.0
425,0.0
450,0.0
451,0.0
452,-1.0668790929243497
453,0.0
490,0.0
515,0.0
516,0.0
542,0.0
592,4847771.956158683
632,3045860.0969046345
686,1.0
687,1.0
688,2.0
2,21, 1,21, 0, 7,40.00,50.00,Monday
250,21.332628311089213
251,5915926.484370091
336,0.0
385,21.10666666666664
386,31.979999999999954
387,-0.5105698426770909
388,0.0
425,0.0
450,0.0
451,0.0
452,-1.130048687208784
453,0.0
490,0.0
515,0.0
516,0.0
542,0.0
592,2640501.6074616183
632,3181129.9575946424
686,0.5573622033594786
687,0.49999999999999933
688,1.166666666666665
2,21, 1,21, 0, 7,50.00,60.00,Monday
250,21.733720365267587
251,5831831.511782121
336,0.0
385,21.77333333333335
386,31.980000000000025
387,-0.5318667705522245
388,0.0
425,0.0
450,0.0
451,0.0
452,-1.20384806394944
453,0.0
490,0.0
515,0.0
516,0.0
542,0.0
592,3486501.3685722337
632,2302527.2035189928
686,0.7270906080074058
687,0.6666666666666672
688,1.6666666666666679
2,21, 1,21, 0, 8, 0.00,10.00,Monday
250,21.971702910815985
251,6616769.488324154
336,0.0
385,22.44
386,31.98
387,-0.5311574435188348
388,0.0
425,0.0
450,0.0
451,0.0
452,-1.2739269280627727
453,0.0
490,0.0
515,0.0
516,0.0
542,0.0
592,4921083.895214519
632,2239069.9602807267
686,1.0
687,1.0
688,2.0
2,21, 1,21, 0, 8,10.00,20.00,Monday
250,22.39536651403007
251,7517847.478622161
336,0.0
385,22.44
386,31.98
387,-0.4988691311635006
388,0.0
425,0.0
450,0.0
451,0.0
452,-1.2635172434051734
453,0.0
490,0.0
515,0.0
516,0.0
542,0.0
592,4950703.221686507
632,2430992.5597462943
686,1.0
687,1.0
688,2.0
2,21, 1,21, 0, 8,20.00,30.00,Monday
250,21.36844180364418
251,5212003.082197722
336,0.0
385,21.106666666666683
386,31.98000000000003
387,-0.44756022737392076
388,0.0
425,0.0
450,0.0
451,0.0
452,-1.1586589802627931
453,0.0
490,0.0
515,0.0
516,0.0
542,0.0
592,2403745.800534625
632,2718274.38325202
686,0.5219143369799468
687,0.3782939681347581
688,1.1666666666666674
2,21, 1,21, 0, 8,30.00,40.00,Monday
250,22.33415604548967
251,7170176.758201577
336,0.0
385,22.44
386,31.98
387,-0.37785321765907254
388,0.0
425,0.0
450,0.0
451,0.0
452,-0.9766279029920732
453,0.0
490,0.0
515,0.0
516,0.0
542,0.0
592,4997056.84699882
632,2194583.85093156
686,1.0
687,1.0
688,2.0
2,21, 1,21, 0, 8,40.00,50.00,Monday
250,22.432881477318233
251,6223436.957811675
336,0.0
385,22.44
386,31.98
387,-0.2782275545308703
388,0.0
425,0.0
450,0.0
451,0.0
452,-0.6802378393678169
453,0.0
490,0.0
515,0.0
516,0.0
542,0.0
592,5026119.956810931
632,951073.0537701343
686,1.0
687,1.0
688,2.0
2,21, 1,21, 0, 8,50.00,60.00,Monday
250,21.412601836643816
251,4596050.502409375
336,0.0
385,21.10666666666664
386,31.979999999999954
387,-0.18329778434101485
388,0.0
425,0.0
450,0.0
451,0.0
452,-0.36864357256864816
453,0.0
490,0.0
515,0.0
516,0.0
542,0.0
592,2022333.4461637125
632,2513100.6275440357
686,0.4532778569043775
687,0.25312692633601663
688,0.8333333333333321
2,21, 1,21, 0, 9, 0.00,10.00,Monday
250,22.337914225574192
251,6340062.433982993
336,0.0
385,22.44
386,31.98
387,-0.06176768291960785
388,0.0
425,0.0
450,0.0
451,0.0
452,0.035438903100141944
453,0.0
490,0.0
515,0.0
516,0.0
542,0.0
592,4918695.5457982905
632,1435487.2349951717
686,1.0
687,0.8799558511360663
688,2.0
2,21, 1,21, 0, 9,10.00,20.00,Monday
250,21.459965392264444
251,3559062.53339005
336,0.0
385,21.44
386,31.98
387,0.11537882081996713
388,0.0
425,0.0
450,0.0
451,0.0
452,0.6312221964336876
453,0.0
490,0.0
515,0.0
516,0.0
542,0.0
592,2900758.8010156453
632,452627.8833193404
686,0.5914169089273694
687,0.5
688,1.5
2,21, 1,21, 0, 9,20.00,30.00,Monday
250,21.845243087902578
251,4124561.2352990205
336,0.0
385,21.773333333333326
386,31.97999999999999
387,0.2558328161679429
388,0.0
425,0.0
450,0.0
451,0.0
452,1.1235071981257274
453,0.0
490,0.0
515,0.0
516,0.0
542,0.0
592,3044041.533345013
632,1091809.938547034
686,0.6666666666666664
687,0.3835057268546003
688,1.3333333333333328
2,21, 1,21, 0, 9,30.00,40.00,Monday
250,21.476071174945055
251,3975510.1069940347
336,0.0
385,21.239999999999995
386,31.979999999999993
387,0.39744535966947014
388,0.0
425,0.0
450,0.0
451,0.0
452,1.6427026106110956
453,0.0
490,0.0
515,0.0
516,0.0
542,0.0
592,1964541.8264429225
632,2058565.5117619429
686,0.42480441740936076
687,0.2520483496135836
688,0.9999999999999993
2,21, 1,21, 0, 9,40.00,50.00,Monday
250,21.694403315559292
251,5291706.805687587
336,0.0
385,21.77333333333335
386,31.980000000000025
387,0.5424243585993196
388,0.0
425,0.0
450,0.0
451,0.0
452,2.21182791219786
453,0.0
490,0.0
515,0.0
516,0.0
542,0.0
592,2920001.05467103
632,2501849.7834468465
686,0.6423324600052889
687,0.3333333333333336
688,1.3333333333333344
2,21, 1,21, 0, 9,50.00,60.00,Monday
250,21.443501191866016
251,4866491.662667792
336,0.0
385,21.44
386,31.98
387,0.7024525066678808
388,0.0
425,0.0
450,0.0
451,0.0
452,2.784107524653656
453,0.0
490,0.0
515,0.0
516,0.0
542,0.0
592,3037532.7144520385
632,1897729.683978837
686,0.6103366686946
687,0.5
688,1.25
2,21, 1,21, 0,10, 0.00,10.00,Monday
250,21.69257325500828
251,4998372.600670865
336,0.0
385,21.773333333333333
386,31.980000000000004
387,0.9032231576543981
388,0.0
425,0.0
450,0.0
451,0.0
452,3.38071431971054
453,0.0
490,0.0
515,0.0
516,0.0
542,0.0
592,2780017.0380985965
632,2368844.309752732
686,0.5905838824013281
687,0.3333333333333333
688,1.3333333333333335
2,21, 1,21, 0,10,10.00,20.00,Monday
250,21.471348381632367
251,4405327.47433748
336,0.0
385,21.44
386,31.98
387,1.133037460036427
388,0.0
425,0.0
450,0.0
451,0.0
452,3.996889022011594
453,0.0
490,0.0
515,0.0
516,0.0
542,0.0
592,2738435.1976224207
632,1740820.8015617186
686,0.5735450639736726
687,0.31744139341501276
688,1.25
2,21, 1,21, 0,10,20.00,30.00,Monday
250,21.687981429165106
251,4542143.081336275
336,0.0
385,21.773333333333326
386,31.97999999999999
387,1.3890659023301155
388,0.0
425,0.0
450,0.0
451,0.0
452,4.649681976083382
453,0.0
490,0.0
515,0.0
516,0.0
542,0.0
592,2519523.7165901773
632,2206953.4960310496
686,0.5052750646111532
687,0.3333333333333332
688,1.3333333333333328
2,21, 1,21, 0,10,30.00,40.00,Monday
250,21.492801445644712
251,4000581.313969845
336,0.0
385,21.439999999999994
386,31.97999999999999
387,1.6576923500461915
388,0.0
425,0.0
450,0.0
451,0.0
452,5.319507171289227
453,0.0
490,0.0
515,0.0
516,0.0
542,0.0
592,2434062.3181411955
632,1654973.246880471
686,0.5012162522630601
687,0.25
688,1.0
2,21, 1,21, 0,10,40.00,50.00,Monday
250,21.02764399755765
251,4402497.518464796
336,0.0
385,21.106666666666683
386,31.980000000000025
387,1.9438047092581339
388,0.0
425,0.0
450,0.0
451,0.0
452,6.051645537892245
453,0.0
490,0.0
515,0.0
516,0.0
542,0.0
592,3343313.498690707
632,1210947.9658151304
686,0.6666666666666672
687,0.3676851888118785
688,1.3333333333333344
2,21, 1,21, 0,10,50.00,60.00,Monday
250,21.440262457869807
251,3265599.100156215
336,0.0
385,21.240000000000002
386,31.980000000000004
387,2.234268079378274
388,0.0
425,0.0
450,0.0
451,0.0
452,6.838006696050646
453,0.0
490,0.0
515,0.0
516,0.0
542,0.0
592,2274675.868637806
632,1025560.2312931943
686,0.426820118749687
687,0.30638380919876157
688,1.0
2,21, 1,21, 0,11, 0.00,10.00,Monday
250,21.69086945894971
251,2228830.8883946347
336,0.0
385,21.44
386,31.98
387,2.5144172472362953
388,0.0
425,0.0
450,0.0
451,0.0
452,7.656046944810452
453,0.0
490,0.0
515,0.0
516,0.0
542,0.0
592,1988821.2365231817
632,257872.57945048113
686,0.37446892852337604
687,0.25
688,1.0
2,21, 1,21, 0,11,10.00,20.00,Monday
250,21.929046356945477
251,3196241.7386291055
336,0.0
385,21.44
386,31.98
387,2.8794846682887787
388,0.0
425,0.0
450,0.0
451,0.0
452,8.733292252373301
453,0.0
490,0.0
515,0.0
516,0.0
542,0.0
592,1460624.8254132988
632,1760532.6946501979
686,0.25
687,0.25
688,0.5
2,21, 1,21, 0,11,20.00,30.00,Monday
250,21.45940675773635
251,3120397.7536043692
336,0.0
385,21.24
386,31.980000000000004
387,3.1182515841385166
388,0.0
425,0.0
450,0.0
451,0.0
452,9.480032132055857
453,0.0
490,0.0
515,0.0
516,0.0
542,0.0
592,1948441.125588832
632,1272804.8683308074
686,0.37222448058822133
687,0.2
688,0.6000000000000001
2,21, 1,21, 0,11,30.00,40.00,Monday
250,21.072335789220944
251,3810817.9943140363
336,0.0
385,21.106666666666683
386,31.980000000000025
387,3.374041167865485
388,0.0
425,0.0
450,0.0
451,0.0
452,10.249965224598611
453,0.0
490,0.0
515,0.0
516,0.0
542,0.0
592,3008594.824053541
632,963366.1341109265
686,0.5605606570431694
687,0.3333333333333336
688,1.0000000000000009
2,21, 1,21, 0,11,40.00,50.00,Monday
250,21.530421244502797
251,2474531.8028447474
336,0.0
385,21.240000000000002
386,31.980000000000004
387,3.6351655880034963
388,0.0
425,0.0
450,0.0
451,0.0
452,10.952999914477013
453,0.0
490,0.0
515,0.0
516,0.0
542,0.0
592,1742625.772526822
632,773106.4185609868
686,0.3180609804462227
687,0.2
688,0.8
2,21, 1,21, 0,11,50.00,60.00,Monday
250,22.081342139274806
251,2314970.820496688
336,0.0
385,21.77333333333335
386,31.980000000000025
387,3.9068278395584803
388,0.0
425,0.0
450,0.0
451,0.0
452,11.59864540524588
453,0.0
490,0.0
515,0.0
516,0.0
542,0.0
592,2340457.084968257
632,0.0
686,0.4684000149572013
687,0.1195817137611687
688,1.0000000000000009
2,21, 1,21, 0,12, 0.00,10.00,Monday
250,21.82922666985246
251,2591615.1261008773
336,0.0
385,21.10666666666667
386,31.980000000000004
387,4.16771788712993
388,0.0
425,0.0
450,0.0
451,0.0
452,12.15551781323736
453,0.0
490,0.0
515,0.0
516,0.0
542,0.0
592,1088363.45467905
632,1617533.687559976
686,0.1828326422267561
687,0.16666666666666669
688,0.5
2,21, 1,21, 0,12,10.00,20.00,Monday
250,21.494313334753496
251,2796982.559208207
336,0.0
385,21.24
386,31.980000000000004
387,4.427976289791889
388,0.0
425,0.0
450,0.0
451,0.0
452,12.685763032542965
453,0.0
490,0.0
515,0.0
516,0.0
542,0.0
592,1983739.4399859842
632,933241.9088693691
686,0.2754048847302808
687,0.2
688,0.6000000000000001
2,21, 1,21, 0,12,20.00,30.00,Monday
250,21.580886883417207
251,2789593.705661927
336,0.0
385,21.44
386,31.98
387,4.691522771994354
388,0.0
425,0.0
450,0.0
451,0.0
452,13.210153220568403
453,0.0
490,0.0
515,0.0
516,0.0
542,0.0
592,2102661.157109291
632,848898.792031043
686,0.27886842062036493
687,0.25
688,0.75
2,21, 1,21, 0,12,30.00,40.00,Monday
250,21.444413546783046
251,2771945.412228634
336,0.0
385,20.94
386,31.98
387,5.030921085392361
388,0.0
425,0.0
450,0.0
451,0.0
452,13.838822087944306
453,0.0
490,0.0
515,0.0
516,0.0
542,0.0
592,2149507.0683551296
632,779633.559312267
686,0.28482995143768475
687,0.25
688,0.75
2,21, 1,21, 0,12,40.00,50.00,Monday
250,21.671016779967932
251,25255.43021739258
336,0.0
385,20.94
386,31.98
387,5.304417898356628
388,0.0
425,0.0
450,0.0
451,0.0
452,14.309192338761305
453,0.0
490,0.0
515,0.0
516,0.0
542,0.0
592,22957.35254414744
632,0.0
686,0.0037997011622608883
687,0.0
688,0.25
2,21, 1,21, 0,12,50.00,60.00,Monday
250,22.40260522505664
251,2587159.2483472805
336,0.0
385,22.44
386,31.98
387,5.52889438235795
388,0.0
425,0.0
450,0.0
451,0.0
452,14.65182151229671
453,0.0
490,0.0
515,0.0
516,0.0
542,0.0
592,2583087.80112125
632,0.0
686,0.4256424928651552
687,0.0
688,1.0
2,21, 1,21, 0,13, 0.00,10.00,Monday
250,21.367760742074807
251,2507420.3098724107
336,0.0
385,20.84
386,31.980000000000004
387,5.728630236251703
388,0.0
425,0.0
450,0.0
451,0.0
452,14.903564247889783
453,0.0
490,0.0
515,0.0
516,0.0
542,0.0
592,1787125.747233951
632,851478.8016545771
686,0.23491782409182255
687,0.2
688,0.6000000000000001
2,21, 1,21, 0,13,10.00,20.00,Monday
250,21.90518630831924
251,1631607.5088081877
336,0.0
385,21.44
386,31.98
387,5.927589713029016
388,0.0
425,0.0
450,0.0
451,0.0
452,15.12136896872666
453,0.0
490,0.0
515,0.0
516,0.0
542,0.0
592,1687939.5334946688
632,0.0
686,0.2542437546984554
687,0.07099191225048328
688,0.75
2,21, 1,21, 0,13,20.00,30.00,Monday
250,20.86237553248808
251,484979.47298304806
336,0.0
385,20.43999999999999
386,31.97999999999999
387,6.129043665417955
388,0.0
425,0.0
450,0.0
451,0.0
452,15.31462015690234
453,0.0
490,0.0
515,0.0
516,0.0
542,0.0
592,459128.3034636725
632,0.0
686,0.0742756831427885
687,0.0
688,0.3333333333333332
2,21, 1,21, 0,13,30.00,40.00,Monday
250,22.026556813190357
251,1875057.1925709732
336,0.0
385,21.239999999999995
386,31.979999999999993
387,6.32027475636405
388,0.0
425,0.0
450,0.0
451,0.0
452,15.469318053615432
453,0.0
490,0.0
515,0.0
516,0.0
542,0.0
592,1592768.3601377334
632,385347.41023924225
686,0.2
687,0.2
688,0.4
2,21, 1,21, 0,13,40.00,50.00,Monday
250,21.022736419685508
251,0.0
336,0.0
385,20.44
386,31.98
387,6.517963845251373
388,0.0
425,0.0
450,0.0
451,0.0
452,15.601383530276852
453,0.0
490,0.0
515,0.0
516,0.0
542,0.0
592,0.0
632,0.0
686,0.0
687,0.0
688,0.0
2,21, 1,21, 0,13,50.00,60.00,Monday
250,21.324922395889516
251,3287367.5608652127
336,0.0
385,21.44
386,31.98
387,6.753823817280093
388,0.0
425,0.0
450,0.0
451,0.0
452,15.727059726558984
453,0.0
490,0.0
515,0.0
516,0.0
542,0.0
592,3453485.375580786
632,0.0
686,0.5508405507308167
687,0.0
688,1.0
2,21, 1,21, 0,14, 0.00,10.00,Monday
250,22.01473330254904
251,1411093.4907759987
336,0.0
385,21.44
386,31.98
387,6.91225202996948
388,0.0
425,0.0
450,0.0
451,0.0
452,15.772438945333919
453,0.0
490,0.0
515,0.0
516,0.0
542,0.0
592,1465904.2115356666
632,0.0
686,0.23320962316968086
687,0.0
688,0.25
2,21, 1,21, 0,14,10.00,20.00,Monday
250,21.04058883418191
251,0.0
336,0.0
385,20.439999999999998
386,31.98
387,7.073745060125599
388,0.0
425,0.0
450,0.0
451,0.0
452,15.769988786841907
453,0.0
490,0.0
515,0.0
516,0.0
542,0.0
592,0.0
632,0.0
686,0.0
687,0.0
688,0.0
2,21, 1,21, 0,14,20.00,30.00,Monday
250,21.77091120602444
251,2570829.49464343
336,0.0
385,21.773333333333326
386,31.97999999999999
387,7.283623357566479
388,0.0
425,0.0
450,0.0
451,0.0
452,15.716075067940338
453,0.0
490,0.0
515,0.0
516,0.0
542,0.0
592,2736190.1160205095
632,0.0
686,0.40127023878170426
687,0.10626313699253638
688,0.9999999999999996
2,21, 1,21, 0,14,30.00,40.00,Monday
250,20.96744750395953
251,0.0
336,0.0
385,20.439999999999994
386,31.97999999999999
387,7.437364158934154
388,0.0
425,0.0
450,0.0
451,0.0
452,15.604359723488365
453,0.0
490,0.0
515,0.0
516,0.0
542,0.0
592,0.0
632,0.0
686,0.0
687,0.0
688,0.0
2,21, 1,21, 0,14,40.00,50.00,Monday
250,21.32231479632227
251,2893606.9366843263
336,0.0
385,21.44
386,31.98
387,7.603170391176636
388,0.0
425,0.0
450,0.0
451,0.0
452,15.378297478843946
453,0.0
490,0.0
515,0.0
516,0.0
542,0.0
592,3083291.271823526
632,0.0
686,0.4798104420893018
687,0.0
688,1.0
2,21, 1,21, 0,14,50.00,60.00,Monday
250,22.09994398838947
251,1362845.3412851049
336,0.0
385,21.44
386,31.98
387,7.71819432913059
388,0.0
425,0.0
450,0.0
451,0.0
452,15.123860576338863
453,0.0
490,0.0
515,0.0
516,0.0
542,0.0
592,1414855.0919080407
632,0.0
686,0.21963720941711326
687,0.0
688,0.25
2,21, 1,21, 0,15, 0.00,10.00,Monday
250,21.19787272139723
251,0.0
336,0.0
385,20.44
386,31.980000000000004
387,7.83901940583125
388,0.0
425,0.0
450,0.0
451,0.0
452,14.818457643435394
453,0.0
490,0.0
515,0.0
516,0.0
542,0.0
592,0.0
632,0.0
686,0.0
687,0.0
688,0.0
2,21, 1,21, 0,15,10.00,20.00,Monday
250,21.792592239739086