Program Version,EnergyPlus, Version 24.2.0-94a887817b, YMD=2025.01.22 00:03
1,5,Environment Title[],Latitude[deg],Longitude[deg],Time Zone[],Elevation[m]
2,8,Day of Simulation[],Month[],Day of Month[],DST Indicator[1=yes 0=no],Hour[],StartMinute[],EndMinute[],DayType
3,5,Cumulative Day of Simulation[],Month[],Day of Month[],DST Indicator[1=yes 0=no],DayType  ! When Daily Meters Requested
4,2,Cumulative Days of Simulation[],Month[]  ! When Monthly Meters Requested
5,1,Cumulative Days of Simulation[] ! When Run Period Meters Requested
6,1,Calendar Year of Simulation[] ! When Annual Meters Requested
11,9,Electricity:Facility [J] !Monthly [Value,Min,Day,Hour,Minute,Max,Day,Hour,Minute]
23,9,Electricity:Building [J] !Monthly [Value,Min,Day,Hour,Minute,Max,Day,Hour,Minute]
59,9,InteriorLights:Electricity [J] !Monthly [Value,Min,Day,Hour,Minute,Max,Day,Hour,Minute]
521,9,Electricity:HVAC [J] !Monthly [Value,Min,Day,Hour,Minute,Max,Day,Hour,Minute]
637,9,NaturalGas:Facility [J] !Monthly [Value,Min,Day,Hour,Minute,Max,Day,Hour,Minute]
649,9,NaturalGas:HVAC [J] !Monthly [Value,Min,Day,Hour,Minute,Max,Day,Hour,Minute]
13,11,Electricity:Facility [J] !RunPeriod [Value,Min,Month,Day,Hour,Minute,Max,Month,Day,Hour,Minute]
25,11,Electricity:Building [J] !RunPeriod [Value,Min,Month,Day,Hour,Minute,Max,Month,Day,Hour,Minute]
61,11,InteriorLights:Electricity [J] !RunPeriod [Value,Min,Month,Day,Hour,Minute,Max,Month,Day,Hour,Minute]
523,11,Electricity:HVAC [J] !RunPeriod [Value,Min,Month,Day,Hour,Minute,Max,Month,Day,Hour,Minute]
639,11,NaturalGas:Facility [J] !RunPeriod [Value,Min,Month,Day,Hour,Minute,Max,Month,Day,Hour,Minute]
651,11,NaturalGas:HVAC [J] !RunPeriod [Value,Min,Month,Day,Hour,Minute,Max,Month,Day,Hour,Minute]
End of Data Dictionary
1,RUN PERIOD 1,  41.98, -87.92,  -6.00, 201.00
4,31, 1
11,9837337697.366552,408891.4285714286, 5, 6,50,2989826.570314437,16,13,60
23,998287596.13557,30000.0, 1, 1,10,620353.3305330122, 1, 9,10
59,970200000.0,30000.0, 1, 1,10,600000.0, 1, 8,10
521,8839050101.230986,378891.4285714286, 5, 6,50,2369473.239781425,16,13,60
637,179197637289.17963,28346761.13587966,21,16,10,41250000.0, 1, 1,10
649,179197637289.17963,28346761.13587966,21,16,10,41250000.0, 1, 1,10
4,59, 2
11,9368960117.70349,99999999999999.0, 5, 6,50,3031288.010577559,22,15,30
23,872583996.6396251,99999999999999.0, 1, 1,10,-99999999999999.0, 1, 9,10
59,848160000.0,99999999999999.0, 1, 1,10,-99999999999999.0, 1, 8,10
521,8496376121.063895,99999999999999.0, 5, 6,50,2410934.680044547,22,15,30
637,158628950073.78946,26654998.81346495,23,12,10,-99999999999999.0, 1, 1,10
649,158628950073.78946,26654998.81346495,23,12,10,-99999999999999.0, 1, 1,10
4,90, 3
11,10999026185.605106,99999999999999.0, 5, 6,50,3253793.3469349304,27,15,40
23,923125196.4716067,99999999999999.0, 1, 1,10,-99999999999999.0, 1, 9,10
59,897480000.0,99999999999999.0, 1, 1,10,-99999999999999.0, 1, 8,10
521,10075900989.13348,0.0,27,15,50,2633440.016401918,27,15,40
637,163049952793.3978,0.0,27,15,50,-99999999999999.0, 1, 1,10
649,163049952793.3978,0.0,27,15,50,-99999999999999.0, 1, 1,10
4,120, 4
11,9608943888.636618,30000.0,11,19,10,3253804.0770063074,11,12,40
23,956386396.3035884,99999999999999.0, 1, 1,10,-99999999999999.0, 1, 9,10
59,929520000.0,99999999999999.0, 1, 1,10,-99999999999999.0, 1, 8,10
521,8652557492.333075,99999999999999.0,27,15,50,2637797.45385599,17, 8,10
637,122164857695.80228,99999999999999.0,27,15,50,-99999999999999.0, 1, 1,10
649,122164857695.80228,99999999999999.0,27,15,50,-99999999999999.0, 1, 1,10
4,151, 5
11,9049816103.276554,99999999999999.0,11,19,10,3254359.2763245427,20,11,60
23,998603595.9683508,99999999999999.0, 1, 1,10,636285.4538275386,28,13,10
59,970200000.0,99999999999999.0, 1, 1,10,-99999999999999.0, 1, 8,10
521,8051212507.308343,99999999999999.0,27,15,50,-99999999999999.0,17, 8,10
637,95668033634.66484,99999999999999.0,27,15,50,-99999999999999.0, 1, 1,10
649,95668033634.66484,99999999999999.0,27,15,50,-99999999999999.0, 1, 1,10
4,181, 6
11,6553215745.7221985,99999999999999.0,11,19,10,3256283.0674859006,24,17,60
23,881310286.6834661,99999999999999.0, 1, 1,10,-99999999999999.0,28,13,10
59,856800000.0,99999999999999.0, 1, 1,10,-99999999999999.0, 1, 8,10
521,5671905459.038744,99999999999999.0,27,15,50,-99999999999999.0,17, 8,10
637,45022052440.66535,99999999999999.0,27,15,50,-99999999999999.0, 1, 1,10
649,45022052440.66535,99999999999999.0,27,15,50,-99999999999999.0, 1, 1,10
4,212, 7
11,5544917382.199291,99999999999999.0,11,19,10,-99999999999999.0,24,17,60
23,998559882.0742579,99999999999999.0, 1, 1,10,-99999999999999.0,28,13,10
59,970200000.0,99999999999999.0, 1, 1,10,-99999999999999.0, 1, 8,10
521,4546357500.125039,99999999999999.0,27,15,50,2638653.461146674, 6,24,20
637,18242438560.972847,99999999999999.0,27,15,50,-99999999999999.0, 1, 1,10
649,18242438560.972847,99999999999999.0,27,15,50,-99999999999999.0, 1, 1,10
4,243, 8
11,5152634735.975724,99999999999999.0,11,19,10,-99999999999999.0,24,17,60
23,960984728.6927168,99999999999999.0, 1, 1,10,636383.5100282277,12,14,10
59,933840000.0,99999999999999.0, 1, 1,10,-99999999999999.0, 1, 8,10
521,4191650007.2829943,99999999999999.0,27,15,50,-99999999999999.0, 6,24,20
637,31543635786.906666,99999999999999.0,27,15,50,-99999999999999.0, 1, 1,10
649,31543635786.906666,99999999999999.0,27,15,50,-99999999999999.0, 1, 1,10
4,273, 9
11,7676155702.4354,99999999999999.0,11,19,10,3258290.561077788, 3,10,40
23,918805196.4716067,99999999999999.0, 1, 1,10,-99999999999999.0,12,14,10
59,893160000.0,99999999999999.0, 1, 1,10,-99999999999999.0, 1, 8,10
521,6757350505.963813,99999999999999.0,27,15,50,-99999999999999.0, 6,24,20
637,70654790864.78136,99999999999999.0,27,15,50,-99999999999999.0, 1, 1,10
649,70654790864.78136,99999999999999.0,27,15,50,-99999999999999.0, 1, 1,10
4,304,10
11,10716089163.487185,99999999999999.0,11,19,10,-99999999999999.0, 3,10,40
23,998305381.6494027,99999999999999.0, 1, 1,10,638138.8443656851,22,16,40
59,970200000.0,99999999999999.0, 1, 1,10,-99999999999999.0, 1, 8,10
521,9717783781.83782,99999999999999.0,27,15,50,-99999999999999.0, 6,24,20
637,130193042715.20116,99999999999999.0,27,15,50,-99999999999999.0, 1, 1,10
649,130193042715.20116,99999999999999.0,27,15,50,-99999999999999.0, 1, 1,10
4,334,11
11,10496579699.225069,99999999999999.0,11,19,10,-99999999999999.0, 3,10,40
23,918805196.4716067,99999999999999.0, 1, 1,10,-99999999999999.0,22,16,40
59,893160000.0,99999999999999.0, 1, 1,10,-99999999999999.0, 1, 8,10
521,9577774502.753475,99999999999999.0,27,15,50,-99999999999999.0, 6,24,20
637,148234835884.81815,99999999999999.0,27,15,50,-99999999999999.0, 1, 1,10
649,148234835884.81815,99999999999999.0,27,15,50,-99999999999999.0, 1, 1,10
4,365,12
11,10449657016.687378,99999999999999.0,11,19,10,-99999999999999.0, 3,10,40
23,960706396.3035884,99999999999999.0, 1, 1,10,-99999999999999.0,22,16,40
59,933840000.0,99999999999999.0, 1, 1,10,-99999999999999.0, 1, 8,10
521,9488950620.383821,99999999999999.0,27,15,50,-99999999999999.0, 6,24,20
637,180053097500.33618,99999999999999.0,27,15,50,-99999999999999.0, 1, 1,10
649,180053097500.33618,99999999999999.0,27,15,50,-99999999999999.0, 1, 1,10
5,365
13,105453333438.33606,30000.0, 4,11,19,10,3258290.561077788, 9, 3,10,40
25,11386463849.861809,30000.0, 1, 1, 1,10,638138.8443656851,10,22,16,40
61,11066760000.0,30000.0, 1, 1, 1,10,600000.0, 1, 1, 8,10
523,94066869588.46011,0.0, 3,27,15,50,2638653.461146674, 7, 6,24,20
639,1342653325240.5137,0.0, 3,27,15,50,41250000.0, 1, 1, 1,10
651,1342653325240.5137,0.0, 3,27,15,50,41250000.0, 1, 1, 1,10
1,RUN PERIOD 2,  41.98, -87.92,  -6.00, 201.00
4,1, 7
11,92994403.77491933,99999999999999.0,11,19,10,-99999999999999.0, 3,10,40
23,41901199.83198076,99999999999999.0, 1, 1,10,-99999999999999.0,22,16,40
59,40680000.0,99999999999999.0, 1, 1,10,-99999999999999.0, 1, 8,10
521,51093203.94293859,99999999999999.0,27,15,50,-99999999999999.0, 6,24,20
637,0.0,99999999999999.0,27,15,50,-99999999999999.0, 1, 1,10
649,0.0,99999999999999.0,27,15,50,-99999999999999.0, 1, 1,10
5,1
13,92994403.77491933,99999999999999.0, 4,11,19,10,-99999999999999.0, 9, 3,10,40
25,41901199.83198076,99999999999999.0, 1, 1, 1,10,-99999999999999.0,10,22,16,40
61,40680000.0,99999999999999.0, 1, 1, 1,10,-99999999999999.0, 1, 1, 8,10
523,51093203.94293859,99999999999999.0, 3,27,15,50,-99999999999999.0, 7, 6,24,20
639,0.0,99999999999999.0, 3,27,15,50,-99999999999999.0, 1, 1, 1,10
651,0.0,99999999999999.0, 3,27,15,50,-99999999999999.0, 1, 1, 1,10
End of Data
 Number of Records Written=          90
