Program Version,EnergyPlus, Version 24.2.0-94a887817b, YMD=2025.02.04 15:39
1,5,Environment Title[],Latitude[deg],Longitude[deg],Time Zone[],Elevation[m]
2,8,Day of Simulation[],Month[],Day of Month[],DST Indicator[1=yes 0=no],Hour[],StartMinute[],EndMinute[],DayType
3,5,Cumulative Day of Simulation[],Month[],Day of Month[],DST Indicator[1=yes 0=no],DayType  ! When Daily Report Variables Requested
4,2,Cumulative Days of Simulation[],Month[]  ! When Monthly Report Variables Requested
5,1,Cumulative Days of Simulation[] ! When Run Period Report Variables Requested
6,1,Calendar Year of Simulation[] ! When Annual Report Variables Requested
250,1,LIVING ZONE,Zone Air Temperature [C] !TimeStep,REPORTSCH
251,1,LIVING ZONE,Zone Air System Sensible Heating Energy [J] !TimeStep,REPORTSCH
336,1,LIVING ZONE,Zone Air System Sensible Cooling Energy [J] !TimeStep,REPORTSCH
385,1,LIVING ZONE,Zone Thermostat Heating Setpoint Temperature [C] !TimeStep,REPORTSCH
386,1,LIVING ZONE,Zone Thermostat Cooling Setpoint Temperature [C] !TimeStep,REPORTSCH
387,1,GARAGE ZONE,Zone Air Temperature [C] !TimeStep,REPORTSCH
388,1,GARAGE ZONE,Zone Air System Sensible Heating Energy [J] !TimeStep,REPORTSCH
425,1,GARAGE ZONE,Zone Air System Sensible Cooling Energy [J] !TimeStep,REPORTSCH
450,1,GARAGE ZONE,Zone Thermostat Heating Setpoint Temperature [C] !TimeStep,REPORTSCH
451,1,GARAGE ZONE,Zone Thermostat Cooling Setpoint Temperature [C] !TimeStep,REPORTSCH
452,1,ATTIC ZONE,Zone Air Temperature [C] !TimeStep,REPORTSCH
453,1,ATTIC ZONE,Zone Air System Sensible Heating Energy [J] !TimeStep,REPORTSCH
490,1,ATTIC ZONE,Zone Air System Sensible Cooling Energy [J] !TimeStep,REPORTSCH
515,1,ATTIC ZONE,Zone Thermostat Heating Setpoint Temperature [C] !TimeStep,REPORTSCH
516,1,ATTIC ZONE,Zone Thermostat Cooling Setpoint Temperature [C] !TimeStep,REPORTSCH
542,1,ACDXCOIL 1,Cooling Coil Total Cooling Energy [J] !TimeStep,REPORTSCH
592,1,HEAT PUMP DX HEATING COIL 1,Heating Coil Heating Energy [J] !TimeStep,REPORTSCH
632,1,SUPP HEATING COIL 1,Heating Coil Heating Energy [J] !TimeStep,REPORTSCH
686,1,TWOSPEED HEAT PUMP 1,Unitary System DX Coil Cycling Ratio [] !TimeStep,REPORTSCH
687,1,TWOSPEED HEAT PUMP 1,Unitary System DX Coil Speed Ratio [] !TimeStep,REPORTSCH
688,1,TWOSPEED HEAT PUMP 1,Unitary System DX Coil Speed Level [] !TimeStep,REPORTSCH
End of Data Dictionary
1,RUN PERIOD 1,  41.98, -87.92,  -6.00, 201.00
2,21, 1,21, 0, 1, 0.00,10.00,Monday
250,0.7265674769982529
251,37289210.85236535
336,0.0
385,22.638935392772282
386,28.110558425132204
387,-0.9138445555432603
388,0.0
425,0.0
450,0.0
451,0.0
452,-1.9392488453511902
453,0.0
490,0.0
515,0.0
516,0.0
542,0.0
592,4839743.985079642
632,32194361.580743052
686,1.0
687,1.0
688,2.0
2,21, 1,21, 0, 1,10.00,20.00,Monday
250,0.7267834401432883
251,37290598.51539859
336,0.0
385,22.638935392772282
386,28.110558425132204
387,-0.9222921844036366
388,0.0
425,0.0
450,0.0
451,0.0
452,-1.9212317926082643
453,0.0
490,0.0
515,0.0
516,0.0
542,0.0
592,4823801.676011796
632,32208021.666351564
686,1.0
687,1.0
688,2.0
2,21, 1,21, 0, 1,20.00,30.00,Monday
250,0.7261190485173766
251,37292612.26352416
336,0.0
385,22.638935392772282
386,28.110558425132204
387,-0.9319469963220609
388,0.0
425,0.0
450,0.0
451,0.0
452,-1.9180592445598952
453,0.0
490,0.0
515,0.0
516,0.0
542,0.0
592,4807858.162905219
632,32225505.006229516
686,1.0
687,1.0
688,2.0
2,21, 1,21, 0, 1,30.00,40.00,Monday
250,0.7256967420756234
251,37294453.14753859
336,0.0
385,22.638935392772282
386,28.110558425132204
387,-0.943014647884261
388,0.0
425,0.0
450,0.0
451,0.0
452,-1.930810534070233
453,0.0
490,0.0
515,0.0
516,0.0
542,0.0
592,4791913.445623511
632,32243420.92081803
686,1.0
687,1.0
688,2.0
2,21, 1,21, 0, 1,40.00,50.00,Monday
250,0.7252668944840598
251,37296300.94021732
336,0.0
385,22.638935392772282
386,28.110558425132204
387,-0.9556533962297158
388,0.0
425,0.0
450,0.0
451,0.0
452,-1.957884795039533
453,0.0
490,0.0
515,0.0
516,0.0
542,0.0
592,4775967.524030239
632,32261210.56521365
686,1.0
687,1.0
688,2.0
2,21, 1,21, 0, 1,50.00,60.00,Monday
250,0.7248204776451546
251,37298161.026169516
336,0.0
385,22.638935392772282
386,28.110558425132204
387,-0.9700525069849898
388,0.0
425,0.0
450,0.0
451,0.0
452,-1.9977117602145535
453,0.0
490,0.0
515,0.0
516,0.0
542,0.0
592,4760020.397988958
632,32279008.846177254
686,1.0
687,1.0
688,2.0
2,21, 1,21, 0, 2, 0.00,10.00,Monday
250,0.7243944615596333
251,37300010.12746254
336,0.0
385,22.638935392772282
386,28.110558425132204
387,-0.9855460065546167
388,0.0
425,0.0
450,0.0
451,0.0
452,-2.0442714066207337
453,0.0
490,0.0
515,0.0
516,0.0
542,0.0
592,4760020.397988958
632,32280868.921394307
686,1.0
687,1.0
688,2.0
2,21, 1,21, 0, 2,10.00,20.00,Monday
250,0.7239119001666433
251,37300385.562095486
336,0.0
385,22.638935392772282
386,28.110558425132204
387,-1.0012091670446166
388,0.0
425,0.0
450,0.0
451,0.0
452,-2.086849541347926
453,0.0
490,0.0
515,0.0
516,0.0
542,0.0
592,4760020.397988958
632,32281213.90957625
686,1.0
687,1.0
688,2.0
2,21, 1,21, 0, 2,20.00,30.00,Monday
250,0.7234237696820796
251,37300611.436219186
336,0.0
385,22.638935392772282
386,28.110558425132204
387,-1.016496720530756
388,0.0
425,0.0
450,0.0
451,0.0
452,-2.1182383761789305
453,0.0
490,0.0
515,0.0
516,0.0
542,0.0
592,4760020.397988958
632,32281436.78538939
686,1.0
687,1.0
688,2.0
2,21, 1,21, 0, 2,30.00,40.00,Monday
250,0.7229492955757164
251,37300872.59978129
336,0.0
385,22.638935392772282
386,28.110558425132204
387,-1.0310882402577735
388,0.0
425,0.0
450,0.0
451,0.0
452,-2.137622266475639
453,0.0
490,0.0
515,0.0
516,0.0
542,0.0
592,4760020.397988958
632,32281705.301921047
686,1.0
687,1.0
688,2.0
2,21, 1,21, 0, 2,40.00,50.00,Monday
250,0.7224840725923585
251,37301126.08765863
336,0.0
385,22.638935392772282
386,28.110558425132204
387,-1.0448416562909009
388,0.0
425,0.0
450,0.0
451,0.0
452,-2.14779494203931
453,0.0
490,0.0
515,0.0
516,0.0
542,0.0
592,4760020.397988958
632,32281963.77086445
686,1.0
687,1.0
688,2.0
2,21, 1,21, 0, 2,50.00,60.00,Monday
250,0.7220292275357393
251,37301370.75669195
336,0.0
385,22.638935392772282
386,28.110558425132204
387,-1.0577177162151965
388,0.0
425,0.0
450,0.0
451,0.0
452,-2.151882264384492
453,0.0
490,0.0
515,0.0
516,0.0
542,0.0
592,4760020.397988958
632,32282214.027691368
686,1.0
687,1.0
688,2.0
2,21, 1,21, 0, 3, 0.00,10.00,Monday
250,0.7987929704995281
251,37260038.72725539
336,0.0
385,22.638935392772282
386,28.110558425132204
387,-1.0593518847777583
388,0.0
425,0.0
450,0.0
451,0.0
452,-2.1444813333756483
453,0.0
490,0.0
515,0.0
516,0.0
542,0.0
592,4762558.894114006
632,32279920.34310768
686,1.0
687,1.0
688,2.0
2,21, 1,21, 0, 3,10.00,20.00,Monday
250,0.8814138802302809
251,37216977.52590158
336,0.0
385,22.638935392772282
386,28.110558425132204
387,-1.0484822477311424
388,0.0
425,0.0
450,0.0
451,0.0
452,-2.1196841465071325
453,0.0
490,0.0
515,0.0
516,0.0
542,0.0
592,4764988.4357309695
632,32237584.979891412
686,1.0
687,1.0
688,2.0
2,21, 1,21, 0, 3,20.00,30.00,Monday
250,0.9616695955525018
251,37175340.224160425
336,0.0
385,22.638935392772282
386,28.110558425132204
387,-1.0295512825036115
388,0.0
425,0.0
450,0.0
451,0.0
452,-2.075994412681565
453,0.0
490,0.0
515,0.0
516,0.0
542,0.0
592,4767308.250738333
632,32192356.154274568
686,1.0
687,1.0
688,2.0
2,21, 1,21, 0, 3,30.00,40.00,Monday
250,1.0422973223071423
251,37133469.000491396
336,0.0
385,22.638935392772282
386,28.110558425132204
387,-1.006358081040575
388,0.0
425,0.0
450,0.0
451,0.0
452,-2.0164853664921947
453,0.0
490,0.0
515,0.0
516,0.0
542,0.0
592,4769517.689516207
632,32148477.61640249
686,1.0
687,1.0
688,2.0
2,21, 1,21, 0, 3,40.00,50.00,Monday
250,1.1232181489576016
251,37091449.00361798
336,0.0
385,22.638935392772282
386,28.110558425132204
387,-0.9802114260759639
388,0.0
425,0.0
450,0.0
451,0.0
452,-1.945618810384476
453,0.0
490,0.0
515,0.0
516,0.0
542,0.0
592,4771616.115684973
632,32104518.854158092
686,1.0
687,1.0
688,2.0
2,21, 1,21, 0, 3,50.00,60.00,Monday
250,1.204275202563943
251,37049365.23763697
336,0.0
385,22.638935392772282
386,28.110558425132204
387,-0.9509410926870908
388,0.0
425,0.0
450,0.0
451,0.0
452,-1.8670251286648942
453,0.0
490,0.0
515,0.0
516,0.0
542,0.0
592,4773602.736238396
632,32060523.674685623
686,1.0
687,1.0
688,2.0
2,21, 1,21, 0, 4, 0.00,10.00,Monday
250,1.2081154932708293
251,37048874.13377198
336,0.0
385,22.638935392772282
386,28.110558425132204
387,-0.9290457468029698
388,0.0
425,0.0
450,0.0
451,0.0
452,-1.7909743801760845
453,0.0
490,0.0
515,0.0
516,0.0
542,0.0
592,4773428.982371633
632,32018621.967478078
686,1.0
687,1.0
688,2.0
2,21, 1,21, 0, 4,10.00,20.00,Monday
250,1.2061563310686272
251,37050077.309572555
336,0.0
385,22.638935392772282
386,28.110558425132204
387,-0.9170381314927117
388,0.0
425,0.0
450,0.0
451,0.0
452,-1.7264761798383166
453,0.0
490,0.0
515,0.0
516,0.0
542,0.0
592,4773255.169447958
632,32016875.571918838
686,1.0
687,1.0
688,2.0
2,21, 1,21, 0, 4,20.00,30.00,Monday
250,1.2066842959468842
251,37049795.60413828
336,0.0
385,22.638935392772282
386,28.110558425132204
387,-0.9113756730776849
388,0.0
425,0.0
450,0.0
451,0.0
452,-1.677166670182074
453,0.0
490,0.0
515,0.0
516,0.0
542,0.0
592,4773081.29743726
632,32018107.22248231
686,1.0
687,1.0
688,2.0
2,21, 1,21, 0, 4,30.00,40.00,Monday
250,1.2069564105994173
251,37049692.2411748
336,0.0
385,22.638935392772282
386,28.110558425132204
387,-0.9083086957792094
388,0.0
425,0.0
450,0.0
451,0.0
452,-1.6414471394102839
453,0.0
490,0.0
515,0.0
516,0.0
542,0.0
592,4772907.3663094025
632,32018039.998381276
686,1.0
687,1.0
688,2.0
2,21, 1,21, 0, 4,40.00,50.00,Monday
250,1.2070647798783611
251,37049674.54432649
336,0.0
385,22.638935392772282
386,28.110558425132204
387,-0.9062274451481414
388,0.0
425,0.0
450,0.0
451,0.0
452,-1.6158029657756348
453,0.0
490,0.0
515,0.0
516,0.0
542,0.0
592,4772733.376034233
632,32018108.103948243
686,1.0
687,1.0
688,2.0
2,21, 1,21, 0, 4,50.00,60.00,Monday
250,1.2071914934319132
251,37049643.90814292
336,0.0
385,22.638935392772282
386,28.110558425132204
387,-0.904930994125739
388,0.0
425,0.0
450,0.0
451,0.0
452,-1.597009790826756
453,0.0
490,0.0
515,0.0
516,0.0
542,0.0
592,4772559.326581573
632,32018261.39692615
686,1.0
687,1.0
688,2.0
2,21, 1,21, 0, 5, 0.00,10.00,Monday
250,1.207317973897928
251,37049613.544100344
336,0.0
385,22.638935392772282
386,28.110558425132204
387,-0.9044218162189421
388,0.0
425,0.0
450,0.0
451,0.0
452,-1.5823382836586646
453,0.0
490,0.0
515,0.0
516,0.0
542,0.0
592,4759720.858689582
632,32031069.37531137
686,1.0
687,1.0
688,2.0
2,21, 1,21, 0, 5,10.00,20.00,Monday
250,1.2074964358767117
251,37050725.880570166
336,0.0
385,22.638935392772282
386,28.110558425132204
387,-0.9045693333861539
388,0.0
425,0.0
450,0.0
451,0.0
452,-1.5695144524693736
453,0.0
490,0.0
515,0.0
516,0.0
542,0.0
592,4746877.262331866
632,32045053.30691095
686,1.0
687,1.0
688,2.0
2,21, 1,21, 0, 5,20.00,30.00,Monday
250,1.207686550156518
251,37051951.25654575
336,0.0
385,22.638935392772282
386,28.110558425132204
387,-0.9051722389809292
388,0.0
425,0.0
450,0.0
451,0.0
452,-1.5571935202093603
453,0.0
490,0.0
515,0.0
516,0.0
542,0.0
592,4734028.534436011
632,32059133.6902259
686,1.0
687,1.0
688,2.0
2,21, 1,21, 0, 5,30.00,40.00,Monday
250,1.207877308407773
251,37053143.64269049
336,0.0
385,22.638935392772282
386,28.110558425132204
387,-0.9060457502905233
388,0.0
425,0.0
450,0.0
451,0.0
452,-1.544960548602224
453,0.0
490,0.0
515,0.0
516,0.0
542,0.0
592,4721174.671927155
632,32073180.28931771
686,1.0
687,1.0
688,2.0
2,21, 1,21, 0, 5,40.00,50.00,Monday
250,1.208072717518838
251,37054336.12496213
336,0.0
385,22.638935392772282
386,28.110558425132204
387,-0.9070583653048626
388,0.0
425,0.0
450,0.0
451,0.0
452,-1.5328753155323547
453,0.0
490,0.0
515,0.0
516,0.0
542,0.0
592,4708315.671727969
632,32087234.280543316
686,1.0
687,1.0
688,2.0
2,21, 1,21, 0, 5,50.00,60.00,Monday
250,1.2082755235701828
251,37055527.64714943
336,0.0
385,22.638935392772282
386,28.110558425132204
387,-0.9081284273864362
388,0.0
425,0.0
450,0.0
451,0.0
452,-1.5210768958461118
453,0.0
490,0.0
515,0.0
516,0.0
542,0.0
592,4695451.530758674
632,32101293.931849767
686,1.0
687,1.0
688,2.0
2,21, 1,21, 0, 6, 0.00,10.00,Monday
250,1.2085026879313876
251,37056706.448802166
336,0.0
385,22.638935392772282
386,28.110558425132204
387,-0.9093369824306489
388,0.0
425,0.0
450,0.0
451,0.0
452,-1.5102426225674148
453,0.0
490,0.0
515,0.0
516,0.0
542,0.0
592,4695264.082255858
632,32102673.307212036
686,1.0
687,1.0
688,2.0
2,21, 1,21, 0, 6,10.00,20.00,Monday
250,1.2086714044230606
251,37056745.02136555
336,0.0
385,22.638935392772282
386,28.110558425132204
387,-0.9107632214647287
388,0.0
425,0.0
450,0.0
451,0.0
452,-1.5011925489881313
453,0.0
490,0.0
515,0.0
516,0.0
542,0.0
592,4695076.569900009
632,32102867.907663178
686,1.0
687,1.0
688,2.0
2,21, 1,21, 0, 6,20.00,30.00,Monday
250,1.2088294677590357
251,37056670.349790074
336,0.0
385,22.638935392772282
386,28.110558425132204
387,-0.9123997847197058
388,0.0
425,0.0
450,0.0
451,0.0
452,-1.4942647997203489
453,0.0
490,0.0
515,0.0
516,0.0
542,0.0
592,4694888.993658494
632,32102975.07367542
686,1.0
687,1.0
688,2.0
2,21, 1,21, 0, 6,30.00,40.00,Monday
250,1.2089917695300905
251,37056626.59672179
336,0.0
385,22.638935392772282
386,28.110558425132204
387,-0.9142044236187415
388,0.0
425,0.0
450,0.0
451,0.0
452,-1.4892490589275356
453,0.0
490,0.0
515,0.0
516,0.0
542,0.0
592,4694701.353498662
632,32103121.244045176
686,1.0
687,1.0
688,2.0
2,21, 1,21, 0, 6,40.00,50.00,Monday
250,1.209156592195148
251,37056579.40717603
336,0.0
385,22.638935392772282
386,28.110558425132204
387,-0.9161454361982114
388,0.0
425,0.0
450,0.0
451,0.0
452,-1.4856919650160993
453,0.0
490,0.0
515,0.0
516,0.0
542,0.0
592,4694513.649387832
632,32103263.116675586
686,1.0
687,1.0
688,2.0
2,21, 1,21, 0, 6,50.00,60.00,Monday
250,1.209324815872931
251,37056527.88229856
336,0.0
385,22.638935392772282
386,28.110558425132204
387,-0.9182058837531434
388,0.0
425,0.0
450,0.0
451,0.0
452,-1.4831729374751887
453,0.0
490,0.0
515,0.0
516,0.0
542,0.0
592,4694325.88129331
632,32103401.192061983
686,1.0
687,1.0
688,2.0
2,21, 1,21, 0, 7, 0.00,10.00,Monday
250,1.2053687806836515
251,37058698.16084739
336,0.0
385,22.638935392772282
386,28.110558425132204
387,-0.9228241461331467
388,0.0
425,0.0
450,0.0
451,0.0
452,-1.4865381552338957
453,0.0
490,0.0
515,0.0
516,0.0
542,0.0
592,4723573.583255435
632,32074102.08862533
686,1.0
687,1.0
688,2.0
2,21, 1,21, 0, 7,10.00,20.00,Monday
250,1.2052457509254604
251,37056101.446830854
336,0.0
385,22.638935392772282
386,28.110558425132204
387,-0.9321578087917316
388,0.0
425,0.0
450,0.0
451,0.0
452,-1.5052280436757866
453,0.0
490,0.0
515,0.0
516,0.0
542,0.0
592,4752837.186047653
632,32044306.56257755
686,1.0
687,1.0
688,2.0
2,21, 1,21, 0, 7,20.00,30.00,Monday
250,1.2055711709167598
251,37052987.97902923
336,0.0
385,22.638935392772282
386,28.110558425132204
387,-0.9464059706633651
388,0.0
425,0.0
450,0.0
451,0.0
452,-1.5446483456676139
453,0.0
490,0.0
515,0.0
516,0.0
542,0.0
592,4782116.702651945
632,32012155.120473
686,1.0
687,1.0
688,2.0
2,21, 1,21, 0, 7,30.00,40.00,Monday
250,1.2057582020467135
251,37050024.06384315
336,0.0
385,22.638935392772282
386,28.110558425132204
387,-0.9645850526038646
388,0.0
425,0.0
450,0.0
451,0.0
452,-1.6025222596952216
453,0.0
490,0.0
515,0.0
516,0.0
542,0.0
592,4811412.146064443
632,31979821.21722876
686,1.0
687,1.0
688,2.0
2,21, 1,21, 0, 7,40.00,50.00,Monday
250,1.2059549527182933
251,37047048.536298394
336,0.0
385,22.638935392772282
386,28.110558425132204
387,-0.9856183674149972
388,0.0
425,0.0
450,0.0
451,0.0
452,-1.6725884811943685
453,0.0
490,0.0
515,0.0
516,0.0
542,0.0
592,4840723.52929546
632,31947539.532830246
686,1.0
687,1.0
688,2.0
2,21, 1,21, 0, 7,50.00,60.00,Monday
250,1.206166600385399
251,37044057.64682202
336,0.0
385,22.638935392772282
386,28.110558425132204
387,-1.008782282384208
388,0.0
425,0.0
450,0.0
451,0.0
452,-1.7491067003197178
453,0.0
490,0.0
515,0.0
516,0.0
542,0.0
592,4870050.865369482
632,31915229.320776094
686,1.0
687,1.0
688,2.0
2,21, 1,21, 0, 8, 0.00,10.00,Monday
250,1.4078086256664584
251,36932607.80181841
336,0.0
385,22.638935392772282
386,28.110558425132204
387,-1.0049407770155787
388,0.0
425,0.0
450,0.0
451,0.0
452,-1.8081660086912548
453,0.0
490,0.0
515,0.0
516,0.0
542,0.0
592,4889730.300311493
632,31892557.700213406
686,1.0
687,1.0
688,2.0
2,21, 1,21, 0, 8,10.00,20.00,Monday
250,1.6094677140194737
251,36825978.00465947
336,0.0
385,22.638935392772282
386,28.110558425132204
387,-0.9636234476027706
388,0.0
425,0.0
450,0.0
451,0.0
452,-1.7997626434875784
453,0.0
490,0.0
515,0.0
516,0.0
542,0.0
592,4909380.719869504
632,31766292.423743322
686,1.0
687,1.0
688,2.0
2,21, 1,21, 0, 8,20.00,30.00,Monday
250,1.8028031598626773
251,36724317.88171079
336,0.0
385,22.638935392772282
386,28.110558425132204
387,-0.8922151199251723
388,0.0
425,0.0
450,0.0
451,0.0
452,-1.6930476178402811
453,0.0
490,0.0
515,0.0
516,0.0
542,0.0
592,4929009.6156952735
632,31640528.33615556
686,1.0
687,1.0
688,2.0
2,21, 1,21, 0, 8,30.00,40.00,Monday
250,1.998055005034201
251,36621488.86021882
336,0.0
385,22.638935392772282
386,28.110558425132204
387,-0.8006685001464943
388,0.0
425,0.0
450,0.0
451,0.0
452,-1.499685371990532
453,0.0
490,0.0
515,0.0
516,0.0
542,0.0
592,4952863.6467726575
632,31514883.91364555
686,1.0
687,1.0
688,2.0
2,21, 1,21, 0, 8,40.00,50.00,Monday
250,2.194332876641068
251,36517736.00299987
336,0.0
385,22.638935392772282
386,28.110558425132204
387,-0.6977066055983566
388,0.0
425,0.0
450,0.0
451,0.0
452,-1.2220154461932675
453,0.0
490,0.0
515,0.0
516,0.0
542,0.0
592,4977062.298687916
632,31387490.600761946
686,1.0
687,1.0
688,2.0
2,21, 1,21, 0, 8,50.00,60.00,Monday
250,2.3932113032098714
251,36413440.09593627
336,0.0
385,22.638935392772282
386,28.110558425132204
387,-0.6011147600699868
388,0.0
425,0.0
450,0.0
451,0.0
452,-0.9068050899763107
453,0.0
490,0.0
515,0.0
516,0.0
542,0.0
592,5001395.306277512
632,31209658.622640148
686,1.0
687,1.0
688,2.0
2,21, 1,21, 0, 9, 0.00,10.00,Monday
250,2.6543714859684497
251,36276572.422730014
336,0.0
385,22.638935392772282
386,28.110558425132204
387,-0.46199849996062303
388,0.0
425,0.0
450,0.0
451,0.0
452,-0.42565768767427
453,0.0
490,0.0
515,0.0
516,0.0
542,0.0
592,5029363.153609448
632,31061981.84757744
686,1.0
687,1.0
688,2.0
2,21, 1,21, 0, 9,10.00,20.00,Monday
250,2.9154670896759787
251,36138904.85106066
336,0.0
385,22.638935392772282
386,28.110558425132204
387,-0.3104838574692152
388,0.0
425,0.0
450,0.0
451,0.0
452,0.09887013406723852
453,0.0
490,0.0
515,0.0
516,0.0
542,0.0
592,5057356.862312016
632,30896104.966961302
686,1.0
687,1.0
688,2.0
2,21, 1,21, 0, 9,20.00,30.00,Monday
250,3.17682039713807
251,36001079.55353169
336,0.0
385,22.638935392772282
386,28.110558425132204
387,-0.15050348686136095
388,0.0
425,0.0
450,0.0
451,0.0
452,0.6636018789720094
453,0.0
490,0.0
515,0.0
516,0.0
542,0.0
592,5085392.284952975
632,30730330.303423844
686,1.0
687,1.0
688,2.0
2,21, 1,21, 0, 9,30.00,40.00,Monday
250,3.4378413259945155
251,35863433.705216974
336,0.0
385,22.638935392772282
386,28.110558425132204
387,0.01908225759320369
388,0.0
425,0.0
450,0.0
451,0.0
452,1.2583255603788697
453,0.0
490,0.0
515,0.0
516,0.0
542,0.0
592,5113485.892141593
632,30564497.103574574
686,1.0
687,1.0
688,2.0
2,21, 1,21, 0, 9,40.00,50.00,Monday
250,3.700366623516822
251,35724094.73946843
336,0.0
385,22.6389353927723
386,28.110558425132226
387,0.16394862158620216
388,0.0
425,0.0
450,0.0
451,0.0
452,1.760939539741246
453,0.0
490,0.0
515,0.0
516,0.0
542,0.0
592,5141654.529350725
632,30371601.29641696
686,1.0000000000000009
687,1.0000000000000009
688,2.0000000000000018
2,21, 1,21, 0, 9,50.00,60.00,Monday
250,3.9619448762552953
251,35585583.94900801
336,0.0
385,22.638935392772282
386,28.110558425132204
387,0.3160020668307947
388,0.0
425,0.0
450,0.0
451,0.0
452,2.302251795121715
453,0.0
490,0.0
515,0.0
516,0.0
542,0.0
592,5169915.672059796
632,30231115.499536186
686,1.0
687,1.0
688,2.0
2,21, 1,21, 0,10, 0.00,10.00,Monday
250,4.410094395864087
251,35347881.66774052
336,0.0
385,22.638935392772282
386,28.110558425132204
387,0.5063121082745585
388,0.0
425,0.0
450,0.0
451,0.0
452,2.8625173306286795
453,0.0
490,0.0
515,0.0
516,0.0
542,0.0
592,5241404.10703412
632,29929861.20641072
686,1.0
687,1.0
688,2.0
2,21, 1,21, 0,10,10.00,20.00,Monday
250,4.861121420976365
251,35109162.28745437
336,0.0
385,22.638935392772282
386,28.110558425132204
387,0.7974464218450894
388,0.0
425,0.0
450,0.0
451,0.0
452,3.617594750998535
453,0.0
490,0.0
515,0.0
516,0.0
542,0.0
592,5315291.857316207
632,29617274.312571675
686,1.0
687,1.0
688,2.0
2,21, 1,21, 0,10,20.00,30.00,Monday
250,5.3144170114129015
251,34868019.1641845
336,0.0
385,22.638935392772275
386,28.11055842513219
387,1.078069055347047
388,0.0
425,0.0
450,0.0
451,0.0
452,4.307593866358732
453,0.0
490,0.0
515,0.0
516,0.0
542,0.0
592,5391793.298050373
632,29300078.04802128
686,0.9999999999999996
687,0.9999999999999996
688,1.9999999999999991
2,21, 1,21, 0,10,30.00,40.00,Monday
250,5.768729644446611
251,34626199.4142669
336,0.0
385,22.638935392772293
386,28.11055842513221
387,1.3600220478067566
388,0.0
425,0.0
450,0.0
451,0.0
452,5.008017726255665
453,0.0
490,0.0
515,0.0
516,0.0
542,0.0
592,5471132.199313744
632,28979145.69342146
686,1.0000000000000004
687,1.0000000000000004
688,2.000000000000001
2,21, 1,21, 0,10,40.00,50.00,Monday
250,6.224367138724146
251,34383527.90357803
336,0.0
385,22.6389353927723
386,28.110558425132226
387,1.650307150505295
388,0.0
425,0.0
450,0.0
451,0.0
452,5.7719736625187625
453,0.0
490,0.0
515,0.0
516,0.0
542,0.0
592,5553542.375759331
632,28654352.090319633
686,1.0000000000000009
687,1.0000000000000009
688,2.0000000000000018
2,21, 1,21, 0,10,50.00,60.00,Monday
250,6.680113995111837
251,34140653.541342214
336,0.0
385,22.6389353927723
386,28.110558425132226
387,1.9506546725651437
388,0.0
425,0.0
450,0.0
451,0.0
452,6.601472016640923
453,0.0
490,0.0
515,0.0
516,0.0
542,0.0
592,5639267.778995938
632,28325819.61634828
686,1.0000000000000009
687,1.0000000000000009
688,2.0000000000000018
2,21, 1,21, 0,11, 0.00,10.00,Monday
250,6.963966449978986
251,33989606.30506172
336,0.0
385,22.638935392772282
386,28.110558425132204
387,2.2372666681204287
388,0.0
425,0.0
450,0.0
451,0.0
452,7.456816231171349
453,0.0
490,0.0
515,0.0
516,0.0
542,0.0
592,5689519.861596226
632,28093108.618957184
686,1.0
687,1.0
688,2.0
2,21, 1,21, 0,11,10.00,20.00,Monday
250,7.24484140710109
251,33840061.02508453
336,0.0
385,22.638935392772282
386,28.110558425132204
387,2.5070880938260736
388,0.0
425,0.0
450,0.0
451,0.0
452,8.307504521887342
453,0.0
490,0.0
515,0.0
516,0.0
542,0.0
592,5740969.350869594
632,27891506.339691535
686,1.0
687,1.0
688,2.0
2,21, 1,21, 0,11,20.00,30.00,Monday
250,7.525703638000244
251,33690479.342229776
336,0.0
385,22.638935392772275
386,28.11055842513219
387,2.7792613159537396
388,0.0
425,0.0
450,0.0
451,0.0
452,9.154282987016574
453,0.0
490,0.0
515,0.0
516,0.0
542,0.0
592,5793671.0952822175
632,27689238.97317162
686,0.9999999999999996
687,0.9999999999999996
688,1.9999999999999991
2,21, 1,21, 0,11,30.00,40.00,Monday
250,7.805124162919068
251,33541621.61523957
336,0.0
385,22.638935392772293
386,28.11055842513221
387,3.0565927226973617
388,0.0
425,0.0
450,0.0
451,0.0
452,9.97693387770461
453,0.0
490,0.0
515,0.0
516,0.0
542,0.0
592,5847681.427966583
632,27486123.89127332
686,1.0000000000000004
687,1.0000000000000004
688,2.000000000000001
2,21, 1,21, 0,11,40.00,50.00,Monday
250,8.08386246023255
251,33393078.937619124
336,0.0
385,22.6389353927723
386,28.110558425132226
387,3.3356823092221584
388,0.0
425,0.0
450,0.0
451,0.0
452,10.722228857090652
453,0.0
490,0.0
515,0.0
516,0.0
542,0.0
592,5903058.082199926
632,27282096.138601944
686,1.0000000000000009
687,1.0000000000000009
688,2.0000000000000018
2,21, 1,21, 0,11,50.00,60.00,Monday
250,8.361709904574571
251,33244962.476578772
336,0.0
385,22.6389353927723
386,28.110558425132226
387,3.6126773433315065
388,0.0
425,0.0
450,0.0
451,0.0
452,11.35734999071869
453,0.0
490,0.0
515,0.0
516,0.0
542,0.0
592,5959860.237244541
632,27077031.40587723
686,1.0000000000000009
687,1.0000000000000009
688,2.0000000000000018
2,21, 1,21, 0,12, 0.00,10.00,Monday
250,8.627293672138354
251,33103299.27621399
336,0.0
385,22.638935392772282
386,28.110558425132204
387,3.852584312849004
388,0.0
425,0.0
450,0.0
451,0.0
452,11.856698507827407
453,0.0
490,0.0
515,0.0
516,0.0
542,0.0
592,5991096.197635707
632,26928813.76788678
686,1.0
687,1.0
688,2.0
2,21, 1,21, 0,12,10.00,20.00,Monday
250,8.886491056707992
251,32968517.78112023
336,0.0
385,22.638935392772282
386,28.110558425132204
387,4.14492613173002
388,0.0
425,0.0
450,0.0
451,0.0
452,12.42062712177491
453,0.0
490,0.0
515,0.0
516,0.0
542,0.0
592,7572016.881221028
632,25210549.340690903
686,1.0
687,1.0
688,2.0
2,21, 1,21, 0,12,20.00,30.00,Monday
250,9.149319834106379
251,32830146.65860838
336,0.0
385,22.638935392772282
386,28.110558425132204
387,4.414024969846258
388,0.0
425,0.0
450,0.0
451,0.0
452,12.936554488528063
453,0.0
490,0.0
515,0.0
516,0.0
542,0.0
592,7609409.155487606
632,25035665.19571948
686,1.0
687,1.0
688,2.0
2,21, 1,21, 0,12,30.00,40.00,Monday
250,9.411304143394785
251,32692236.611752156
336,0.0
385,22.638935392772282
386,28.110558425132204
387,4.672806603886118
388,0.0
425,0.0
450,0.0
451,0.0
452,13.42760437946012
453,0.0
490,0.0
515,0.0
516,0.0
542,0.0
592,7646583.592010484
632,24860354.22093772
686,1.0
687,1.0
688,2.0
2,21, 1,21, 0,12,40.00,50.00,Monday
250,9.673099711182083
251,32554427.539082117
336,0.0
385,22.638935392772282
386,28.110558425132204
387,4.927199922251127
388,0.0
425,0.0
450,0.0
451,0.0
452,13.86917020766199
453,0.0
490,0.0
515,0.0
516,0.0
542,0.0
592,7683540.190789655
632,24685534.22680293
686,1.0
687,1.0
688,2.0
2,21, 1,21, 0,12,50.00,60.00,Monday
250,9.934772270597758
251,32416684.07786733
336,0.0
385,22.638935392772282
386,28.110558425132204
387,5.17611609637807
388,0.0
425,0.0
450,0.0
451,0.0
452,14.237126172817431
453,0.0
490,0.0
515,0.0
516,0.0
542,0.0
592,7720278.951825122
632,24511017.53885275
686,1.0
687,1.0
688,2.0
2,21, 1,21, 0,13, 0.00,10.00,Monday
250,10.1159223680644
251,32319326.201724663
336,0.0
385,22.638935392772282
386,28.110558425132204
387,5.408462149818031
388,0.0
425,0.0
450,0.0
451,0.0
452,14.528415425917185
453,0.0
490,0.0
515,0.0
516,0.0
542,0.0
592,7745410.487127082
632,24403560.021241054
686,1.0
687,1.0
688,2.0
2,21, 1,21, 0,13,10.00,20.00,Monday
250,10.29501424468966
251,32226364.742177837
336,0.0
385,22.638935392772282
386,28.110558425132204
387,5.62718308106738
388,0.0
425,0.0
450,0.0
451,0.0
452,14.757570672726859
453,0.0
490,0.0
515,0.0
516,0.0
542,0.0
592,7770439.060057994
632,24293700.889767714
686,1.0
687,1.0
688,2.0
2,21, 1,21, 0,13,20.00,30.00,Monday
250,10.476864186411555
251,32132291.85981799
336,0.0
385,22.638935392772282
386,28.110558425132204
387,5.832011897728922
388,0.0
425,0.0
450,0.0
451,0.0
452,14.940672812040106
453,0.0
490,0.0
515,0.0
516,0.0
542,0.0
592,7795364.670617863
632,24176203.562479705
686,1.0
687,1.0
688,2.0
2,21, 1,21, 0,13,30.00,40.00,Monday
250,10.658160377426277
251,32038547.129028127
336,0.0
385,22.638935392772282
386,28.110558425132204
387,6.026969094275634
388,0.0
425,0.0
450,0.0
451,0.0
452,15.089620275105295
453,0.0
490,0.0
515,0.0
516,0.0
542,0.0
592,7820187.318806683
632,24057349.852751713
686,1.0
687,1.0
688,2.0
2,21, 1,21, 0,13,40.00,50.00,Monday
250,10.839211972492576
251,31944966.65484957
336,0.0
385,22.638935392772282
386,28.110558425132204
387,6.215802957467311
388,0.0
425,0.0
450,0.0
451,0.0
452,15.208852200275143
453,0.0
490,0.0
515,0.0
516,0.0
542,0.0
592,7844907.004624449
632,23938930.394201346
686,1.0
687,1.0
688,2.0
2,21, 1,21, 0,13,50.00,60.00,Monday
250,11.020209912380272
251,31851448.039868046
336,0.0
385,22.638935392772282
386,28.110558425132204
387,6.399816055311685
388,0.0
425,0.0
450,0.0
451,0.0
452,15.30207142561723
453,0.0
490,0.0
515,0.0
516,0.0
542,0.0
592,7869523.72807117
632,23820779.0174367
686,1.0
687,1.0
688,2.0
2,21, 1,21, 0,14, 0.00,10.00,Monday
250,11.219528225915221
251,31748066.647094797
336,0.0
385,22.638935392772282
386,28.110558425132204
387,6.581837618319003
388,0.0
425,0.0
450,0.0
451,0.0
452,15.357912303543035
453,0.0
490,0.0
515,0.0
516,0.0
542,0.0
592,7896260.907308879
632,23700568.62073441
686,1.0
687,1.0
688,2.0
2,21, 1,21, 0,14,10.00,20.00,Monday
250,11.416794650322807
251,31645442.69306715
336,0.0
385,22.638935392772282
386,28.110558425132204
387,6.761994621577805
388,0.0
425,0.0
450,0.0
451,0.0
452,15.358074276765274
453,0.0
490,0.0
515,0.0
516,0.0
542,0.0
592,7922875.552815757
632,23570234.9771144
686,1.0
687,1.0
688,2.0
2,21, 1,21, 0,14,20.00,30.00,Monday
250,11.613208506888432
251,31543249.58304482
336,0.0
385,22.638935392772282
386,28.110558425132204
387,6.938134268398077
388,0.0
425,0.0
450,0.0
451,0.0
452,15.302116963641167
453,0.0
490,0.0
515,0.0
516,0.0
542,0.0
592,7949367.664591796
632,23441102.354239628
686,1.0
687,1.0
688,2.0
2,21, 1,21, 0,14,30.00,40.00,Monday
250,11.809086084781981
251,31441377.030621298
336,0.0
385,22.638935392772282
386,28.110558425132204
387,7.104315085437081
388,0.0
425,0.0
450,0.0
451,0.0
452,15.179543281971107
453,0.0
490,0.0
515,0.0
516,0.0
542,0.0
592,7975737.242637003
632,23312583.79597894
686,1.0
687,1.0
688,2.0
2,21, 1,21, 0,14,40.00,50.00,Monday
250,12.004436773819469
251,31339810.731150948
336,0.0
385,22.638935392772282
386,28.110558425132204
387,7.256844699777316
388,0.0
425,0.0
450,0.0
451,0.0
452,14.97065860833314
453,0.0
490,0.0
515,0.0
516,0.0
542,0.0
592,8001984.286951372
632,23184499.187783152
686,1.0
687,1.0
688,2.0
2,21, 1,21, 0,14,50.00,60.00,Monday
250,12.199337691458314
251,31238508.607205436
336,0.0
385,22.638935392772282
386,28.110558425132204
387,7.396010766292205
388,0.0
425,0.0
450,0.0
451,0.0
452,14.678548182610896
453,0.0
490,0.0
515,0.0
516,0.0
542,0.0
592,8028108.797534915
632,23056843.05634404
686,1.0
687,1.0
688,2.0
2,21, 1,21, 0,15, 0.00,10.00,Monday
250,12.458026084612289
251,31103514.860048927
336,0.0
385,22.638935392772282
386,28.110558425132204
387,7.516826346586415