Program Version,EnergyPlus, Version 24.2.0-94a887817b, YMD=2025.02.04 15:39
1,5,Environment Title[],Latitude[deg],Longitude[deg],Time Zone[],Elevation[m]
2,8,Day of Simulation[],Month[],Day of Month[],DST Indicator[1=yes 0=no],Hour[],StartMinute[],EndMinute[],DayType
3,5,Cumulative Day of Simulation[],Month[],Day of Month[],DST Indicator[1=yes 0=no],DayType  ! When Daily Meters Requested
4,2,Cumulative Days of Simulation[],Month[]  ! When Monthly Meters Requested
5,1,Cumulative Days of Simulation[] ! When Run Period Meters Requested
6,1,Calendar Year of Simulation[] ! When Annual Meters Requested
11,9,Electricity:Facility [J] !Monthly [Value,Min,Day,Hour,Minute,Max,Day,Hour,Minute]
23,9,Electricity:Building [J] !Monthly [Value,Min,Day,Hour,Minute,Max,Day,Hour,Minute]
59,9,InteriorLights:Electricity [J] !Monthly [Value,Min,Day,Hour,Minute,Max,Day,Hour,Minute]
521,9,Electricity:HVAC [J] !Monthly [Value,Min,Day,Hour,Minute,Max,Day,Hour,Minute]
637,9,NaturalGas:Facility [J] !Monthly [Value,Min,Day,Hour,Minute,Max,Day,Hour,Minute]
649,9,NaturalGas:HVAC [J] !Monthly [Value,Min,Day,Hour,Minute,Max,Day,Hour,Minute]
13,11,Electricity:Facility [J] !RunPeriod [Value,Min,Month,Day,Hour,Minute,Max,Month,Day,Hour,Minute]
25,11,Electricity:Building [J] !RunPeriod [Value,Min,Month,Day,Hour,Minute,Max,Month,Day,Hour,Minute]
61,11,InteriorLights:Electricity [J] !RunPeriod [Value,Min,Month,Day,Hour,Minute,Max,Month,Day,Hour,Minute]
523,11,Electricity:HVAC [J] !RunPeriod [Value,Min,Month,Day,Hour,Minute,Max,Month,Day,Hour,Minute]
639,11,NaturalGas:Facility [J] !RunPeriod [Value,Min,Month,Day,Hour,Minute,Max,Month,Day,Hour,Minute]
651,11,NaturalGas:HVAC [J] !RunPeriod [Value,Min,Month,Day,Hour,Minute,Max,Month,Day,Hour,Minute]
End of Data Dictionary
1,RUN PERIOD 1,  41.98, -87.92,  -6.00, 201.00
4,31, 1
11,9814255801.82816,408891.4285714286, 5, 6,50,2973100.559054729,16,13,60
23,975205700.5971841,30000.0, 1, 1,10,603627.3192733045, 1, 9,10
59,970200000.0,30000.0, 1, 1,10,600000.0, 1, 8,10
521,8839050101.230986,378891.4285714286, 5, 6,50,2369473.239781425,16,13,60
637,177227016838.34534,27433411.267828934,21,16,10,41250000.0, 1, 1,20
649,177227016838.34534,27433411.267828934,21,16,10,41250000.0, 1, 1,20
4,59, 2
11,9348888904.191826,99999999999999.0, 5, 6,50,3014561.9993178514,22,15,30
23,852512783.1279813,99999999999999.0, 1, 1,10,-99999999999999.0, 1, 9,10
59,848160000.0,99999999999999.0, 1, 1,10,-99999999999999.0, 1, 8,10
521,8496376121.063895,99999999999999.0, 5, 6,50,2410934.680044547,22,15,30
637,156165989884.64862,25772720.930844028,23,12,10,-99999999999999.0, 1, 1,20
649,156165989884.64862,25772720.930844028,23,12,10,-99999999999999.0, 1, 1,20
4,90, 3
11,11012381588.764578,99999999999999.0, 5, 6,50,3384170.1782695353,27,16,10
23,907513515.6650223,99999999999999.0, 1, 1,10,688281.7557884291,26,14,60
59,897480000.0,99999999999999.0, 1, 1,10,-99999999999999.0, 1, 8,10
521,10104868073.099613,99999999999999.0, 5, 6,50,2704202.4218124826,27,16,10
637,159032738751.72705,20189912.77036693,27,16,10,-99999999999999.0, 1, 1,20
649,159032738751.72705,20189912.77036693,27,16,10,-99999999999999.0, 1, 1,20
4,120, 4
11,9898825210.825338,30000.0,11,19,10,-99999999999999.0,27,16,10
23,957609744.1095496,99999999999999.0, 1, 1,10,-99999999999999.0,26,14,60
59,929520000.0,99999999999999.0, 1, 1,10,-99999999999999.0, 1, 8,10
521,8941215466.71584,0.0,11,14,20,2705407.8842124557,11,14,10
637,120914192372.70892,0.0,11,14,20,-99999999999999.0, 1, 1,20
649,120914192372.70892,0.0,11,14,20,-99999999999999.0, 1, 1,20
4,151, 5
11,9605623555.030615,99999999999999.0,11,19,10,3384683.8561178446,10,13,20
23,1025311858.5759627,99999999999999.0, 1, 1,10,695770.838515479,13,14,10
59,970200000.0,99999999999999.0, 1, 1,10,-99999999999999.0, 1, 8,10
521,8580311696.454796,99999999999999.0,11,14,20,2707604.5162989306,23,17,30
637,96380666865.55612,99999999999999.0,11,14,20,-99999999999999.0, 1, 1,20
649,96380666865.55612,99999999999999.0,11,14,20,-99999999999999.0, 1, 1,20
4,181, 6
11,7469411229.49462,99999999999999.0,11,19,10,3388163.7787122196, 5,16,60
23,930821107.0165266,99999999999999.0, 1, 1,10,-99999999999999.0,13,14,10
59,856800000.0,99999999999999.0, 1, 1,10,-99999999999999.0, 1, 8,10
521,6538590122.478123,99999999999999.0,11,14,20,2708980.574038304,17,13,60
637,50078373771.07397,99999999999999.0,11,14,20,-99999999999999.0, 1, 1,20
649,50078373771.07397,99999999999999.0,11,14,20,-99999999999999.0, 1, 1,20
4,212, 7
11,6568909275.396281,99999999999999.0,11,19,10,-99999999999999.0, 5,16,60
23,1028438872.6997068,99999999999999.0, 1, 1,10,-99999999999999.0,13,14,10
59,970200000.0,99999999999999.0, 1, 1,10,-99999999999999.0, 1, 8,10
521,5540470402.696632,99999999999999.0,11,14,20,-99999999999999.0,17,13,60
637,25745019672.275227,99999999999999.0,11,14,20,-99999999999999.0, 1, 1,20
649,25745019672.275227,99999999999999.0,11,14,20,-99999999999999.0, 1, 1,20
4,243, 8
11,6732092253.094067,99999999999999.0,11,19,10,-99999999999999.0, 5,16,60
23,1021009603.6731552,99999999999999.0, 1, 1,10,-99999999999999.0,13,14,10
59,933840000.0,99999999999999.0, 1, 1,10,-99999999999999.0, 1, 8,10
521,5711082649.421032,99999999999999.0,11,14,20,-99999999999999.0,17,13,60
637,42538731573.62476,99999999999999.0,11,14,20,-99999999999999.0, 1, 1,20
649,42538731573.62476,99999999999999.0,11,14,20,-99999999999999.0, 1, 1,20
4,273, 9
11,8700465758.953875,99999999999999.0,11,19,10,-99999999999999.0, 5,16,60
23,987939433.0225909,99999999999999.0, 1, 1,10,-99999999999999.0,13,14,10
59,893160000.0,99999999999999.0, 1, 1,10,-99999999999999.0, 1, 8,10
521,7712526325.931264,99999999999999.0,11,14,20,-99999999999999.0,17,13,60
637,75480730296.84782,99999999999999.0,11,14,20,-99999999999999.0, 1, 1,20
649,75480730296.84782,99999999999999.0,11,14,20,-99999999999999.0, 1, 1,20
4,304,10
11,10816879036.357151,99999999999999.0,11,19,10,-99999999999999.0, 5,16,60
23,999810329.3946152,99999999999999.0, 1, 1,10,-99999999999999.0,13,14,10
59,970200000.0,99999999999999.0, 1, 1,10,-99999999999999.0, 1, 8,10
521,9817068706.96256,99999999999999.0,11,14,20,-99999999999999.0,17,13,60
637,126683253650.69588,99999999999999.0,11,14,20,-99999999999999.0, 1, 1,20
649,126683253650.69588,99999999999999.0,11,14,20,-99999999999999.0, 1, 1,20
4,334,11
11,10624554060.771751,99999999999999.0,11,19,10,-99999999999999.0, 5,16,60
23,912944656.3210623,99999999999999.0, 1, 1,10,-99999999999999.0,13,14,10
59,893160000.0,99999999999999.0, 1, 1,10,-99999999999999.0, 1, 8,10
521,9711609404.450708,99999999999999.0,11,14,20,-99999999999999.0,17,13,60
637,145907585232.53015,99999999999999.0,11,14,20,-99999999999999.0, 1, 1,20
649,145907585232.53015,99999999999999.0,11,14,20,-99999999999999.0, 1, 1,20
4,365,12
11,10427578681.824564,99999999999999.0,11,19,10,-99999999999999.0, 5,16,60
23,938628061.4407833,99999999999999.0, 1, 1,10,-99999999999999.0,13,14,10
59,933840000.0,99999999999999.0, 1, 1,10,-99999999999999.0, 1, 8,10
521,9488950620.383821,99999999999999.0,11,14,20,-99999999999999.0,17,13,60
637,177897372362.10043,99999999999999.0,11,14,20,-99999999999999.0, 1, 1,20
649,177897372362.10043,99999999999999.0,11,14,20,-99999999999999.0, 1, 1,20
5,365
13,111019865356.54399,30000.0, 4,11,19,10,3388163.7787122196, 6, 5,16,60
25,11537745665.641714,30000.0, 1, 1, 1,10,695770.838515479, 5,13,14,10
61,11066760000.0,30000.0, 1, 1, 1,10,600000.0, 1, 1, 8,10
523,99482119690.89394,0.0, 4,11,14,20,2708980.574038304, 6,17,13,60
639,1354051671272.1384,0.0, 4,11,14,20,41250000.0, 1, 1, 1,20
651,1354051671272.1384,0.0, 4,11,14,20,41250000.0, 1, 1, 1,20
1,RUN PERIOD 2,  41.98, -87.92,  -6.00, 201.00
4,1, 7
11,90585838.26562603,99999999999999.0,11,19,10,-99999999999999.0, 5,16,60
23,40897639.156398304,99999999999999.0, 1, 1,10,-99999999999999.0,13,14,10
59,40680000.0,99999999999999.0, 1, 1,10,-99999999999999.0, 1, 8,10
521,49688199.1092277,99999999999999.0,11,14,20,-99999999999999.0,17,13,60
637,0.0,99999999999999.0,11,14,20,-99999999999999.0, 1, 1,20
649,0.0,99999999999999.0,11,14,20,-99999999999999.0, 1, 1,20
5,1
13,90585838.26562603,99999999999999.0, 4,11,19,10,-99999999999999.0, 6, 5,16,60
25,40897639.156398304,99999999999999.0, 1, 1, 1,10,-99999999999999.0, 5,13,14,10
61,40680000.0,99999999999999.0, 1, 1, 1,10,-99999999999999.0, 1, 1, 8,10
523,49688199.1092277,99999999999999.0, 4,11,14,20,-99999999999999.0, 6,17,13,60
639,0.0,99999999999999.0, 4,11,14,20,-99999999999999.0, 1, 1, 1,20
651,0.0,99999999999999.0, 4,11,14,20,-99999999999999.0, 1, 1, 1,20
End of Data
 Number of Records Written=          90
