Program Version,EnergyPlus, Version 24.2.0-94a887817b, YMD=2025.02.04 15:37
1,5,Environment Title[],Latitude[deg],Longitude[deg],Time Zone[],Elevation[m]
2,8,Day of Simulation[],Month[],Day of Month[],DST Indicator[1=yes 0=no],Hour[],StartMinute[],EndMinute[],DayType
3,5,Cumulative Day of Simulation[],Month[],Day of Month[],DST Indicator[1=yes 0=no],DayType  ! When Daily Meters Requested
4,2,Cumulative Days of Simulation[],Month[]  ! When Monthly Meters Requested
5,1,Cumulative Days of Simulation[] ! When Run Period Meters Requested
6,1,Calendar Year of Simulation[] ! When Annual Meters Requested
11,9,Electricity:Facility [J] !Monthly [Value,Min,Day,Hour,Minute,Max,Day,Hour,Minute]
23,9,Electricity:Building [J] !Monthly [Value,Min,Day,Hour,Minute,Max,Day,Hour,Minute]
59,9,InteriorLights:Electricity [J] !Monthly [Value,Min,Day,Hour,Minute,Max,Day,Hour,Minute]
521,9,Electricity:HVAC [J] !Monthly [Value,Min,Day,Hour,Minute,Max,Day,Hour,Minute]
637,9,NaturalGas:Facility [J] !Monthly [Value,Min,Day,Hour,Minute,Max,Day,Hour,Minute]
649,9,NaturalGas:HVAC [J] !Monthly [Value,Min,Day,Hour,Minute,Max,Day,Hour,Minute]
13,11,Electricity:Facility [J] !RunPeriod [Value,Min,Month,Day,Hour,Minute,Max,Month,Day,Hour,Minute]
25,11,Electricity:Building [J] !RunPeriod [Value,Min,Month,Day,Hour,Minute,Max,Month,Day,Hour,Minute]
61,11,InteriorLights:Electricity [J] !RunPeriod [Value,Min,Month,Day,Hour,Minute,Max,Month,Day,Hour,Minute]
523,11,Electricity:HVAC [J] !RunPeriod [Value,Min,Month,Day,Hour,Minute,Max,Month,Day,Hour,Minute]
639,11,NaturalGas:Facility [J] !RunPeriod [Value,Min,Month,Day,Hour,Minute,Max,Month,Day,Hour,Minute]
651,11,NaturalGas:HVAC [J] !RunPeriod [Value,Min,Month,Day,Hour,Minute,Max,Month,Day,Hour,Minute]
End of Data Dictionary
1,RUN PERIOD 1,  41.98, -87.92,  -6.00, 201.00
4,31, 1
11,9820945983.96412,408891.4285714286, 5, 6,50,2977948.5171242906,16,13,60
23,981895882.7331809,30000.0, 1, 1,10,608475.2773428657, 1, 9,10
59,970200000.0,30000.0, 1, 1,10,600000.0, 1, 8,10
521,8839050101.230986,378891.4285714286, 5, 6,50,2369473.239781425,16,13,60
637,179206928910.64374,28351694.958200708,21,16,10,41250000.0, 1, 1,10
649,179206928910.64374,28351694.958200708,21,16,10,41250000.0, 1, 1,10
4,59, 2
11,9354706453.875307,99999999999999.0, 5, 6,50,3019409.9573874124,22,15,30
23,858330332.8114569,99999999999999.0, 1, 1,10,-99999999999999.0, 1, 9,10
59,848160000.0,99999999999999.0, 1, 1,10,-99999999999999.0, 1, 8,10
521,8496376121.063895,99999999999999.0, 5, 6,50,2410934.680044547,22,15,30
637,158640667020.08957,26659718.255874984,23,12,10,-99999999999999.0, 1, 1,10
649,158640667020.08957,26659718.255874984,23,12,10,-99999999999999.0, 1, 1,10
4,90, 3
11,10869953139.338314,30000.0,26,19,10,3052132.9542340063,26,15,50
23,908158849.4520319,99999999999999.0, 1, 1,10,-99999999999999.0, 1, 9,10
59,897480000.0,99999999999999.0, 1, 1,10,-99999999999999.0, 1, 8,10
521,9961794289.886219,0.0,26,15,60,2443657.6768911406,26,15,50
637,161974943925.94852,0.0,26,15,60,-99999999999999.0, 1, 1,10
649,161974943925.94852,0.0,26,15,60,-99999999999999.0, 1, 1,10
4,120, 4
11,9207327711.679855,99999999999999.0,26,19,10,-99999999999999.0,26,15,50
23,940707366.092606,99999999999999.0, 1, 1,10,-99999999999999.0, 1, 9,10
59,929520000.0,99999999999999.0, 1, 1,10,-99999999999999.0, 1, 8,10
521,8266620345.58732,99999999999999.0,26,15,60,-99999999999999.0,26,15,50
637,116880041043.92462,99999999999999.0,26,15,60,-99999999999999.0, 1, 1,10
649,116880041043.92462,99999999999999.0,26,15,60,-99999999999999.0, 1, 1,10
4,151, 5
11,7975108414.296509,99999999999999.0,26,19,10,-99999999999999.0,26,15,50
23,982157295.7070338,99999999999999.0, 1, 1,10,624408.3735220416,28,13,10
59,970200000.0,99999999999999.0, 1, 1,10,-99999999999999.0, 1, 8,10
521,6992951118.589536,99999999999999.0,26,15,60,2445952.4648562814,11,14,30
637,82214050504.05919,99999999999999.0,26,15,60,-99999999999999.0, 1, 1,10
649,82214050504.05919,99999999999999.0,26,15,60,-99999999999999.0, 1, 1,10
4,181, 6
11,5609864494.108191,99999999999999.0,26,19,10,-99999999999999.0,26,15,50
23,867009529.3688382,99999999999999.0, 1, 1,10,-99999999999999.0,28,13,10
59,856800000.0,99999999999999.0, 1, 1,10,-99999999999999.0, 1, 8,10
521,4742854964.739403,99999999999999.0,26,15,60,-99999999999999.0,11,14,30
637,27329213393.191216,99999999999999.0,26,15,60,-99999999999999.0, 1, 1,10
649,27329213393.191216,99999999999999.0,26,15,60,-99999999999999.0, 1, 1,10
4,212, 7
11,5620496504.687059,99999999999999.0,26,19,10,-99999999999999.0,26,15,50
23,982168086.3053318,99999999999999.0, 1, 1,10,-99999999999999.0,28,13,10
59,970200000.0,99999999999999.0, 1, 1,10,-99999999999999.0, 1, 8,10
521,4638328418.381766,99999999999999.0,26,15,60,-99999999999999.0,11,14,30
637,5423151314.692556,99999999999999.0,26,15,60,-99999999999999.0, 1, 1,10
649,5423151314.692556,99999999999999.0,26,15,60,-99999999999999.0, 1, 1,10
4,243, 8
11,3944261557.2595773,99999999999999.0,26,19,10,-99999999999999.0,26,15,50
23,945305579.8866638,99999999999999.0, 1, 1,10,624506.050656084,12,14,10
59,933840000.0,99999999999999.0, 1, 1,10,-99999999999999.0, 1, 8,10
521,2998955977.3729706,99999999999999.0,26,15,60,-99999999999999.0,11,14,30
637,10470530154.478788,99999999999999.0,26,15,60,-99999999999999.0, 1, 1,10
649,10470530154.478788,99999999999999.0,26,15,60,-99999999999999.0, 1, 1,10
4,273, 9
11,5227574592.357495,99999999999999.0,26,19,10,-99999999999999.0,26,15,50
23,903838849.4520314,99999999999999.0, 1, 1,10,-99999999999999.0,12,14,10
59,893160000.0,99999999999999.0, 1, 1,10,-99999999999999.0, 1, 8,10
521,4323735742.905539,99999999999999.0,26,15,60,-99999999999999.0,11,14,30
637,43435909459.039215,99999999999999.0,26,15,60,-99999999999999.0, 1, 1,10
649,43435909459.039215,99999999999999.0,26,15,60,-99999999999999.0, 1, 1,10
4,304,10
11,9975107971.147915,99999999999999.0,26,19,10,-99999999999999.0,26,15,50
23,981895882.7331809,99999999999999.0, 1, 1,10,-99999999999999.0,12,14,10
59,970200000.0,99999999999999.0, 1, 1,10,-99999999999999.0, 1, 8,10
521,8993212088.414764,99999999999999.0,26,15,60,-99999999999999.0,11,14,30
637,123141701655.0175,99999999999999.0,26,15,60,-99999999999999.0, 1, 1,10
649,123141701655.0175,99999999999999.0,26,15,60,-99999999999999.0, 1, 1,10
4,334,11
11,10123864099.313362,99999999999999.0,26,19,10,-99999999999999.0,26,15,50
23,903838849.4520319,99999999999999.0, 1, 1,10,-99999999999999.0,12,14,10
59,893160000.0,99999999999999.0, 1, 1,10,-99999999999999.0, 1, 8,10
521,9220025249.861376,99999999999999.0,26,15,60,-99999999999999.0,11,14,30
637,144779770765.25793,99999999999999.0,26,15,60,-99999999999999.0, 1, 1,10
649,144779770765.25793,99999999999999.0,26,15,60,-99999999999999.0, 1, 1,10
4,365,12
11,10433977986.47638,99999999999999.0,26,19,10,-99999999999999.0,26,15,50
23,945027366.0926063,99999999999999.0, 1, 1,10,-99999999999999.0,12,14,10
59,933840000.0,99999999999999.0, 1, 1,10,-99999999999999.0, 1, 8,10
521,9488950620.383821,99999999999999.0,26,15,60,-99999999999999.0,11,14,30
637,180063393336.65576,99999999999999.0,26,15,60,-99999999999999.0, 1, 1,10
649,180063393336.65576,99999999999999.0,26,15,60,-99999999999999.0, 1, 1,10
5,365
13,98163188908.51276,30000.0, 3,26,19,10,3052132.9542340063, 3,26,15,50
25,11200333870.08926,30000.0, 1, 1, 1,10,624506.050656084, 8,12,14,10
61,11066760000.0,30000.0, 1, 1, 1,10,600000.0, 1, 1, 8,10
523,86962855038.42186,0.0, 3,26,15,60,2445952.4648562814, 5,11,14,30
639,1233560301483.0063,0.0, 3,26,15,60,41250000.0, 1, 1, 1,10
651,1233560301483.0063,0.0, 3,26,15,60,41250000.0, 1, 1, 1,10
1,RUN PERIOD 2,  41.98, -87.92,  -6.00, 201.00
4,1, 7
11,119583485.97690903,99999999999999.0,26,19,10,-99999999999999.0,26,15,50
23,41188516.640571944,99999999999999.0, 1, 1,10,-99999999999999.0,12,14,10
59,40680000.0,99999999999999.0, 1, 1,10,-99999999999999.0, 1, 8,10
521,78394969.33633703,99999999999999.0,26,15,60,-99999999999999.0,11,14,30
637,0.0,99999999999999.0,26,15,60,-99999999999999.0, 1, 1,10
649,0.0,99999999999999.0,26,15,60,-99999999999999.0, 1, 1,10
5,1
13,119583485.97690903,99999999999999.0, 3,26,19,10,-99999999999999.0, 3,26,15,50
25,41188516.640571944,99999999999999.0, 1, 1, 1,10,-99999999999999.0, 8,12,14,10
61,40680000.0,99999999999999.0, 1, 1, 1,10,-99999999999999.0, 1, 1, 8,10
523,78394969.33633703,99999999999999.0, 3,26,15,60,-99999999999999.0, 5,11,14,30
639,0.0,99999999999999.0, 3,26,15,60,-99999999999999.0, 1, 1, 1,10
651,0.0,99999999999999.0, 3,26,15,60,-99999999999999.0, 1, 1, 1,10
End of Data
 Number of Records Written=          90
