Program Version,EnergyPlus, Version 24.2.0-94a887817b, YMD=2025.02.04 15:39
1,5,Environment Title[],Latitude[deg],Longitude[deg],Time Zone[],Elevation[m]
2,8,Day of Simulation[],Month[],Day of Month[],DST Indicator[1=yes 0=no],Hour[],StartMinute[],EndMinute[],DayType
3,5,Cumulative Day of Simulation[],Month[],Day of Month[],DST Indicator[1=yes 0=no],DayType  ! When Daily Meters Requested
4,2,Cumulative Days of Simulation[],Month[]  ! When Monthly Meters Requested
5,1,Cumulative Days of Simulation[] ! When Run Period Meters Requested
6,1,Calendar Year of Simulation[] ! When Annual Meters Requested
11,9,Electricity:Facility [J] !Monthly [Value,Min,Day,Hour,Minute,Max,Day,Hour,Minute]
23,9,Electricity:Building [J] !Monthly [Value,Min,Day,Hour,Minute,Max,Day,Hour,Minute]
59,9,InteriorLights:Electricity [J] !Monthly [Value,Min,Day,Hour,Minute,Max,Day,Hour,Minute]
521,9,Electricity:HVAC [J] !Monthly [Value,Min,Day,Hour,Minute,Max,Day,Hour,Minute]
637,9,NaturalGas:Facility [J] !Monthly [Value,Min,Day,Hour,Minute,Max,Day,Hour,Minute]
649,9,NaturalGas:HVAC [J] !Monthly [Value,Min,Day,Hour,Minute,Max,Day,Hour,Minute]
13,11,Electricity:Facility [J] !RunPeriod [Value,Min,Month,Day,Hour,Minute,Max,Month,Day,Hour,Minute]
25,11,Electricity:Building [J] !RunPeriod [Value,Min,Month,Day,Hour,Minute,Max,Month,Day,Hour,Minute]
61,11,InteriorLights:Electricity [J] !RunPeriod [Value,Min,Month,Day,Hour,Minute,Max,Month,Day,Hour,Minute]
523,11,Electricity:HVAC [J] !RunPeriod [Value,Min,Month,Day,Hour,Minute,Max,Month,Day,Hour,Minute]
639,11,NaturalGas:Facility [J] !RunPeriod [Value,Min,Month,Day,Hour,Minute,Max,Month,Day,Hour,Minute]
651,11,NaturalGas:HVAC [J] !RunPeriod [Value,Min,Month,Day,Hour,Minute,Max,Month,Day,Hour,Minute]
End of Data Dictionary
1,RUN PERIOD 1,  41.98, -87.92,  -6.00, 201.00
4,31, 1
11,9837658403.545622,408891.4285714286, 5, 6,50,2990058.9660963654,16,13,60
23,998608302.3146005,30000.0, 1, 1,10,620585.7263149403, 1, 9,10
59,970200000.0,30000.0, 1, 1,10,600000.0, 1, 8,10
521,8839050101.230986,378891.4285714286, 5, 6,50,2369473.239781425,16,13,60
637,179241823244.75235,28370147.271938495,21,16,10,41250000.0, 1, 1,10
649,179241823244.75235,28370147.271938495,21,16,10,41250000.0, 1, 1,10
4,59, 2
11,9369238992.641796,99999999999999.0, 5, 6,50,3031520.406359487,22,15,30
23,872862871.5779173,99999999999999.0, 1, 1,10,-99999999999999.0, 1, 9,10
59,848160000.0,99999999999999.0, 1, 1,10,-99999999999999.0, 1, 8,10
521,8496376121.063895,99999999999999.0, 5, 6,50,2410934.680044547,22,15,30
637,158684641841.85382,26677569.42793163,23,12,10,-99999999999999.0, 1, 1,10
649,158684641841.85382,26677569.42793163,23,12,10,-99999999999999.0, 1, 1,10
4,90, 3
11,10968443069.288368,320585.7263149403,27,18,10,3216890.1803554036,27,14,30
23,923418015.1568115,99999999999999.0, 1, 1,10,-99999999999999.0, 1, 9,10
59,897480000.0,99999999999999.0, 1, 1,10,-99999999999999.0, 1, 8,10
521,10045025054.131561,0.0,27,14,40,2596304.4540404635,27,14,30
637,162890130537.0301,0.0,27,14,40,-99999999999999.0, 1, 1,10
649,162890130537.0301,0.0,27,14,40,-99999999999999.0, 1, 1,10
4,120, 4
11,9414210505.395338,30000.0,11,19,10,-99999999999999.0,27,14,30
23,956693158.7357063,99999999999999.0, 1, 1,10,-99999999999999.0, 1, 9,10
59,929520000.0,99999999999999.0, 1, 1,10,-99999999999999.0, 1, 8,10
521,8457517346.659665,99999999999999.0,27,14,40,-99999999999999.0,27,14,30
637,119601205169.04791,99999999999999.0,27,14,40,-99999999999999.0, 1, 1,10
649,119601205169.04791,99999999999999.0,27,14,40,-99999999999999.0, 1, 1,10
4,151, 5
11,8676031354.176071,99999999999999.0,11,19,10,-99999999999999.0,27,14,30
23,998871586.7455069,99999999999999.0, 1, 1,10,636522.7809684104,28,13,10
59,970200000.0,99999999999999.0, 1, 1,10,-99999999999999.0, 1, 8,10
521,7677159767.430685,99999999999999.0,27,14,40,-99999999999999.0,27,14,30
637,90176315817.34756,99999999999999.0,27,14,40,-99999999999999.0, 1, 1,10
649,90176315817.34756,99999999999999.0,27,14,40,-99999999999999.0, 1, 1,10
4,181, 6
11,6354442418.532809,99999999999999.0,11,19,10,-99999999999999.0,27,14,30
23,881542081.5065539,99999999999999.0, 1, 1,10,-99999999999999.0,28,13,10
59,856800000.0,99999999999999.0, 1, 1,10,-99999999999999.0, 1, 8,10
521,5472900337.0262785,99999999999999.0,27,14,40,-99999999999999.0,27,14,30
637,39738732909.09058,99999999999999.0,27,14,40,-99999999999999.0, 1, 1,10
649,39738732909.09058,99999999999999.0,27,14,40,-99999999999999.0, 1, 1,10
4,212, 7
11,5807843073.333769,99999999999999.0,11,19,10,-99999999999999.0,27,14,30
23,998880521.9081364,99999999999999.0, 1, 1,10,-99999999999999.0,28,13,10
59,970200000.0,99999999999999.0, 1, 1,10,-99999999999999.0, 1, 8,10
521,4808962551.425645,99999999999999.0,27,14,40,-99999999999999.0,27,14,30
637,12151309675.097704,99999999999999.0,27,14,40,-99999999999999.0, 1, 1,10
649,12151309675.097704,99999999999999.0,27,14,40,-99999999999999.0, 1, 1,10
4,243, 8
11,4942038473.630939,99999999999999.0,11,19,10,-99999999999999.0,27,14,30
23,961291384.6165292,99999999999999.0, 1, 1,10,636619.5989961289,12,14,10
59,933840000.0,99999999999999.0, 1, 1,10,-99999999999999.0, 1, 8,10
521,3980747089.014387,99999999999999.0,27,14,40,-99999999999999.0,27,14,30
637,24679140675.127823,99999999999999.0,27,14,40,-99999999999999.0, 1, 1,10
649,24679140675.127823,99999999999999.0,27,14,40,-99999999999999.0, 1, 1,10
4,273, 9
11,6559147081.931183,99999999999999.0,11,19,10,-99999999999999.0,27,14,30
23,919098015.1568118,99999999999999.0, 1, 1,10,-99999999999999.0,12,14,10
59,893160000.0,99999999999999.0, 1, 1,10,-99999999999999.0, 1, 8,10
521,5640049066.774396,99999999999999.0,27,14,40,-99999999999999.0,27,14,30
637,59263153433.792465,99999999999999.0,27,14,40,-99999999999999.0, 1, 1,10
649,59263153433.792465,99999999999999.0,27,14,40,-99999999999999.0, 1, 1,10
4,304,10
11,10472905677.23049,99999999999999.0,11,19,10,3216956.5475100763,30,14,30
23,998608302.3146005,99999999999999.0, 1, 1,10,-99999999999999.0,12,14,10
59,970200000.0,99999999999999.0, 1, 1,10,-99999999999999.0, 1, 8,10
521,9474297374.915922,99999999999999.0,27,14,40,2596370.821195136,30,14,30
637,128169578100.91139,99999999999999.0,27,14,40,-99999999999999.0, 1, 1,10
649,128169578100.91139,99999999999999.0,27,14,40,-99999999999999.0, 1, 1,10
4,334,11
11,10400859650.004374,99999999999999.0,11,19,10,-99999999999999.0,30,14,30
23,919098015.1568115,99999999999999.0, 1, 1,10,-99999999999999.0,12,14,10
59,893160000.0,99999999999999.0, 1, 1,10,-99999999999999.0, 1, 8,10
521,9481761634.847548,99999999999999.0,27,14,40,-99999999999999.0,30,14,30
637,147451724117.57028,99999999999999.0,27,14,40,-99999999999999.0, 1, 1,10
649,147451724117.57028,99999999999999.0,27,14,40,-99999999999999.0, 1, 1,10
4,365,12
11,10449963779.119518,99999999999999.0,11,19,10,-99999999999999.0,30,14,30
23,961013158.735706,99999999999999.0, 1, 1,10,-99999999999999.0,12,14,10
59,933840000.0,99999999999999.0, 1, 1,10,-99999999999999.0, 1, 8,10
521,9488950620.383821,99999999999999.0,27,14,40,-99999999999999.0,30,14,30
637,180102131779.8438,99999999999999.0,27,14,40,-99999999999999.0, 1, 1,10
649,180102131779.8438,99999999999999.0,27,14,40,-99999999999999.0, 1, 1,10
5,365
13,103252782478.84653,30000.0, 4,11,19,10,3216956.5475100763,10,30,14,30
25,11389985413.922358,30000.0, 1, 1, 1,10,636619.5989961289, 8,12,14,10
61,11066760000.0,30000.0, 1, 1, 1,10,600000.0, 1, 1, 8,10
523,91862797064.90965,0.0, 3,27,14,40,2596370.821195136,10,30,14,30
639,1302149887301.4607,0.0, 3,27,14,40,41250000.0, 1, 1, 1,10
651,1302149887301.4607,0.0, 3,27,14,40,41250000.0, 1, 1, 1,10
1,RUN PERIOD 2,  41.98, -87.92,  -6.00, 201.00
4,1, 7
11,112002616.3012772,99999999999999.0,11,19,10,-99999999999999.0,30,14,30
23,41915143.57889638,99999999999999.0, 1, 1,10,-99999999999999.0,12,14,10
59,40680000.0,99999999999999.0, 1, 1,10,-99999999999999.0, 1, 8,10
521,70087472.72238073,99999999999999.0,27,14,40,-99999999999999.0,30,14,30
637,0.0,99999999999999.0,27,14,40,-99999999999999.0, 1, 1,10
649,0.0,99999999999999.0,27,14,40,-99999999999999.0, 1, 1,10
5,1
13,112002616.3012772,99999999999999.0, 4,11,19,10,-99999999999999.0,10,30,14,30
25,41915143.57889638,99999999999999.0, 1, 1, 1,10,-99999999999999.0, 8,12,14,10
61,40680000.0,99999999999999.0, 1, 1, 1,10,-99999999999999.0, 1, 1, 8,10
523,70087472.72238073,99999999999999.0, 3,27,14,40,-99999999999999.0,10,30,14,30
639,0.0,99999999999999.0, 3,27,14,40,-99999999999999.0, 1, 1, 1,10
651,0.0,99999999999999.0, 3,27,14,40,-99999999999999.0, 1, 1, 1,10
End of Data
 Number of Records Written=          90
