Program Version,EnergyPlus, Version 24.2.0-94a887817b, YMD=2025.02.04 15:38
1,5,Environment Title[],Latitude[deg],Longitude[deg],Time Zone[],Elevation[m]
2,8,Day of Simulation[],Month[],Day of Month[],DST Indicator[1=yes 0=no],Hour[],StartMinute[],EndMinute[],DayType
3,5,Cumulative Day of Simulation[],Month[],Day of Month[],DST Indicator[1=yes 0=no],DayType  ! When Daily Report Variables Requested
4,2,Cumulative Days of Simulation[],Month[]  ! When Monthly Report Variables Requested
5,1,Cumulative Days of Simulation[] ! When Run Period Report Variables Requested
6,1,Calendar Year of Simulation[] ! When Annual Report Variables Requested
250,1,LIVING ZONE,Zone Air Temperature [C] !TimeStep,REPORTSCH
251,1,LIVING ZONE,Zone Air System Sensible Heating Energy [J] !TimeStep,REPORTSCH
336,1,LIVING ZONE,Zone Air System Sensible Cooling Energy [J] !TimeStep,REPORTSCH
385,1,LIVING ZONE,Zone Thermostat Heating Setpoint Temperature [C] !TimeStep,REPORTSCH
386,1,LIVING ZONE,Zone Thermostat Cooling Setpoint Temperature [C] !TimeStep,REPORTSCH
387,1,GARAGE ZONE,Zone Air Temperature [C] !TimeStep,REPORTSCH
388,1,GARAGE ZONE,Zone Air System Sensible Heating Energy [J] !TimeStep,REPORTSCH
425,1,GARAGE ZONE,Zone Air System Sensible Cooling Energy [J] !TimeStep,REPORTSCH
450,1,GARAGE ZONE,Zone Thermostat Heating Setpoint Temperature [C] !TimeStep,REPORTSCH
451,1,GARAGE ZONE,Zone Thermostat Cooling Setpoint Temperature [C] !TimeStep,REPORTSCH
452,1,ATTIC ZONE,Zone Air Temperature [C] !TimeStep,REPORTSCH
453,1,ATTIC ZONE,Zone Air System Sensible Heating Energy [J] !TimeStep,REPORTSCH
490,1,ATTIC ZONE,Zone Air System Sensible Cooling Energy [J] !TimeStep,REPORTSCH
515,1,ATTIC ZONE,Zone Thermostat Heating Setpoint Temperature [C] !TimeStep,REPORTSCH
516,1,ATTIC ZONE,Zone Thermostat Cooling Setpoint Temperature [C] !TimeStep,REPORTSCH
542,1,ACDXCOIL 1,Cooling Coil Total Cooling Energy [J] !TimeStep,REPORTSCH
592,1,HEAT PUMP DX HEATING COIL 1,Heating Coil Heating Energy [J] !TimeStep,REPORTSCH
632,1,SUPP HEATING COIL 1,Heating Coil Heating Energy [J] !TimeStep,REPORTSCH
686,1,TWOSPEED HEAT PUMP 1,Unitary System DX Coil Cycling Ratio [] !TimeStep,REPORTSCH
687,1,TWOSPEED HEAT PUMP 1,Unitary System DX Coil Speed Ratio [] !TimeStep,REPORTSCH
688,1,TWOSPEED HEAT PUMP 1,Unitary System DX Coil Speed Level [] !TimeStep,REPORTSCH
End of Data Dictionary
1,RUN PERIOD 1,  41.98, -87.92,  -6.00, 201.00
2,21, 1,21, 0, 1, 0.00,10.00,Monday
250,-0.8537180378769287
251,38098152.21576278
336,0.0
385,20.60813224698497
386,25.82836212671204
387,-0.9480742854773478
388,0.0
425,0.0
450,0.0
451,0.0
452,-1.975493312497133
453,0.0
490,0.0
515,0.0
516,0.0
542,0.0
592,4839743.985079641
632,33000000.0
686,1.0
687,1.0
688,2.0
2,21, 1,21, 0, 1,10.00,20.00,Monday
250,-0.8538601554774328
251,38082769.608385235
336,0.0
385,20.60813224698497
386,25.82836212671204
387,-0.9564336072850408
388,0.0
425,0.0
450,0.0
451,0.0
452,-1.9573455870141532
453,0.0
490,0.0
515,0.0
516,0.0
542,0.0
592,4823801.676011793
632,33000000.0
686,1.0
687,1.0
688,2.0
2,21, 1,21, 0, 1,20.00,30.00,Monday
250,-0.854037541983779
251,38066845.08516448
336,0.0
385,20.60813224698497
386,25.82836212671204
387,-0.9660289140126512
388,0.0
425,0.0
450,0.0
451,0.0
452,-1.9542675947963255
453,0.0
490,0.0
515,0.0
516,0.0
542,0.0
592,4807858.162905221
632,33000000.0
686,1.0
687,1.0
688,2.0
2,21, 1,21, 0, 1,30.00,40.00,Monday
250,-0.854211156350829
251,38050898.34125501
336,0.0
385,20.60813224698497
386,25.82836212671204
387,-0.9770649194333426
388,0.0
425,0.0
450,0.0
451,0.0
452,-1.967143433202916
453,0.0
490,0.0
515,0.0
516,0.0
542,0.0
592,4791913.445623511
632,33000000.0
686,1.0
687,1.0
688,2.0
2,21, 1,21, 0, 1,40.00,50.00,Monday
250,-0.854386055400001
251,38034953.11537171
336,0.0
385,20.60813224698497
386,25.82836212671204
387,-0.9896988846069054
388,0.0
425,0.0
450,0.0
451,0.0
452,-1.9943516568802406
453,0.0
490,0.0
515,0.0
516,0.0
542,0.0
592,4775967.524030239
632,33000000.0
686,1.0
687,1.0
688,2.0
2,21, 1,21, 0, 1,50.00,60.00,Monday
250,-0.8545614948023724
251,38019006.28434916
336,0.0
385,20.60813224698497
386,25.82836212671204
387,-1.0041195746782474
388,0.0
425,0.0
450,0.0
451,0.0
452,-2.03436360283408
453,0.0
490,0.0
515,0.0
516,0.0
542,0.0
592,4760020.397988958
632,33000000.0
686,1.0
687,1.0
688,2.0
2,21, 1,21, 0, 2, 0.00,10.00,Monday
250,-0.854633785313593
251,38018950.74996222
336,0.0
385,20.60813224698497
386,25.82836212671204
387,-1.019644138015036
388,0.0
425,0.0
450,0.0
451,0.0
452,-2.0811332326328813
453,0.0
490,0.0
515,0.0
516,0.0
542,0.0
592,4760020.397988958
632,33000000.0
686,1.0
687,1.0
688,2.0
2,21, 1,21, 0, 2,10.00,20.00,Monday
250,-0.854703748838435
251,38018949.49705855
336,0.0
385,20.60813224698497
386,25.82836212671204
387,-1.035329186011694
388,0.0
425,0.0
450,0.0
451,0.0
452,-2.12386884789369
453,0.0
490,0.0
515,0.0
516,0.0
542,0.0
592,4760020.397988958
632,33000000.0
686,1.0
687,1.0
688,2.0
2,21, 1,21, 0, 2,20.00,30.00,Monday
250,-0.8547734897531588
251,38018949.37719184
336,0.0
385,20.60813224698497
386,25.82836212671204
387,-1.05062079472839
388,0.0
425,0.0
450,0.0
451,0.0
452,-2.155340252489235
453,0.0
490,0.0
515,0.0
516,0.0
542,0.0
592,4760020.397988958
632,33000000.0
686,1.0
687,1.0
688,2.0
2,21, 1,21, 0, 2,30.00,40.00,Monday
250,-0.8548418917025541
251,38018948.65625389
336,0.0
385,20.60813224698497
386,25.82836212671204
387,-1.0651975582389315
388,0.0
425,0.0
450,0.0
451,0.0
452,-2.1747236460672053
453,0.0
490,0.0
515,0.0
516,0.0
542,0.0
592,4760020.397988958
632,33000000.0
686,1.0
687,1.0
688,2.0
2,21, 1,21, 0, 2,40.00,50.00,Monday
250,-0.8549092733038887
251,38018948.106867485
336,0.0
385,20.60813224698497
386,25.82836212671204
387,-1.078919064750967
388,0.0
425,0.0
450,0.0
451,0.0
452,-2.1848641528562505
453,0.0
490,0.0
515,0.0
516,0.0
542,0.0
592,4760020.397988958
632,33000000.0
686,1.0
687,1.0
688,2.0
2,21, 1,21, 0, 2,50.00,60.00,Monday
250,-0.8549754601218438
251,38018947.463559695
336,0.0
385,20.60813224698497
386,25.82836212671204
387,-1.0917479709596707
388,0.0
425,0.0
450,0.0
451,0.0
452,-2.1889105666982185
453,0.0
490,0.0
515,0.0
516,0.0
542,0.0
592,4760020.397988958
632,33000000.0
686,1.0
687,1.0
688,2.0
2,21, 1,21, 0, 3, 0.00,10.00,Monday
250,-0.7725821327733805
251,37977087.24495167
336,0.0
385,20.60813224698497
386,25.82836212671204
387,-1.0932944737348411
388,0.0
425,0.0
450,0.0
451,0.0
452,-2.181429890491872
453,0.0
490,0.0
515,0.0
516,0.0
542,0.0
592,4762558.894114006
632,33000000.0
686,1.0
687,1.0
688,2.0
2,21, 1,21, 0, 3,10.00,20.00,Monday
250,-0.6890381908672055
251,37978895.425068185
336,0.0
385,20.60813224698497
386,25.82836212671204
387,-1.0822444135272062
388,0.0
425,0.0
450,0.0
451,0.0
452,-2.1564462501591204
453,0.0
490,0.0
515,0.0
516,0.0
542,0.0
592,4764988.43573097
632,33000000.0
686,1.0
687,1.0
688,2.0
2,21, 1,21, 0, 3,20.00,30.00,Monday
250,-0.6058991195656956
251,37981431.379059084
336,0.0
385,20.60813224698497
386,25.82836212671204
387,-1.0630047398941964
388,0.0
425,0.0
450,0.0
451,0.0
452,-2.112512071155542
453,0.0
490,0.0
515,0.0
516,0.0
542,0.0
592,4767308.250738334
632,33000000.0
686,1.0
687,1.0
688,2.0
2,21, 1,21, 0, 3,30.00,40.00,Monday
250,-0.5227032076855697
251,37976287.09463919
336,0.0
385,20.60813224698497
386,25.82836212671204
387,-1.0393702414149941
388,0.0
425,0.0
450,0.0
451,0.0
452,-2.05276079350193
453,0.0
490,0.0
515,0.0
516,0.0
542,0.0
592,4769517.689516207
632,32992678.752627254
686,1.0
687,1.0
688,2.0
2,21, 1,21, 0, 3,40.00,50.00,Monday
250,-0.4397262906797846
251,37933198.36238311
336,0.0
385,20.60813224698497
386,25.82836212671204
387,-1.012645062337588
388,0.0
425,0.0
450,0.0
451,0.0
452,-1.9816773360222335
453,0.0
490,0.0
515,0.0
516,0.0
542,0.0
592,4771616.115684973
632,32947375.543891978
686,1.0
687,1.0
688,2.0
2,21, 1,21, 0, 3,50.00,60.00,Monday
250,-0.35673855006978616
251,37890110.592739
336,0.0
385,20.60813224698497
386,25.82836212671204
387,-0.9825715543665248
388,0.0
425,0.0
450,0.0
451,0.0
452,-1.9028797965402267
453,0.0
490,0.0
515,0.0
516,0.0
542,0.0
592,4773602.736238394
632,32902308.872950863
686,1.0
687,1.0
688,2.0
2,21, 1,21, 0, 4, 0.00,10.00,Monday
250,-0.3561761641139303
251,37891420.99596048
336,0.0
385,20.60813224698497
386,25.82836212671204
387,-0.9598398826605832
388,0.0
425,0.0
450,0.0
451,0.0
452,-1.8266571365716002
453,0.0
490,0.0
515,0.0
516,0.0
542,0.0
592,4773428.982371633
632,32859403.46678526
686,1.0
687,1.0
688,2.0
2,21, 1,21, 0, 4,10.00,20.00,Monday
250,-0.35648648805304783
251,37891642.51213224
336,0.0
385,20.60813224698497
386,25.82836212671204
387,-0.9472566982193417
388,0.0
425,0.0
450,0.0
451,0.0
452,-1.76204991173535
453,0.0
490,0.0
515,0.0
516,0.0
542,0.0
592,4773255.169447958
632,32859328.784053486
686,1.0
687,1.0
688,2.0
2,21, 1,21, 0, 4,20.00,30.00,Monday
250,-0.3563687378308664
251,37891611.332936704
336,0.0
385,20.60813224698497
386,25.82836212671204
387,-0.941286717025101
388,0.0
425,0.0
450,0.0
451,0.0
452,-1.7126620150890333
453,0.0
490,0.0
515,0.0
516,0.0
542,0.0
592,4773081.29743726
632,32859702.023300026
686,1.0
687,1.0
688,2.0
2,21, 1,21, 0, 4,30.00,40.00,Monday
250,-0.3563423009458833
251,37891637.472900696
336,0.0
385,20.60813224698497
386,25.82836212671204
387,-0.9380486057870996
388,0.0
425,0.0
450,0.0
451,0.0
452,-1.6768328163231287
453,0.0
490,0.0
515,0.0
516,0.0
542,0.0
592,4772907.366309401
632,32859852.9160662
686,1.0
687,1.0
688,2.0
2,21, 1,21, 0, 4,40.00,50.00,Monday
250,-0.3563210955306865
251,37891664.80536241
336,0.0
385,20.60813224698497
386,25.82836212671204
387,-0.9357583480045906
388,0.0
425,0.0
450,0.0
451,0.0
452,-1.6508913098597227
453,0.0
490,0.0
515,0.0
516,0.0
542,0.0
592,4772733.376034234
632,32860051.421315305
686,1.0
687,1.0
688,2.0
2,21, 1,21, 0, 4,50.00,60.00,Monday
250,-0.35629952638411133
251,37891691.8611954
336,0.0
385,20.60813224698497
386,25.82836212671204
387,-0.9342426045135326
388,0.0
425,0.0
450,0.0
451,0.0
452,-1.6317798254957079
453,0.0
490,0.0
515,0.0
516,0.0
542,0.0
592,4772559.326581575
632,32860252.722506896
686,1.0
687,1.0
688,2.0
2,21, 1,21, 0, 5, 0.00,10.00,Monday
250,-0.3562792822859551
251,37891719.661049284
336,0.0
385,20.60813224698497
386,25.82836212671204
387,-0.9335600882260695
388,0.0
425,0.0
450,0.0
451,0.0
452,-1.6168831405299287
453,0.0
490,0.0
515,0.0
516,0.0
542,0.0
592,4759720.858689582
632,32873118.276634473
686,1.0
687,1.0
688,2.0
2,21, 1,21, 0, 5,10.00,20.00,Monday
250,-0.35625129652977394
251,37893019.790219136
336,0.0
385,20.60813224698497
386,25.82836212671204
387,-0.9335754993071494
388,0.0
425,0.0
450,0.0
451,0.0
452,-1.6038903267827718
453,0.0
490,0.0
515,0.0
516,0.0
542,0.0
592,4746877.262331866
632,32887266.17210317
686,1.0
687,1.0
688,2.0
2,21, 1,21, 0, 5,20.00,30.00,Monday
250,-0.35622328006280485
251,37894338.54066656
336,0.0
385,20.60813224698497
386,25.82836212671204
387,-0.9340587463117906
388,0.0
425,0.0
450,0.0
451,0.0
452,-1.591399893573851
453,0.0
490,0.0
515,0.0
516,0.0
542,0.0
592,4734028.534436011
632,32901433.667518046
686,1.0
687,1.0
688,2.0
2,21, 1,21, 0, 5,30.00,40.00,Monday
250,-0.35619541384942305
251,37895651.257074594
336,0.0
385,20.60813224698497
386,25.82836212671204
387,-0.9348056386078056
388,0.0
425,0.0
450,0.0
451,0.0
452,-1.5789790201765999
453,0.0
490,0.0
515,0.0
516,0.0
542,0.0
592,4721174.671927155
632,32915600.16603321
686,1.0
687,1.0
688,2.0
2,21, 1,21, 0, 5,40.00,50.00,Monday
250,-0.356167502132645
251,37896965.81886981
336,0.0
385,20.60813224698497
386,25.82836212671204
387,-0.9356800281818284
388,0.0
425,0.0
450,0.0
451,0.0
452,-1.566697037244845
453,0.0
490,0.0
515,0.0
516,0.0
542,0.0
592,4708315.671727968
632,32929773.75306439
686,1.0
687,1.0
688,2.0
2,21, 1,21, 0, 5,50.00,60.00,Monday
250,-0.35613947778289484
251,37898280.92584042
336,0.0
385,20.60813224698497
386,25.82836212671204
387,-0.9366028129894629
388,0.0
425,0.0
450,0.0
451,0.0
452,-1.5547051701429315
453,0.0
490,0.0
515,0.0
516,0.0
542,0.0
592,4695451.530758675
632,32943953.06220328
686,1.0
687,1.0
688,2.0
2,21, 1,21, 0, 6, 0.00,10.00,Monday
250,-0.3561101881941779
251,37899595.866540514
336,0.0
385,20.60813224698497
386,25.82836212671204
387,-0.9376608668773535
388,0.0
425,0.0
450,0.0
451,0.0
452,-1.543700741862617
453,0.0
490,0.0
515,0.0
516,0.0
542,0.0
592,4695264.082255858
632,32945456.133498166
686,1.0
687,1.0
688,2.0
2,21, 1,21, 0, 6,10.00,20.00,Monday
250,-0.3560888806746838
251,37899637.39746932
336,0.0
385,20.60813224698497
386,25.82836212671204
387,-0.9389375666927763
388,0.0
425,0.0
450,0.0
451,0.0
452,-1.534498028312473
453,0.0
490,0.0
515,0.0
516,0.0
542,0.0
592,4695076.569900009
632,32945680.87699894
686,1.0
687,1.0
688,2.0
2,21, 1,21, 0, 6,20.00,30.00,Monday
250,-0.35606762689710275
251,37899660.83157495
336,0.0
385,20.60813224698497
386,25.82836212671204
387,-0.9404269415199413
388,0.0
425,0.0
450,0.0
451,0.0
452,-1.5274213743331562
453,0.0
490,0.0
515,0.0
516,0.0
542,0.0
592,4694888.993658494
632,32945891.858406756
686,1.0
687,1.0
688,2.0
2,21, 1,21, 0, 6,30.00,40.00,Monday
250,-0.35604601610880093
251,37899690.739196315
336,0.0
385,20.60813224698497
386,25.82836212671204
387,-0.9420866961690938
388,0.0
425,0.0
450,0.0
451,0.0
452,-1.5222621042604005
453,0.0
490,0.0
515,0.0
516,0.0
542,0.0
592,4694701.353498662
632,32946109.598516546
686,1.0
687,1.0
688,2.0
2,21, 1,21, 0, 6,40.00,50.00,Monday
250,-0.3560240507489195
251,37899719.12659478
336,0.0
385,20.60813224698497
386,25.82836212671204
387,-0.9438847743694228
388,0.0
425,0.0
450,0.0
451,0.0
452,-1.5185715570786062
453,0.0
490,0.0
515,0.0
516,0.0
542,0.0
592,4694513.649387831
632,32946325.881040514
686,1.0
687,1.0
688,2.0
2,21, 1,21, 0, 6,50.00,60.00,Monday
250,-0.3560019284138035
251,37899747.36622336
336,0.0
385,20.60813224698497
386,25.82836212671204
387,-0.945803979262513
388,0.0
425,0.0
450,0.0
451,0.0
452,-1.5159305253801916
453,0.0
490,0.0
515,0.0
516,0.0
542,0.0
592,4694325.881293309
632,32946541.973336406
686,1.0
687,1.0
688,2.0
2,21, 1,21, 0, 7, 0.00,10.00,Monday
250,-0.3565605991310199
251,37900088.498683766
336,0.0
385,20.60813224698497
386,25.82836212671204
387,-0.950265306821477
388,0.0
425,0.0
450,0.0
451,0.0
452,-1.5192071227427426
453,0.0
490,0.0
515,0.0
516,0.0
542,0.0
592,4723573.583255435
632,32917322.538808223
686,1.0
687,1.0
688,2.0
2,21, 1,21, 0, 7,10.00,20.00,Monday
250,-0.35654001032327237
251,37897171.55073766
336,0.0
385,20.60813224698497
386,25.82836212671204
387,-0.9594415297038055
388,0.0
425,0.0
450,0.0
451,0.0
452,-1.5378765098395342
453,0.0
490,0.0
515,0.0
516,0.0
542,0.0
592,4752837.186047653
632,32885454.026169036
686,1.0
687,1.0
688,2.0
2,21, 1,21, 0, 7,20.00,30.00,Monday
250,-0.35650608174956805
251,37894204.03738361
336,0.0
385,20.60813224698497
386,25.82836212671204
387,-0.9735738276518325
388,0.0
425,0.0
450,0.0
451,0.0
452,-1.5773070875924993
453,0.0
490,0.0
515,0.0
516,0.0
542,0.0
592,4782116.702651944
632,32853214.1801816
686,1.0
687,1.0
688,2.0
2,21, 1,21, 0, 7,30.00,40.00,Monday
250,-0.35647483926235646
251,37891251.71111347
336,0.0
385,20.60813224698497
386,25.82836212671204
387,-0.9917079237719589
388,0.0
425,0.0
450,0.0
451,0.0
452,-1.6351113913516913
453,0.0
490,0.0
515,0.0
516,0.0
542,0.0
592,4811412.146064444
632,32820964.962461986
686,1.0
687,1.0
688,2.0
2,21, 1,21, 0, 7,40.00,50.00,Monday
250,-0.35644247787915256
251,37888294.097786024
336,0.0
385,20.60813224698497
386,25.82836212671204
387,-1.012765533804513
388,0.0
425,0.0
450,0.0
451,0.0
452,-1.7050345628394323
453,0.0
490,0.0
515,0.0
516,0.0
542,0.0
592,4840723.5292954575
632,32788696.567144856
686,1.0
687,1.0
688,2.0
2,21, 1,21, 0, 7,50.00,60.00,Monday
250,-0.3564096911493474
251,37885334.486948125
336,0.0
385,20.60813224698497
386,25.82836212671204
387,-1.0359999307280456
388,0.0
425,0.0
450,0.0
451,0.0
452,-1.7813854144066354
453,0.0
490,0.0
515,0.0
516,0.0
542,0.0
592,4870050.865369482
632,32756409.847919274
686,1.0
687,1.0
688,2.0
2,21, 1,21, 0, 8, 0.00,10.00,Monday
250,-0.15617423471966368
251,37774577.08483632
336,0.0
385,20.60813224698497
386,25.82836212671204
387,-1.0321216663395212
388,0.0
425,0.0
450,0.0
451,0.0
452,-1.8403323949409987
453,0.0
490,0.0
515,0.0
516,0.0
542,0.0
592,4889730.300311493
632,32733769.240711633
686,1.0
687,1.0
688,2.0
2,21, 1,21, 0, 8,10.00,20.00,Monday
250,0.044140337231665126
251,37669042.40791703
336,0.0
385,20.60813224698497
386,25.82836212671204
387,-0.9906161855967189
388,0.0
425,0.0
450,0.0
451,0.0
452,-1.8314702339648863
453,0.0
490,0.0
515,0.0
516,0.0
542,0.0
592,4909380.719869504
632,32608633.39120135
686,1.0
687,1.0
688,2.0
2,21, 1,21, 0, 8,20.00,30.00,Monday
250,0.243284477440139
251,37564211.654017985
336,0.0
385,20.60813224698497
386,25.82836212671204
387,-0.9196263383951346
388,0.0
425,0.0
450,0.0
451,0.0
452,-1.724029390823001
453,0.0
490,0.0
515,0.0
516,0.0
542,0.0
592,4929009.6156952735
632,32483550.358303223
686,1.0
687,1.0
688,2.0
2,21, 1,21, 0, 8,30.00,40.00,Monday
250,0.44274332988852527
251,37459183.051535636
336,0.0
385,20.60813224698497
386,25.82836212671204
387,-0.8293831014753186
388,0.0
425,0.0
450,0.0
451,0.0
452,-1.5283763156346475
453,0.0
490,0.0
515,0.0
516,0.0
542,0.0
592,4952863.646772657
632,32354844.024822522
686,1.0
687,1.0
688,2.0
2,21, 1,21, 0, 8,40.00,50.00,Monday
250,0.6422642543174775
251,37353712.293554544
336,0.0
385,20.60813224698497
386,25.82836212671204
387,-0.7278349454772782
388,0.0
425,0.0
450,0.0
451,0.0
452,-1.25292771027353
453,0.0
490,0.0
515,0.0
516,0.0
542,0.0
592,4977062.298687916
632,32225213.735174857
686,1.0
687,1.0
688,2.0
2,21, 1,21, 0, 8,50.00,60.00,Monday
250,0.8422403594747544
251,37248932.442262635
336,0.0
385,20.60813224698497
386,25.82836212671204
387,-0.631985048489593
388,0.0
425,0.0
450,0.0
451,0.0
452,-0.94003474475575
453,0.0
490,0.0
515,0.0
516,0.0
542,0.0
592,5001395.306277512
632,32042961.371720113
686,1.0
687,1.0
688,2.0
2,21, 1,21, 0, 9, 0.00,10.00,Monday
250,1.1082436438398193
251,37109636.665473074
336,0.0
385,20.60813224698497
386,25.82836212671204
387,-0.49363423299508263
388,0.0
425,0.0
450,0.0
451,0.0
452,-0.46067184899837543
453,0.0
490,0.0
515,0.0
516,0.0
542,0.0
592,5029363.153609448
632,31892331.698184714
686,1.0
687,1.0
688,2.0
2,21, 1,21, 0, 9,10.00,20.00,Monday
250,1.3741212930804385
251,36969449.50597276
336,0.0
385,20.60813224698497
386,25.82836212671204
387,-0.34288596019528916
388,0.0
425,0.0
450,0.0
451,0.0
452,0.06355174895051977
453,0.0
490,0.0
515,0.0
516,0.0
542,0.0
592,5057356.862312016
632,31724123.743294902
686,1.0
687,1.0
688,2.0
2,21, 1,21, 0, 9,20.00,30.00,Monday
250,1.640090252426059
251,36829209.15666333
336,0.0
385,20.60813224698497
386,25.82836212671204
387,-0.1829798461612706
388,0.0
425,0.0
450,0.0
451,0.0
452,0.628257062498762
453,0.0
490,0.0
515,0.0
516,0.0
542,0.0
592,5085392.284952975
632,31555873.269452065
686,1.0
687,1.0
688,2.0
2,21, 1,21, 0, 9,30.00,40.00,Monday
250,1.9060098282633595
251,36688993.24048196
336,0.0
385,20.60813224698497
386,25.82836212671204
387,-0.013210740812214716
388,0.0
425,0.0
450,0.0
451,0.0
452,1.222894298193355
453,0.0
490,0.0
515,0.0
516,0.0
542,0.0
592,5113485.892141593
632,31387551.688897543
686,1.0
687,1.0
688,2.0
2,21, 1,21, 0, 9,40.00,50.00,Monday
250,2.172106963870751
251,36547682.84664072
336,0.0
385,20.608132246984987
386,25.828362126712058
387,0.1319867346514192
388,0.0
425,0.0
450,0.0
451,0.0
452,1.7245716591504427
453,0.0
490,0.0
515,0.0
516,0.0
542,0.0
592,5141654.529350725
632,31194929.119689688
686,1.0000000000000009
687,1.0000000000000009
688,2.0000000000000018
2,21, 1,21, 0, 9,50.00,60.00,Monday
250,2.4383148199037055
251,36406778.68823808
336,0.0
385,20.60813224698497
386,25.82836212671204
387,0.2841555636754497
388,0.0
425,0.0
450,0.0
451,0.0
452,2.265052935383267
453,0.0
490,0.0
515,0.0
516,0.0
542,0.0
592,5169915.672059795
632,31050310.272295617
686,1.0
687,1.0
688,2.0
2,21, 1,21, 0,10, 0.00,10.00,Monday
250,2.9023450435051594
251,36160562.64126528
336,0.0
385,20.60813224698497
386,25.828362126712037
387,0.4746499051858447
388,0.0
425,0.0
450,0.0
451,0.0
452,2.8243296045195336
453,0.0
490,0.0
515,0.0
516,0.0
542,0.0
592,5241404.10703412
632,30743646.72411582
686,1.0
687,1.0
688,2.0
2,21, 1,21, 0,10,10.00,20.00,Monday
250,3.3670815641699736
251,35914592.64696432
336,0.0
385,20.60813224698497
386,25.828362126712037
387,0.765700909570971
388,0.0
425,0.0
450,0.0
451,0.0
452,3.579225784018393
453,0.0
490,0.0
515,0.0
516,0.0
542,0.0
592,5315291.857316207
632,30422846.4412504
686,1.0
687,1.0
688,2.0
2,21, 1,21, 0,10,20.00,30.00,Monday
250,3.8320026344563503
251,35667252.13811634
336,0.0
385,20.60813224698496
386,25.82836212671203
387,1.0460762042550302
388,0.0
425,0.0
450,0.0
451,0.0
452,4.268113239037203
453,0.0
490,0.0
515,0.0
516,0.0
542,0.0
592,5391793.298050372
632,30099080.013572145
686,0.9999999999999996
687,0.9999999999999996
688,1.9999999999999991
2,21, 1,21, 0,10,30.00,40.00,Monday
250,4.297037426784162
251,35419716.40416984
336,0.0
385,20.60813224698498
386,25.82836212671205
387,1.3278315350426453
388,0.0
425,0.0
450,0.0
451,0.0
452,4.970070869203487
453,0.0
490,0.0
515,0.0
516,0.0
542,0.0
592,5471132.199313744
632,29772270.43154134
686,1.0000000000000004
687,1.0000000000000004
688,2.000000000000001
2,21, 1,21, 0,10,40.00,50.00,Monday
250,4.762234407750767
251,35171952.41921148
336,0.0
385,20.608132246984987
386,25.828362126712058
387,1.6179598752017612
388,0.0
425,0.0
450,0.0
451,0.0
452,5.734188325870351
453,0.0
490,0.0
515,0.0
516,0.0
542,0.0
592,5553542.375759332
632,29442172.277375847
686,1.0000000000000009
687,1.0000000000000009
688,2.0000000000000018
2,21, 1,21, 0,10,50.00,60.00,Monday
250,5.227439998227962
251,34924036.18591656
336,0.0
385,20.608132246984987
386,25.828362126712058
387,1.918174430836146
388,0.0
425,0.0
450,0.0
451,0.0
452,6.5632329342361295
453,0.0
490,0.0
515,0.0
516,0.0
542,0.0
592,5639267.778995938
632,29108581.29600702
686,1.0000000000000009
687,1.0000000000000009
688,2.0000000000000018
2,21, 1,21, 0,11, 0.00,10.00,Monday
250,5.5108970279769105
251,34773200.45531227
336,0.0
385,20.60813224698497
386,25.828362126712037
387,2.204674768531309
388,0.0
425,0.0
450,0.0
451,0.0
452,7.418451158217047
453,0.0
490,0.0
515,0.0
516,0.0
542,0.0
592,5689519.861596227
632,28875110.580152664
686,1.0
687,1.0
688,2.0
2,21, 1,21, 0,11,10.00,20.00,Monday
250,5.793823727802572
251,34622593.8413039
336,0.0
385,20.60813224698497
386,25.828362126712037
387,2.474440084883914
388,0.0
425,0.0
450,0.0
451,0.0
452,8.268967248540077
453,0.0
490,0.0
515,0.0
516,0.0
542,0.0
592,5740969.350869596
632,28672975.288200457
686,1.0
687,1.0
688,2.0
2,21, 1,21, 0,11,20.00,30.00,Monday
250,6.076795426792346
251,34471913.2872503
336,0.0
385,20.60813224698496
386,25.82836212671203
387,2.746599215437496
388,0.0
425,0.0
450,0.0
451,0.0
452,9.115565086437897
453,0.0
490,0.0
515,0.0
516,0.0
542,0.0
592,5793671.095282219
632,28469617.755285162
686,0.9999999999999996
687,0.9999999999999996
688,1.9999999999999991
2,21, 1,21, 0,11,30.00,40.00,Monday
250,6.359579170103363
251,34321281.22642736
336,0.0
385,20.60813224698498
386,25.82836212671205
387,3.0239340421281407
388,0.0
425,0.0
450,0.0
451,0.0
452,9.937374992211698
453,0.0
490,0.0
515,0.0
516,0.0
542,0.0
592,5847681.427966584
632,28264959.040270515
686,1.0000000000000004
687,1.0000000000000004
688,2.000000000000001
2,21, 1,21, 0,11,40.00,50.00,Monday
250,6.64228217760426
251,34170638.705052264
336,0.0
385,20.608132246984987
386,25.828362126712058
387,3.303043182114698
388,0.0
425,0.0
450,0.0
451,0.0
452,10.682931604589525
453,0.0
490,0.0
515,0.0
516,0.0
542,0.0
592,5903058.082199926
632,28058943.310412314
686,1.0000000000000009
687,1.0000000000000009
688,2.0000000000000018
2,21, 1,21, 0,11,50.00,60.00,Monday
250,6.9248759280391
251,34019999.62350708
336,0.0
385,20.608132246984987
386,25.828362126712058
387,3.5800743698278428
388,0.0
425,0.0
450,0.0
451,0.0
452,11.318768169725784
453,0.0
490,0.0
515,0.0
516,0.0
542,0.0
592,5959860.237244541
632,27851500.882801108
686,1.0000000000000009
687,1.0000000000000009
688,2.0000000000000018
2,21, 1,21, 0,12, 0.00,10.00,Monday
250,7.191552081166481
251,33877882.07205907
336,0.0
385,20.60813224698497
386,25.82836212671204
387,3.820083658474438
388,0.0
425,0.0
450,0.0
451,0.0
452,11.817877285107585
453,0.0
490,0.0
515,0.0
516,0.0
542,0.0
592,5991096.197635707
632,27700420.30710537
686,1.0
687,1.0
688,2.0
2,21, 1,21, 0,12,10.00,20.00,Monday
250,7.457097222859259
251,33739852.97086616
336,0.0
385,20.60813224698497
386,25.82836212671204
387,4.11248001091786
388,0.0
425,0.0
450,0.0
451,0.0
452,12.381870101935917
453,0.0
490,0.0
515,0.0
516,0.0
542,0.0
592,7572016.881221028
632,25979655.907998644
686,1.0
687,1.0
688,2.0
2,21, 1,21, 0,12,20.00,30.00,Monday
250,7.723203172348801
251,33599798.74308571
336,0.0
385,20.60813224698497
386,25.82836212671204
387,4.38160657460657
388,0.0
425,0.0
450,0.0
451,0.0
452,12.896785111824396
453,0.0
490,0.0
515,0.0
516,0.0
542,0.0
592,7609409.155487607
632,25802354.29843909
686,1.0
687,1.0
688,2.0
2,21, 1,21, 0,12,30.00,40.00,Monday
250,7.98924282799168
251,33459781.392228343
336,0.0
385,20.60813224698497
386,25.82836212671204
387,4.640430783418676
388,0.0
425,0.0
450,0.0
451,0.0
452,13.388660338842516
453,0.0
490,0.0
515,0.0
516,0.0
542,0.0
592,7646583.592010483
632,25625144.536754638
686,1.0
687,1.0
688,2.0
2,21, 1,21, 0,12,40.00,50.00,Monday
250,8.255258225980729
251,33319776.826314025
336,0.0
385,20.60813224698497
386,25.82836212671204
387,4.894865475305726
388,0.0
425,0.0
450,0.0
451,0.0
452,13.830772458299723
453,0.0
490,0.0
515,0.0
516,0.0
542,0.0
592,7683540.190789655
632,25448177.01436366
686,1.0
687,1.0
688,2.0
2,21, 1,21, 0,12,50.00,60.00,Monday
250,8.52126654529106
251,33179775.29630594
336,0.0
385,20.60813224698497
386,25.82836212671204
387,5.143819355661588
388,0.0
425,0.0
450,0.0
451,0.0
452,14.198546179223523
453,0.0
490,0.0
515,0.0
516,0.0
542,0.0
592,7720278.951825122
632,25271435.290062077
686,1.0
687,1.0
688,2.0
2,21, 1,21, 0,13, 0.00,10.00,Monday
250,8.704293805479454
251,33081069.42227935
336,0.0
385,20.60813224698497
386,25.82836212671204
387,5.376215280184173
388,0.0
425,0.0
450,0.0
451,0.0
452,14.489778514939347
453,0.0
490,0.0
515,0.0
516,0.0
542,0.0
592,7745410.487127082
632,25173893.40094021
686,1.0
687,1.0
688,2.0
2,21, 1,21, 0,13,10.00,20.00,Monday
250,8.886996240447898
251,32986541.48849075
336,0.0
385,20.60813224698497
386,25.82836212671204
387,5.595014035785242
388,0.0
425,0.0
450,0.0
451,0.0
452,14.71904374588762
453,0.0
490,0.0
515,0.0
516,0.0
542,0.0
592,7770439.060057994
632,25055827.02395412
686,1.0
687,1.0
688,2.0
2,21, 1,21, 0,13,20.00,30.00,Monday
250,9.070124696626763
251,32891877.743592978
336,0.0
385,20.60813224698497
386,25.82836212671204
387,5.79992800435274
388,0.0
425,0.0
450,0.0
451,0.0
452,14.90223706491828
453,0.0
490,0.0
515,0.0
516,0.0
542,0.0
592,7795364.670617863
632,24936480.188952107
686,1.0
687,1.0
688,2.0
2,21, 1,21, 0,13,30.00,40.00,Monday
250,9.253128253414904
251,32797311.602393925
336,0.0
385,20.60813224698497
386,25.82836212671204
387,5.994977028880337
388,0.0
425,0.0
450,0.0
451,0.0
452,15.05111277610208
453,0.0
490,0.0
515,0.0
516,0.0
542,0.0
592,7820187.318806683
632,24817036.702913787
686,1.0
687,1.0
688,2.0
2,21, 1,21, 0,13,40.00,50.00,Monday
250,9.436135909115919
251,32702776.729807474
336,0.0
385,20.60813224698497
386,25.82836212671204
387,6.183911620519967
388,0.0
425,0.0
450,0.0
451,0.0
452,15.170452844010967
453,0.0
490,0.0
515,0.0
516,0.0
542,0.0
592,7844907.004624449
632,24697797.263896357
686,1.0
687,1.0
688,2.0
2,21, 1,21, 0,13,50.00,60.00,Monday
250,9.619137977526156
251,32608278.047946587
336,0.0
385,20.60813224698497
386,25.82836212671204
387,6.368031692579792
388,0.0
425,0.0
450,0.0
451,0.0
452,15.263887531634074
453,0.0
490,0.0
515,0.0
516,0.0
542,0.0
592,7869523.72807117
632,24578691.92636893
686,1.0
687,1.0
688,2.0
2,21, 1,21, 0,14, 0.00,10.00,Monday
250,9.819071580446998
251,32504667.7170054
336,0.0
385,20.60813224698497
386,25.82836212671204
387,6.550176314208762
388,0.0
425,0.0
450,0.0
451,0.0
452,15.320012661337191
453,0.0
490,0.0
515,0.0
516,0.0
542,0.0
592,7896260.907308879
632,24457502.670438737
686,1.0
687,1.0
688,2.0
2,21, 1,21, 0,14,10.00,20.00,Monday
250,10.018690461934648
251,32400829.238389306
336,0.0
385,20.60813224698497
386,25.82836212671204
387,6.730477218345787
388,0.0
425,0.0
450,0.0
451,0.0
452,15.320507316935561
453,0.0
490,0.0
515,0.0
516,0.0
542,0.0
592,7922875.552815756
632,24326892.801911034
686,1.0
687,1.0
688,2.0
2,21, 1,21, 0,14,20.00,30.00,Monday
250,10.218212054907061
251,32297058.21465317
336,0.0
385,20.60813224698497
386,25.82836212671204
387,6.906776458639003
388,0.0
425,0.0
450,0.0
451,0.0
452,15.264903592913923
453,0.0
490,0.0
515,0.0
516,0.0
542,0.0
592,7949367.664591794
632,24196590.48613145
686,1.0
687,1.0
688,2.0
2,21, 1,21, 0,14,30.00,40.00,Monday
250,10.417667767873477
251,32193347.392239403
336,0.0
385,20.60813224698497
386,25.82836212671204
387,7.073121489405034
388,0.0
425,0.0
450,0.0
451,0.0
452,15.142676179142967
453,0.0
490,0.0
515,0.0
516,0.0
542,0.0
592,7975737.242637003
632,24066488.034791276
686,1.0
687,1.0
688,2.0
2,21, 1,21, 0,14,40.00,50.00,Monday
250,10.617064826909074
251,32089690.307753775
336,0.0
385,20.60813224698497
386,25.82836212671204
387,7.225818542680721
388,0.0
425,0.0
450,0.0
451,0.0
452,14.934103909552283
453,0.0
490,0.0
515,0.0
516,0.0
542,0.0
592,8001984.286951375
632,23936565.915975388
686,1.0
687,1.0
688,2.0
2,21, 1,21, 0,14,50.00,60.00,Monday
250,10.816419909849483
251,31986078.406700846
336,0.0
385,20.60813224698497
386,25.82836212671204
387,7.365157883065324
388,0.0
425,0.0
450,0.0
451,0.0
452,14.642224425240201
453,0.0
490,0.0
515,0.0
516,0.0
542,0.0
592,8028108.797534915
632,23806820.687958766
686,1.0
687,1.0
688,2.0
2,21, 1,21, 0,15, 0.00,10.00,Monday
250,11.082278996055743
251,31847272.14114537
336,0.0
385,20.60813224698497
386,25.82836212671204
387,7.486141281213274
388,0.0
425,0.0
450,0.0
451,0.0
452,14.346919035331961
453,0.0
490,0.0
515,0.0
516,0.0
542,0.0
592,8062750.870287226
632,23598134.818415854
686,1.0
687,1.0
688,2.0
2,21, 1,21, 0,15,10.00,20.00,Monday