Program Version,EnergyPlus, Version 24.2.0-94a887817b, YMD=2025.02.04 15:38
1,5,Environment Title[],Latitude[deg],Longitude[deg],Time Zone[],Elevation[m]
2,8,Day of Simulation[],Month[],Day of Month[],DST Indicator[1=yes 0=no],Hour[],StartMinute[],EndMinute[],DayType
3,5,Cumulative Day of Simulation[],Month[],Day of Month[],DST Indicator[1=yes 0=no],DayType  ! When Daily Meters Requested
4,2,Cumulative Days of Simulation[],Month[]  ! When Monthly Meters Requested
5,1,Cumulative Days of Simulation[] ! When Run Period Meters Requested
6,1,Calendar Year of Simulation[] ! When Annual Meters Requested
11,9,Electricity:Facility [J] !Monthly [Value,Min,Day,Hour,Minute,Max,Day,Hour,Minute]
23,9,Electricity:Building [J] !Monthly [Value,Min,Day,Hour,Minute,Max,Day,Hour,Minute]
59,9,InteriorLights:Electricity [J] !Monthly [Value,Min,Day,Hour,Minute,Max,Day,Hour,Minute]
521,9,Electricity:HVAC [J] !Monthly [Value,Min,Day,Hour,Minute,Max,Day,Hour,Minute]
637,9,NaturalGas:Facility [J] !Monthly [Value,Min,Day,Hour,Minute,Max,Day,Hour,Minute]
649,9,NaturalGas:HVAC [J] !Monthly [Value,Min,Day,Hour,Minute,Max,Day,Hour,Minute]
13,11,Electricity:Facility [J] !RunPeriod [Value,Min,Month,Day,Hour,Minute,Max,Month,Day,Hour,Minute]
25,11,Electricity:Building [J] !RunPeriod [Value,Min,Month,Day,Hour,Minute,Max,Month,Day,Hour,Minute]
61,11,InteriorLights:Electricity [J] !RunPeriod [Value,Min,Month,Day,Hour,Minute,Max,Month,Day,Hour,Minute]
523,11,Electricity:HVAC [J] !RunPeriod [Value,Min,Month,Day,Hour,Minute,Max,Month,Day,Hour,Minute]
639,11,NaturalGas:Facility [J] !RunPeriod [Value,Min,Month,Day,Hour,Minute,Max,Month,Day,Hour,Minute]
651,11,NaturalGas:HVAC [J] !RunPeriod [Value,Min,Month,Day,Hour,Minute,Max,Month,Day,Hour,Minute]
End of Data Dictionary
1,RUN PERIOD 1,  41.98, -87.92,  -6.00, 201.00
4,31, 1
11,9837482823.101606,408891.4285714286, 5, 6,50,2989931.733890564,16,13,60
23,998432721.8706294,30000.0, 1, 1,10,620458.4941091392, 1, 9,10
59,970200000.0,30000.0, 1, 1,10,600000.0, 1, 8,10
521,8839050101.230986,378891.4285714286, 5, 6,50,2369473.239781425,16,13,60
637,179175980007.13623,28335352.048844617,21,16,10,41250000.0, 1, 1,10
649,179175980007.13623,28335352.048844617,21,16,10,41250000.0, 1, 1,10
4,59, 2
11,9369086313.99484,99999999999999.0, 5, 6,50,3031393.174153686,22,15,30
23,872710192.9309818,99999999999999.0, 1, 1,10,-99999999999999.0, 1, 9,10
59,848160000.0,99999999999999.0, 1, 1,10,-99999999999999.0, 1, 8,10
521,8496376121.063895,99999999999999.0, 5, 6,50,2410934.680044547,22,15,30
637,158601609168.4397,26643988.361675944,23,12,10,-99999999999999.0, 1, 1,10
649,158601609168.4397,26643988.361675944,23,12,10,-99999999999999.0, 1, 1,10
4,90, 3
11,10990437952.577635,99999999999999.0, 5, 6,50,3240468.2022878667,27,15,20
23,923257702.577531,99999999999999.0, 1, 1,10,-99999999999999.0, 1, 9,10
59,897480000.0,99999999999999.0, 1, 1,10,-99999999999999.0, 1, 8,10
521,10067180250.000086,0.0,27,15,40,2620009.7081787274,27,15,20
637,162909509447.59747,0.0,27,15,30,-99999999999999.0, 1, 1,10
649,162909509447.59747,0.0,27,15,30,-99999999999999.0, 1, 1,10
4,120, 4
11,9662487361.039618,30000.0,11,19,10,3243917.2086192677,11,12,20
23,956525212.2240802,99999999999999.0, 1, 1,10,-99999999999999.0, 1, 9,10
59,929520000.0,99999999999999.0, 1, 1,10,-99999999999999.0, 1, 8,10
521,8705962148.815592,99999999999999.0,27,15,40,2625145.7935869372,15, 8,20
637,120845385594.41913,99999999999999.0,27,15,30,-99999999999999.0, 1, 1,10
649,120845385594.41913,99999999999999.0,27,15,30,-99999999999999.0, 1, 1,10
4,151, 5
11,9243713693.725069,99999999999999.0,11,19,10,3245261.5958497943,31, 9,20
23,998719945.738045,99999999999999.0, 1, 1,10,636388.2002207218,28,13,10
59,970200000.0,99999999999999.0, 1, 1,10,-99999999999999.0, 1, 8,10
521,8244993747.987149,99999999999999.0,27,15,40,-99999999999999.0,15, 8,20
637,93783804136.80287,99999999999999.0,27,15,30,-99999999999999.0, 1, 1,10
649,93783804136.80287,99999999999999.0,27,15,30,-99999999999999.0, 1, 1,10
4,181, 6
11,7297764868.412413,99999999999999.0,11,19,10,-99999999999999.0,31, 9,20
23,881376216.8327764,99999999999999.0, 1, 1,10,-99999999999999.0,28,13,10
59,856800000.0,99999999999999.0, 1, 1,10,-99999999999999.0, 1, 8,10
521,6416388651.579664,99999999999999.0,27,15,40,-99999999999999.0,15, 8,20
637,42575677596.77607,99999999999999.0,27,15,30,-99999999999999.0, 1, 1,10
649,42575677596.77607,99999999999999.0,27,15,30,-99999999999999.0, 1, 1,10
4,212, 7
11,6798130647.134629,99999999999999.0,11,19,10,-99999999999999.0,31, 9,20
23,998690780.4367076,99999999999999.0, 1, 1,10,-99999999999999.0,28,13,10
59,970200000.0,99999999999999.0, 1, 1,10,-99999999999999.0, 1, 8,10
521,5799439866.697935,99999999999999.0,27,15,40,2625921.5201497828, 8, 7,40
637,15574987753.783142,99999999999999.0,27,15,30,-99999999999999.0, 1, 1,10
649,15574987753.783142,99999999999999.0,27,15,30,-99999999999999.0, 1, 1,10
4,243, 8
11,6005461177.059982,99999999999999.0,11,19,10,-99999999999999.0,31, 9,20
23,961123396.0112514,99999999999999.0, 1, 1,10,636486.7102642696,12,14,10
59,933840000.0,99999999999999.0, 1, 1,10,-99999999999999.0, 1, 8,10
521,5044337781.048742,99999999999999.0,27,15,40,-99999999999999.0, 8, 7,40
637,28856396777.651913,99999999999999.0,27,15,30,-99999999999999.0, 1, 1,10
649,28856396777.651913,99999999999999.0,27,15,30,-99999999999999.0, 1, 1,10
4,273, 9
11,7535570158.96453,99999999999999.0,11,19,10,3245426.6337766917, 3,10,20
23,918937702.577531,99999999999999.0, 1, 1,10,-99999999999999.0,12,14,10
59,893160000.0,99999999999999.0, 1, 1,10,-99999999999999.0, 1, 8,10
521,6616632456.387027,99999999999999.0,27,15,40,2626029.582740458, 8, 9,40
637,65025478700.5634,99999999999999.0,27,15,30,-99999999999999.0, 1, 1,10
649,65025478700.5634,99999999999999.0,27,15,30,-99999999999999.0, 1, 1,10
4,304,10
11,10606530108.646238,99999999999999.0,11,19,10,-99999999999999.0, 3,10,20
23,998450518.2306061,99999999999999.0, 1, 1,10,638254.8540857674,22,16,40
59,970200000.0,99999999999999.0, 1, 1,10,-99999999999999.0, 1, 8,10
521,9608079590.415691,99999999999999.0,27,15,40,-99999999999999.0, 8, 9,40
637,128932483377.36224,99999999999999.0,27,15,30,-99999999999999.0, 1, 1,10
649,128932483377.36224,99999999999999.0,27,15,30,-99999999999999.0, 1, 1,10
4,334,11
11,10478205178.783104,99999999999999.0,11,19,10,-99999999999999.0, 3,10,20
23,918937702.577531,99999999999999.0, 1, 1,10,-99999999999999.0,22,16,40
59,893160000.0,99999999999999.0, 1, 1,10,-99999999999999.0, 1, 8,10
521,9559267476.20559,99999999999999.0,27,15,40,-99999999999999.0, 8, 9,40
637,148032977885.28055,99999999999999.0,27,15,30,-99999999999999.0, 1, 1,10
649,148032977885.28055,99999999999999.0,27,15,30,-99999999999999.0, 1, 1,10
4,365,12
11,10449795832.607866,99999999999999.0,11,19,10,-99999999999999.0, 3,10,20
23,960845212.2240802,99999999999999.0, 1, 1,10,-99999999999999.0,22,16,40
59,933840000.0,99999999999999.0, 1, 1,10,-99999999999999.0, 1, 8,10
521,9488950620.383821,99999999999999.0,27,15,40,-99999999999999.0, 8, 9,40
637,180029104716.19022,99999999999999.0,27,15,30,-99999999999999.0, 1, 1,10
649,180029104716.19022,99999999999999.0,27,15,30,-99999999999999.0, 1, 1,10
5,365
13,108274666116.0558,30000.0, 4,11,19,10,3245426.6337766917, 9, 3,10,20
25,11388007304.228119,30000.0, 1, 1, 1,10,638254.8540857674,10,22,16,40
61,11066760000.0,30000.0, 1, 1, 1,10,600000.0, 1, 1, 8,10
523,96886658811.82164,0.0, 3,27,15,40,2626029.582740458, 9, 8, 9,40
639,1324343395162.0005,0.0, 3,27,15,30,41250000.0, 1, 1, 1,10
651,1324343395162.0005,0.0, 3,27,15,30,41250000.0, 1, 1, 1,10
1,RUN PERIOD 2,  41.98, -87.92,  -6.00, 201.00
4,1, 7
11,124451104.445011,99999999999999.0,11,19,10,-99999999999999.0, 3,10,20
23,41907509.64654833,99999999999999.0, 1, 1,10,-99999999999999.0,22,16,40
59,40680000.0,99999999999999.0, 1, 1,10,-99999999999999.0, 1, 8,10
521,82543594.79846269,99999999999999.0,27,15,40,-99999999999999.0, 8, 9,40
637,0.0,99999999999999.0,27,15,30,-99999999999999.0, 1, 1,10
649,0.0,99999999999999.0,27,15,30,-99999999999999.0, 1, 1,10
5,1
13,124451104.445011,99999999999999.0, 4,11,19,10,-99999999999999.0, 9, 3,10,20
25,41907509.64654833,99999999999999.0, 1, 1, 1,10,-99999999999999.0,10,22,16,40
61,40680000.0,99999999999999.0, 1, 1, 1,10,-99999999999999.0, 1, 1, 8,10
523,82543594.79846269,99999999999999.0, 3,27,15,40,-99999999999999.0, 9, 8, 9,40
639,0.0,99999999999999.0, 3,27,15,30,-99999999999999.0, 1, 1, 1,10
651,0.0,99999999999999.0, 3,27,15,30,-99999999999999.0, 1, 1, 1,10
End of Data
 Number of Records Written=          90
