Program Version,EnergyPlus, Version 24.2.0-94a887817b, YMD=2025.02.04 15:38
1,5,Environment Title[],Latitude[deg],Longitude[deg],Time Zone[],Elevation[m]
2,8,Day of Simulation[],Month[],Day of Month[],DST Indicator[1=yes 0=no],Hour[],StartMinute[],EndMinute[],DayType
3,5,Cumulative Day of Simulation[],Month[],Day of Month[],DST Indicator[1=yes 0=no],DayType  ! When Daily Meters Requested
4,2,Cumulative Days of Simulation[],Month[]  ! When Monthly Meters Requested
5,1,Cumulative Days of Simulation[] ! When Run Period Meters Requested
6,1,Calendar Year of Simulation[] ! When Annual Meters Requested
11,9,Electricity:Facility [J] !Monthly [Value,Min,Day,Hour,Minute,Max,Day,Hour,Minute]
23,9,Electricity:Building [J] !Monthly [Value,Min,Day,Hour,Minute,Max,Day,Hour,Minute]
59,9,InteriorLights:Electricity [J] !Monthly [Value,Min,Day,Hour,Minute,Max,Day,Hour,Minute]
521,9,Electricity:HVAC [J] !Monthly [Value,Min,Day,Hour,Minute,Max,Day,Hour,Minute]
637,9,NaturalGas:Facility [J] !Monthly [Value,Min,Day,Hour,Minute,Max,Day,Hour,Minute]
649,9,NaturalGas:HVAC [J] !Monthly [Value,Min,Day,Hour,Minute,Max,Day,Hour,Minute]
13,11,Electricity:Facility [J] !RunPeriod [Value,Min,Month,Day,Hour,Minute,Max,Month,Day,Hour,Minute]
25,11,Electricity:Building [J] !RunPeriod [Value,Min,Month,Day,Hour,Minute,Max,Month,Day,Hour,Minute]
61,11,InteriorLights:Electricity [J] !RunPeriod [Value,Min,Month,Day,Hour,Minute,Max,Month,Day,Hour,Minute]
523,11,Electricity:HVAC [J] !RunPeriod [Value,Min,Month,Day,Hour,Minute,Max,Month,Day,Hour,Minute]
639,11,NaturalGas:Facility [J] !RunPeriod [Value,Min,Month,Day,Hour,Minute,Max,Month,Day,Hour,Minute]
651,11,NaturalGas:HVAC [J] !RunPeriod [Value,Min,Month,Day,Hour,Minute,Max,Month,Day,Hour,Minute]
End of Data Dictionary
1,RUN PERIOD 1,  41.98, -87.92,  -6.00, 201.00
4,31, 1
11,9830725395.852425,408891.4285714286, 5, 6,50,2985035.0474781054,16,13,60
23,991675294.6214374,30000.0, 1, 1,10,615561.8076966804, 1, 9,10
59,970200000.0,30000.0, 1, 1,10,600000.0, 1, 8,10
521,8839050101.230986,378891.4285714286, 5, 6,50,2369473.239781425,16,13,60
637,179144699825.77628,28318935.422853943,21,16,10,41250000.0, 1, 1,10
649,179144699825.77628,28318935.422853943,21,16,10,41250000.0, 1, 1,10
4,59, 2
11,9363210290.29989,99999999999999.0, 5, 6,50,3026496.4877412273,22,15,30
23,866834169.2360317,99999999999999.0, 1, 1,10,-99999999999999.0, 1, 9,10
59,848160000.0,99999999999999.0, 1, 1,10,-99999999999999.0, 1, 8,10
521,8496376121.063895,99999999999999.0, 5, 6,50,2410934.680044547,22,15,30
637,158562099341.48056,26628122.600005213,23,12,10,-99999999999999.0, 1, 1,10
649,158562099341.48056,26628122.600005213,23,12,10,-99999999999999.0, 1, 1,10
4,90, 3
11,11019222410.753819,99999999999999.0, 5, 6,50,3271861.952585849,27,16,10
23,917087877.6978337,99999999999999.0, 1, 1,10,-99999999999999.0, 1, 9,10
59,897480000.0,99999999999999.0, 1, 1,10,-99999999999999.0, 1, 8,10
521,10102134533.055973,99999999999999.0, 5, 6,50,2656300.1448891684,27,16,10
637,163149809373.60016,21105170.118302003,27,16,10,-99999999999999.0, 1, 1,10
649,163149809373.60016,21105170.118302003,27,16,10,-99999999999999.0, 1, 1,10
4,120, 4
11,9820939298.522364,30000.0,11,19,10,3283276.299414901,11,14,20
23,950061586.1596354,99999999999999.0, 1, 1,10,-99999999999999.0, 1, 9,10
59,929520000.0,99999999999999.0, 1, 1,10,-99999999999999.0, 1, 8,10
521,8870877712.362825,0.0,11,14,30,2667959.5714633088,14,12,40
637,123702906012.39256,0.0,11,14,30,-99999999999999.0, 1, 1,10
649,123702906012.39256,0.0,11,14,30,-99999999999999.0, 1, 1,10
4,151, 5
11,9502256484.432577,99999999999999.0,11,19,10,3283969.426214898, 6,12,40
23,991989559.454653,99999999999999.0, 1, 1,10,631488.042444666,28,13,10
59,970200000.0,99999999999999.0, 1, 1,10,-99999999999999.0, 1, 8,10
521,8510266924.977927,99999999999999.0,11,14,30,2670203.6048899963,26,13,40
637,99175629615.51164,99999999999999.0,11,14,30,-99999999999999.0, 1, 1,10
649,99175629615.51164,99999999999999.0,11,14,30,-99999999999999.0, 1, 1,10
4,181, 6
11,7085498867.687534,99999999999999.0,11,19,10,-99999999999999.0, 6,12,40
23,875560472.9063739,99999999999999.0, 1, 1,10,-99999999999999.0,28,13,10
59,856800000.0,99999999999999.0, 1, 1,10,-99999999999999.0, 1, 8,10
521,6209938394.78121,99999999999999.0,11,14,30,2670794.708385173, 1,12,30
637,48870821092.4937,99999999999999.0,11,14,30,-99999999999999.0, 1, 1,10
649,48870821092.4937,99999999999999.0,11,14,30,-99999999999999.0, 1, 1,10
4,212, 7
11,6617830904.295232,99999999999999.0,11,19,10,3284912.4612826565, 9,11,50
23,991953007.8873999,99999999999999.0, 1, 1,10,-99999999999999.0,28,13,10
59,970200000.0,99999999999999.0, 1, 1,10,-99999999999999.0, 1, 8,10
521,5625877896.407887,99999999999999.0,11,14,30,-99999999999999.0, 1,12,30
637,24742851971.399033,99999999999999.0,11,14,30,-99999999999999.0, 1, 1,10
649,24742851971.399033,99999999999999.0,11,14,30,-99999999999999.0, 1, 1,10
4,243, 8
11,6298518449.170245,99999999999999.0,11,19,10,3287837.80189976, 6, 9,50
23,954664159.4984742,99999999999999.0, 1, 1,10,631587.4104851885,12,14,10
59,933840000.0,99999999999999.0, 1, 1,10,-99999999999999.0, 1, 8,10
521,5343854289.671897,99999999999999.0,11,14,30,2672275.99420308, 6, 9,50
637,39613887367.093056,99999999999999.0,11,14,30,-99999999999999.0, 1, 1,10
649,39613887367.093056,99999999999999.0,11,14,30,-99999999999999.0, 1, 1,10
4,273, 9
11,8233154377.721189,99999999999999.0,11,19,10,3288766.159194829,19,14,60
23,912767877.6978335,99999999999999.0, 1, 1,10,-99999999999999.0,12,14,10
59,893160000.0,99999999999999.0, 1, 1,10,-99999999999999.0, 1, 8,10
521,7320386500.023338,99999999999999.0,11,14,30,2673204.351498149,19,14,60
637,75025948338.42543,99999999999999.0,11,14,30,-99999999999999.0, 1, 1,10
649,75025948338.42543,99999999999999.0,11,14,30,-99999999999999.0, 1, 1,10
4,304,10
11,10786517889.091534,99999999999999.0,11,19,10,-99999999999999.0,19,14,60
23,991711224.7664647,99999999999999.0, 1, 1,10,633681.1070271335,22,16,30
59,970200000.0,99999999999999.0, 1, 1,10,-99999999999999.0, 1, 8,10
521,9794806664.325108,99999999999999.0,11,14,30,-99999999999999.0,19,14,60
637,130670824891.68933,99999999999999.0,11,14,30,-99999999999999.0, 1, 1,10
649,130670824891.68933,99999999999999.0,11,14,30,-99999999999999.0, 1, 1,10
4,334,11
11,10609817000.489798,99999999999999.0,11,19,10,-99999999999999.0,19,14,60
23,912767877.6978337,99999999999999.0, 1, 1,10,-99999999999999.0,22,16,30
59,893160000.0,99999999999999.0, 1, 1,10,-99999999999999.0, 1, 8,10
521,9697049122.791967,99999999999999.0,11,14,30,-99999999999999.0,19,14,60
637,149140963242.3595,99999999999999.0,11,14,30,-99999999999999.0, 1, 1,10
649,149140963242.3595,99999999999999.0,11,14,30,-99999999999999.0, 1, 1,10
4,365,12
11,10443332206.543436,99999999999999.0,11,19,10,-99999999999999.0,19,14,60
23,954381586.1596355,99999999999999.0, 1, 1,10,-99999999999999.0,22,16,30
59,933840000.0,99999999999999.0, 1, 1,10,-99999999999999.0, 1, 8,10
521,9488950620.383821,99999999999999.0,11,14,30,-99999999999999.0,19,14,60
637,179994455603.04678,99999999999999.0,11,14,30,-99999999999999.0, 1, 1,10
649,179994455603.04678,99999999999999.0,11,14,30,-99999999999999.0, 1, 1,10
5,365
13,109611023574.85526,30000.0, 4,11,19,10,3288766.159194829, 9,19,14,60
25,11311454693.784,30000.0, 1, 1, 1,10,633681.1070271335,10,22,16,30
61,11066760000.0,30000.0, 1, 1, 1,10,600000.0, 1, 1, 8,10
523,98299568881.0822,0.0, 4,11,14,30,2673204.351498149, 9,19,14,60
639,1371794896675.2673,0.0, 4,11,14,30,41250000.0, 1, 1, 1,10
651,1371794896675.2673,0.0, 4,11,14,30,41250000.0, 1, 1, 1,10
1,RUN PERIOD 2,  41.98, -87.92,  -6.00, 201.00
4,1, 7
11,96952007.37601458,99999999999999.0,11,19,10,-99999999999999.0,19,14,60
23,41613708.461800806,99999999999999.0, 1, 1,10,-99999999999999.0,22,16,30
59,40680000.0,99999999999999.0, 1, 1,10,-99999999999999.0, 1, 8,10
521,55338298.91421367,99999999999999.0,11,14,30,-99999999999999.0,19,14,60
637,0.0,99999999999999.0,11,14,30,-99999999999999.0, 1, 1,10
649,0.0,99999999999999.0,11,14,30,-99999999999999.0, 1, 1,10
5,1
13,96952007.37601458,99999999999999.0, 4,11,19,10,-99999999999999.0, 9,19,14,60
25,41613708.461800806,99999999999999.0, 1, 1, 1,10,-99999999999999.0,10,22,16,30
61,40680000.0,99999999999999.0, 1, 1, 1,10,-99999999999999.0, 1, 1, 8,10
523,55338298.91421367,99999999999999.0, 4,11,14,30,-99999999999999.0, 9,19,14,60
639,0.0,99999999999999.0, 4,11,14,30,-99999999999999.0, 1, 1, 1,10
651,0.0,99999999999999.0, 4,11,14,30,-99999999999999.0, 1, 1, 1,10
End of Data
 Number of Records Written=          90
