Program Version,EnergyPlus, Version 24.2.0-94a887817b, YMD=2025.02.04 15:38
1,5,Environment Title[],Latitude[deg],Longitude[deg],Time Zone[],Elevation[m]
2,8,Day of Simulation[],Month[],Day of Month[],DST Indicator[1=yes 0=no],Hour[],StartMinute[],EndMinute[],DayType
3,5,Cumulative Day of Simulation[],Month[],Day of Month[],DST Indicator[1=yes 0=no],DayType  ! When Daily Report Variables Requested
4,2,Cumulative Days of Simulation[],Month[]  ! When Monthly Report Variables Requested
5,1,Cumulative Days of Simulation[] ! When Run Period Report Variables Requested
6,1,Calendar Year of Simulation[] ! When Annual Report Variables Requested
250,1,LIVING ZONE,Zone Air Temperature [C] !TimeStep,REPORTSCH
251,1,LIVING ZONE,Zone Air System Sensible Heating Energy [J] !TimeStep,REPORTSCH
336,1,LIVING ZONE,Zone Air System Sensible Cooling Energy [J] !TimeStep,REPORTSCH
385,1,LIVING ZONE,Zone Thermostat Heating Setpoint Temperature [C] !TimeStep,REPORTSCH
386,1,LIVING ZONE,Zone Thermostat Cooling Setpoint Temperature [C] !TimeStep,REPORTSCH
387,1,GARAGE ZONE,Zone Air Temperature [C] !TimeStep,REPORTSCH
388,1,GARAGE ZONE,Zone Air System Sensible Heating Energy [J] !TimeStep,REPORTSCH
425,1,GARAGE ZONE,Zone Air System Sensible Cooling Energy [J] !TimeStep,REPORTSCH
450,1,GARAGE ZONE,Zone Thermostat Heating Setpoint Temperature [C] !TimeStep,REPORTSCH
451,1,GARAGE ZONE,Zone Thermostat Cooling Setpoint Temperature [C] !TimeStep,REPORTSCH
452,1,ATTIC ZONE,Zone Air Temperature [C] !TimeStep,REPORTSCH
453,1,ATTIC ZONE,Zone Air System Sensible Heating Energy [J] !TimeStep,REPORTSCH
490,1,ATTIC ZONE,Zone Air System Sensible Cooling Energy [J] !TimeStep,REPORTSCH
515,1,ATTIC ZONE,Zone Thermostat Heating Setpoint Temperature [C] !TimeStep,REPORTSCH
516,1,ATTIC ZONE,Zone Thermostat Cooling Setpoint Temperature [C] !TimeStep,REPORTSCH
542,1,ACDXCOIL 1,Cooling Coil Total Cooling Energy [J] !TimeStep,REPORTSCH
592,1,HEAT PUMP DX HEATING COIL 1,Heating Coil Heating Energy [J] !TimeStep,REPORTSCH
632,1,SUPP HEATING COIL 1,Heating Coil Heating Energy [J] !TimeStep,REPORTSCH
686,1,TWOSPEED HEAT PUMP 1,Unitary System DX Coil Cycling Ratio [] !TimeStep,REPORTSCH
687,1,TWOSPEED HEAT PUMP 1,Unitary System DX Coil Speed Ratio [] !TimeStep,REPORTSCH
688,1,TWOSPEED HEAT PUMP 1,Unitary System DX Coil Speed Level [] !TimeStep,REPORTSCH
End of Data Dictionary
1,RUN PERIOD 1,  41.98, -87.92,  -6.00, 201.00
2,21, 1,21, 0, 1, 0.00,10.00,Monday
250,-0.8249366394939207
251,38098096.10567895
336,0.0
385,21.808664418877992
386,27.81515588387519
387,-0.9474571889783198
388,0.0
425,0.0
450,0.0
451,0.0
452,-1.9748226374447964
453,0.0
490,0.0
515,0.0
516,0.0
542,0.0
592,4839743.985079642
632,33000000.0
686,1.0
687,1.0
688,2.0
2,21, 1,21, 0, 1,10.00,20.00,Monday
250,-0.8250936881759376
251,38082777.645981535
336,0.0
385,21.808664418877992
386,27.81515588387519
387,-0.955818088741803
388,0.0
425,0.0
450,0.0
451,0.0
452,-1.9566779351333157
453,0.0
490,0.0
515,0.0
516,0.0
542,0.0
592,4823801.676011796
632,33000000.0
686,1.0
687,1.0
688,2.0
2,21, 1,21, 0, 1,20.00,30.00,Monday
250,-0.8252926144095206
251,38066856.68078947
336,0.0
385,21.808664418877992
386,27.81515588387519
387,-0.9654144304905387
388,0.0
425,0.0
450,0.0
451,0.0
452,-1.9535994007564836
453,0.0
490,0.0
515,0.0
516,0.0
542,0.0
592,4807858.162905221
632,33000000.0
686,1.0
687,1.0
688,2.0
2,21, 1,21, 0, 1,30.00,40.00,Monday
250,-0.8254865579612765
251,38050909.285674624
336,0.0
385,21.808664418877992
386,27.81515588387519
387,-0.9764509317798684
388,0.0
425,0.0
450,0.0
451,0.0
452,-1.9664735765361796
453,0.0
490,0.0
515,0.0
516,0.0
542,0.0
592,4791913.445623511
632,33000000.0
686,1.0
687,1.0
688,2.0
2,21, 1,21, 0, 1,40.00,50.00,Monday
250,-0.8256820096702647
251,38034964.18058176
336,0.0
385,21.808664418877992
386,27.81515588387519
387,-0.9890848760312463
388,0.0
425,0.0
450,0.0
451,0.0
452,-1.9936793875968664
453,0.0
490,0.0
515,0.0
516,0.0
542,0.0
592,4775967.524030239
632,33000000.0
686,1.0
687,1.0
688,2.0
2,21, 1,21, 0, 1,50.00,60.00,Monday
250,-0.8258780652092047
251,38019017.38421602
336,0.0
385,21.808664418877992
386,27.81515588387519
387,-1.0035050462810815
388,0.0
425,0.0
450,0.0
451,0.0
452,-2.0336878924935555
453,0.0
490,0.0
515,0.0
516,0.0
542,0.0
592,4760020.397988958
632,33000000.0
686,1.0
687,1.0
688,2.0
2,21, 1,21, 0, 2, 0.00,10.00,Monday
250,-0.8259589469366039
251,38018955.37573178
336,0.0
385,21.808664418877992
386,27.81515588387519
387,-1.0190289076062382
388,0.0
425,0.0
450,0.0
451,0.0
452,-2.080453627832376
453,0.0
490,0.0
515,0.0
516,0.0
542,0.0
592,4760020.397988958
632,33000000.0
686,1.0
687,1.0
688,2.0
2,21, 1,21, 0, 2,10.00,20.00,Monday
250,-0.8260370516606221
251,38018953.880529396
336,0.0
385,21.808664418877992
386,27.81515588387519
387,-1.0347134320629299
388,0.0
425,0.0
450,0.0
451,0.0
452,-2.1231861629728
453,0.0
490,0.0
515,0.0
516,0.0
542,0.0
592,4760020.397988958
632,33000000.0
686,1.0
687,1.0
688,2.0
2,21, 1,21, 0, 2,20.00,30.00,Monday
250,-0.8261149710730059
251,38018953.78074372
336,0.0
385,21.808664418877992
386,27.81515588387519
387,-1.050004880009622
388,0.0
425,0.0
450,0.0
451,0.0
452,-2.1546555819735222
453,0.0
490,0.0
515,0.0
516,0.0
542,0.0
592,4760020.397988959
632,33000000.0
686,1.0
687,1.0
688,2.0
2,21, 1,21, 0, 2,30.00,40.00,Monday
250,-0.8261913820075126
251,38018952.96853546
336,0.0
385,21.808664418877992
386,27.81515588387519
387,-1.0645818775096685
388,0.0
425,0.0
450,0.0
451,0.0
452,-2.1740385176318413
453,0.0
490,0.0
515,0.0
516,0.0
542,0.0
592,4760020.397988958
632,33000000.0
686,1.0
687,1.0
688,2.0
2,21, 1,21, 0, 2,40.00,50.00,Monday
250,-0.8262666493630458
251,38018952.35279781
336,0.0
385,21.808664418877992
386,27.81515588387519
387,-1.078303982798717
388,0.0
425,0.0
450,0.0
451,0.0
452,-2.1841791716756735
453,0.0
490,0.0
515,0.0
516,0.0
542,0.0
592,4760020.397988958
632,33000000.0
686,1.0
687,1.0
688,2.0
2,21, 1,21, 0, 2,50.00,60.00,Monday
250,-0.8263405811873897
251,38018951.633707106
336,0.0
385,21.808664418877992
386,27.81515588387519
387,-1.0911338110747035
388,0.0
425,0.0
450,0.0
451,0.0
452,-2.1882262444946723
453,0.0
490,0.0
515,0.0
516,0.0
542,0.0
592,4760020.397988958
632,33000000.0
686,1.0
687,1.0
688,2.0
2,21, 1,21, 0, 3, 0.00,10.00,Monday
250,-0.7440562203472335
251,37977145.91583725
336,0.0
385,21.808664418877992
386,27.81515588387519
387,-1.0926821907488626
388,0.0
425,0.0
450,0.0
451,0.0
452,-2.1807474946144056
453,0.0
490,0.0
515,0.0
516,0.0
542,0.0
592,4762558.894114007
632,33000000.0
686,1.0
687,1.0
688,2.0
2,21, 1,21, 0, 3,10.00,20.00,Monday
250,-0.660488980723495
251,37978882.88250676
336,0.0
385,21.808664418877992
386,27.81515588387519
387,-1.081636248777495
388,0.0
425,0.0
450,0.0
451,0.0
452,-2.1557669344907873
453,0.0
490,0.0
515,0.0
516,0.0
542,0.0
592,4764988.4357309695
632,33000000.0
686,1.0
687,1.0
688,2.0
2,21, 1,21, 0, 3,20.00,30.00,Monday
250,-0.5773709889614386
251,37981442.73117669
336,0.0
385,21.808664418877992
386,27.81515588387519
387,-1.0624039682885709
388,0.0
425,0.0
450,0.0
451,0.0
452,-2.1118364064710198
453,0.0
490,0.0
515,0.0
516,0.0
542,0.0
592,4767308.250738335
632,33000000.0
686,1.0
687,1.0
688,2.0
2,21, 1,21, 0, 3,30.00,40.00,Monday
250,-0.49429821325603424
251,37960989.78153621
336,0.0
385,21.808664418877992
386,27.81515588387519
387,-1.0387807585494608
388,0.0
425,0.0
450,0.0
451,0.0
452,-2.0520887257936544
453,0.0
490,0.0
515,0.0
516,0.0
542,0.0
592,4769517.689516205
632,32977315.129492007
686,1.0
687,1.0
688,2.0
2,21, 1,21, 0, 3,40.00,50.00,Monday
250,-0.41136348668061007
251,37917923.101108894
336,0.0
385,21.808664418877992
386,27.81515588387519
387,-1.0120723667047427
388,0.0
425,0.0
450,0.0
451,0.0
452,-1.9810085851706878
453,0.0
490,0.0
515,0.0
516,0.0
542,0.0
592,4771616.115684973
632,32932077.560668018
686,1.0
687,1.0
688,2.0
2,21, 1,21, 0, 3,50.00,60.00,Monday
250,-0.32841508929090835
251,37874855.869588844
336,0.0
385,21.808664418877992
386,27.81515588387519
387,-0.9820346070373066
388,0.0
425,0.0
450,0.0
451,0.0
452,-1.9022142573382637
453,0.0
490,0.0
515,0.0
516,0.0
542,0.0
592,4773602.736238396
632,32887032.960227616
686,1.0
687,1.0
688,2.0
2,21, 1,21, 0, 4, 0.00,10.00,Monday
250,-0.3277877226514421
251,37876130.617917754
336,0.0
385,21.808664418877992
386,27.81515588387519
387,-0.9593041409194626
388,0.0
425,0.0
450,0.0
451,0.0
452,-1.8259944591018182
453,0.0
490,0.0
515,0.0
516,0.0
542,0.0
592,4773428.982371633
632,32844148.08509586
686,1.0
687,1.0
688,2.0
2,21, 1,21, 0, 4,10.00,20.00,Monday
250,-0.3281333371460062
251,37876372.95184175
336,0.0
385,21.808664418877992
386,27.81515588387519
387,-0.9467046135722998
388,0.0
425,0.0
450,0.0
451,0.0
452,-1.7613893083560792
453,0.0
490,0.0
515,0.0
516,0.0
542,0.0
592,4773255.169447958
632,32844040.217451718
686,1.0
687,1.0
688,2.0
2,21, 1,21, 0, 4,20.00,30.00,Monday
250,-0.3280028663510458
251,37876334.19177088
336,0.0
385,21.808664418877992
386,27.81515588387519
387,-0.9407224259301727
388,0.0
425,0.0
450,0.0
451,0.0
452,-1.7120030234159966
453,0.0
490,0.0
515,0.0
516,0.0
542,0.0
592,4773081.29743726
632,32844431.733013224
686,1.0
687,1.0
688,2.0
2,21, 1,21, 0, 4,30.00,40.00,Monday
250,-0.32797298950058273
251,37876358.64002917
336,0.0
385,21.808664418877992
386,27.81515588387519
387,-0.9374822152883724
388,0.0
425,0.0
450,0.0
451,0.0
452,-1.676175733048937
453,0.0
490,0.0
515,0.0
516,0.0
542,0.0
592,4772907.3663094025
632,32844575.935848173
686,1.0
687,1.0
688,2.0
2,21, 1,21, 0, 4,40.00,50.00,Monday
250,-0.3279494600747599
251,37876384.72388105
336,0.0
385,21.808664418877992
386,27.81515588387519
387,-0.9351959642430631
388,0.0
425,0.0
450,0.0
451,0.0
452,-1.6502367392291473
453,0.0
490,0.0
515,0.0
516,0.0
542,0.0
592,4772733.376034233
632,32844772.591471743
686,1.0
687,1.0
688,2.0
2,21, 1,21, 0, 4,50.00,60.00,Monday
250,-0.3279253996841212
251,37876410.41881691
336,0.0
385,21.808664418877992
386,27.81515588387519
387,-0.9336854405632671
388,0.0
425,0.0
450,0.0
451,0.0
452,-1.6311280954551115
453,0.0
490,0.0
515,0.0
516,0.0
542,0.0
592,4772559.326581575
632,32844972.621834155
686,1.0
687,1.0
688,2.0
2,21, 1,21, 0, 5, 0.00,10.00,Monday
250,-0.3279028075225218
251,37876436.93868792
336,0.0
385,21.808664418877992
386,27.81515588387519
387,-0.9330072555668477
388,0.0
425,0.0
450,0.0
451,0.0
452,-1.616234440128294
453,0.0
490,0.0
515,0.0
516,0.0
542,0.0
592,4759720.858689582
632,32857836.818867568
686,1.0
687,1.0
688,2.0
2,21, 1,21, 0, 5,10.00,20.00,Monday
250,-0.3278715779738832
251,37877733.291645825
336,0.0
385,21.808664418877992
386,27.81515588387519
387,-0.9330261077435097
388,0.0
425,0.0
450,0.0
451,0.0
452,-1.6032449035621035
453,0.0
490,0.0
515,0.0
516,0.0
542,0.0
592,4746877.262331866
632,32871981.42059627
686,1.0
687,1.0
688,2.0
2,21, 1,21, 0, 5,20.00,30.00,Monday
250,-0.32784027504622504
251,37879050.31923272
336,0.0
385,21.808664418877992
386,27.81515588387519
387,-0.9335124194456168
388,0.0
425,0.0
450,0.0
451,0.0
452,-1.5907579574775874
453,0.0
490,0.0
515,0.0
516,0.0
542,0.0
592,4734028.534436011
632,32886147.21619378
686,1.0
687,1.0
688,2.0
2,21, 1,21, 0, 5,30.00,40.00,Monday
250,-0.32780913705534676
251,37880360.592065744
336,0.0
385,21.808664418877992
386,27.81515588387519
387,-0.934262259463819
388,0.0
425,0.0
450,0.0
451,0.0
452,-1.5783406200185586
453,0.0
490,0.0
515,0.0
516,0.0
542,0.0
592,4721174.671927154
632,32900311.263287153
686,1.0
687,1.0
688,2.0
2,21, 1,21, 0, 5,40.00,50.00,Monday
250,-0.3277779330101902
251,37881672.82821201
336,0.0
385,21.808664418877992
386,27.81515588387519
387,-0.9351394679237941
388,0.0
425,0.0
450,0.0
451,0.0
452,-1.5660620767475317
453,0.0
490,0.0
515,0.0
516,0.0
542,0.0
592,4708315.671727969
632,32914482.53580082
686,1.0
687,1.0
688,2.0
2,21, 1,21, 0, 5,50.00,60.00,Monday
250,-0.3277465872228147
251,37882985.6116784
336,0.0
385,21.808664418877992
386,27.81515588387519
387,-0.9360648638014794
388,0.0
425,0.0
450,0.0
451,0.0
452,-1.5540734955749718
453,0.0
490,0.0
515,0.0
516,0.0
542,0.0
592,4695451.530758676
632,32928659.537177823
686,1.0
687,1.0
688,2.0
2,21, 1,21, 0, 6, 0.00,10.00,Monday
250,-0.32771380880522366
251,37884298.13524678
336,0.0
385,21.808664418877992
386,27.81515588387519
387,-0.9371252422465925
388,0.0
425,0.0
450,0.0
451,0.0
452,-1.5430719317266415
453,0.0
490,0.0
515,0.0
516,0.0
542,0.0
592,4695264.08225586
632,32930160.281574506
686,1.0
687,1.0
688,2.0
2,21, 1,21, 0, 6,10.00,20.00,Monday
250,-0.3276898945590604
251,37884339.74137163
336,0.0
385,21.808664418877992
386,27.81515588387519
387,-0.9384040041364473
388,0.0
425,0.0
450,0.0
451,0.0
452,-1.533871473409033
453,0.0
490,0.0
515,0.0
516,0.0
542,0.0
592,4695076.56990001
632,32930384.625101037
686,1.0
687,1.0
688,2.0
2,21, 1,21, 0, 6,20.00,30.00,Monday
250,-0.32766599174373284
251,37884361.14780738
336,0.0
385,21.808664418877992
386,27.81515588387519
387,-0.9398952663429199
388,0.0
425,0.0
450,0.0
451,0.0
452,-1.526796826580033
453,0.0
490,0.0
515,0.0
516,0.0
542,0.0
592,4694888.993658494
632,32930593.601632353
686,1.0
687,1.0
688,2.0
2,21, 1,21, 0, 6,30.00,40.00,Monday
250,-0.3276417724250112
251,37884389.778789945
336,0.0
385,21.808664418877992
386,27.81515588387519
387,-0.9415568021379672
388,0.0
425,0.0
450,0.0
451,0.0
452,-1.521639844286344
453,0.0
490,0.0
515,0.0
516,0.0
542,0.0
592,4694701.35349866
632,32930810.043284297
686,1.0
687,1.0
688,2.0
2,21, 1,21, 0, 6,40.00,50.00,Monday
250,-0.32761731776491737
251,37884416.82427468
336,0.0
385,21.808664418877992
386,27.81515588387519
387,-0.9433565829645737
388,0.0
425,0.0
450,0.0
451,0.0
452,-1.5179516641693143
453,0.0
490,0.0
515,0.0
516,0.0
542,0.0
592,4694513.649387832
632,32931024.919668533
686,1.0
687,1.0
688,2.0
2,21, 1,21, 0, 6,50.00,60.00,Monday
250,-0.3275927420599439
251,37884443.72314693
336,0.0
385,21.808664418877992
386,27.81515588387519
387,-0.9452774207698912
388,0.0
425,0.0
450,0.0
451,0.0
452,-1.515312841958367
453,0.0
490,0.0
515,0.0
516,0.0
542,0.0
592,4694325.881293309
632,32931239.651854362
686,1.0
687,1.0
688,2.0
2,21, 1,21, 0, 7, 0.00,10.00,Monday
250,-0.3282167234131118
251,37884820.021478586
336,0.0
385,21.808664418877992
386,27.81515588387519
387,-0.9497407451641118
388,0.0
425,0.0
450,0.0
451,0.0
452,-1.5185913076682276
453,0.0
490,0.0
515,0.0
516,0.0
542,0.0
592,4723573.583255434
632,32902018.879683375
686,1.0
687,1.0
688,2.0
2,21, 1,21, 0, 7,10.00,20.00,Monday
250,-0.32819457676056996
251,37881906.86391291
336,0.0
385,21.808664418877992
386,27.81515588387519
387,-0.9589195538758806
388,0.0
425,0.0
450,0.0
451,0.0
452,-1.5372616229922929
453,0.0
490,0.0
515,0.0
516,0.0
542,0.0
592,4752837.186047653
632,32870190.178470083
686,1.0
687,1.0
688,2.0
2,21, 1,21, 0, 7,20.00,30.00,Monday
250,-0.3281564054700791
251,37878936.90352051
336,0.0
385,21.808664418877992
386,27.81515588387519
387,-0.973054832660126
388,0.0
425,0.0
450,0.0
451,0.0
452,-1.5766927727921256
453,0.0
490,0.0
515,0.0
516,0.0
542,0.0
592,4782116.702651946
632,32837949.331458326
686,1.0
687,1.0
688,2.0
2,21, 1,21, 0, 7,30.00,40.00,Monday
250,-0.3281216522024177
251,37875984.20582663
336,0.0
385,21.808664418877992
386,27.81515588387519
387,-0.9911920188091123
388,0.0
425,0.0
450,0.0
451,0.0
452,-1.6344987376681006
453,0.0
490,0.0
515,0.0
516,0.0
542,0.0
592,4811412.146064445
632,32805699.347945675
686,1.0
687,1.0
688,2.0
2,21, 1,21, 0, 7,40.00,50.00,Monday
250,-0.32808556513047926
251,37873025.80788489
336,0.0
385,21.808664418877992
386,27.81515588387519
387,-1.012252646532709
388,0.0
425,0.0
450,0.0
451,0.0
452,-1.7044246882424816
453,0.0
490,0.0
515,0.0
516,0.0
542,0.0
592,4840723.5292954575
632,32773430.283599846
686,1.0
687,1.0
688,2.0
2,21, 1,21, 0, 7,50.00,60.00,Monday
250,-0.32804897357604584
251,37870065.32886304
336,0.0
385,21.808664418877992
386,27.81515588387519
387,-1.035489896380234
388,0.0
425,0.0
450,0.0
451,0.0
452,-1.7807787689116925
453,0.0
490,0.0
515,0.0
516,0.0
542,0.0
592,4870050.865369484
632,32741142.738647416
686,1.0
687,1.0
688,2.0
2,21, 1,21, 0, 8, 0.00,10.00,Monday
250,-0.1277851951371735
251,37759293.85882534
336,0.0
385,21.808664418877992
386,27.81515588387519
387,-1.0316087302159804
388,0.0
425,0.0
450,0.0
451,0.0
452,-1.839727342297863
453,0.0
490,0.0
515,0.0
516,0.0
542,0.0
592,4889730.300311493
632,32718501.27124941
686,1.0
687,1.0
688,2.0
2,21, 1,21, 0, 8,10.00,20.00,Monday
250,0.07256916702534665
251,37653730.63692859
336,0.0
385,21.808664418877992
386,27.81515588387519
387,-0.9900920388433784
388,0.0
425,0.0
450,0.0
451,0.0
452,-1.8308734217924036
453,0.0
490,0.0
515,0.0
516,0.0
542,0.0
592,4909380.719869504
632,32593343.035294767
686,1.0
687,1.0
688,2.0
2,21, 1,21, 0, 8,20.00,30.00,Monday
250,0.2716061031956316
251,37548959.031497054
336,0.0
385,21.808664418877992
386,27.81515588387519
387,-0.9190968192381918
388,0.0
425,0.0
450,0.0
451,0.0
452,-1.7234448144379302
453,0.0
490,0.0
515,0.0
516,0.0
542,0.0
592,4929009.6156952735
632,32468240.002251
686,1.0
687,1.0
688,2.0
2,21, 1,21, 0, 8,30.00,40.00,Monday
250,0.4710064159801591
251,37443960.386788234
336,0.0
385,21.808664418877992
386,27.81515588387519
387,-0.8288375652394524
388,0.0
425,0.0
450,0.0
451,0.0
452,-1.5278159603335777
453,0.0
490,0.0
515,0.0
516,0.0
542,0.0
592,4952863.6467726575
632,32339589.82872462
686,1.0
687,1.0
688,2.0
2,21, 1,21, 0, 8,40.00,50.00,Monday
250,0.6704712160924367
251,37338519.46804418
336,0.0
385,21.808664418877992
386,27.81515588387519
387,-0.7272696112194065
388,0.0
425,0.0
450,0.0
451,0.0
452,-1.2523339579914465
453,0.0
490,0.0
515,0.0
516,0.0
542,0.0
592,4977062.298687916
632,32209990.678655036
686,1.0
687,1.0
688,2.0
2,21, 1,21, 0, 8,50.00,60.00,Monday
250,0.8704404443457254
251,37233741.25662726
336,0.0
385,21.808664418877992
386,27.81515588387519
387,-0.631408647879964
388,0.0
425,0.0
450,0.0
451,0.0
452,-0.9394147015141712
453,0.0
490,0.0
515,0.0
516,0.0
542,0.0
592,5001395.306277512
632,32027821.08561129
686,1.0
687,1.0
688,2.0
2,21, 1,21, 0, 9, 0.00,10.00,Monday
250,1.136340147658037
251,37094497.54416573
336,0.0
385,21.808664418877992
386,27.81515588387519
387,-0.4930461161091343
388,0.0
425,0.0
450,0.0
451,0.0
452,-0.4600331704535451
453,0.0
490,0.0
515,0.0
516,0.0
542,0.0
592,5029363.153609448
632,31877257.45490673
686,1.0
687,1.0
688,2.0
2,21, 1,21, 0, 9,10.00,20.00,Monday
250,1.4021267044238452
251,36954358.36905178
336,0.0
385,21.808664418877992
386,27.81515588387519
387,-0.34228590425194194
388,0.0
425,0.0
450,0.0
451,0.0
452,0.06419010267255927
453,0.0
490,0.0
515,0.0
516,0.0
542,0.0
592,5057356.862312016
632,31709100.52048134
686,1.0
687,1.0
688,2.0
2,21, 1,21, 0, 9,20.00,30.00,Monday
250,1.6680101110211418
251,36814162.79089892
336,0.0
385,21.808664418877992
386,27.81515588387519
387,-0.18238063973785304
388,0.0
425,0.0
450,0.0
451,0.0
452,0.6288916250532455
453,0.0
490,0.0
515,0.0
516,0.0
542,0.0
592,5085392.284952975
632,31540896.186735194
686,1.0
687,1.0
688,2.0
2,21, 1,21, 0, 9,30.00,40.00,Monday
250,1.9338447034121855
251,36673991.40279743
336,0.0
385,21.808664418877992
386,27.81515588387519
387,-0.01261793142034209
388,0.0
425,0.0
450,0.0
451,0.0
452,1.2235269525423598
453,0.0
490,0.0
515,0.0
516,0.0
542,0.0
592,5113485.892141593
632,31372619.248330466
686,1.0
687,1.0
688,2.0
2,21, 1,21, 0, 9,40.00,50.00,Monday
250,2.199874018077991
251,36532719.29831947
336,0.0
385,21.80866441887801
386,27.81515588387521
387,0.1325717093897081
388,0.0
425,0.0
450,0.0
451,0.0
452,1.7252192379488553
453,0.0
490,0.0
515,0.0
516,0.0
542,0.0
592,5141654.529350725
632,31179957.043470196
686,1.0000000000000009
687,1.0000000000000009
688,2.0000000000000018
2,21, 1,21, 0, 9,50.00,60.00,Monday
250,2.4660222971164494
251,36391844.90595856
336,0.0
385,21.808664418877992
386,27.81515588387519
387,0.2847364315975546
388,0.0
425,0.0
450,0.0
451,0.0
452,2.2657132261506643
453,0.0
490,0.0
515,0.0
516,0.0
542,0.0
592,5169915.672059795
632,31035430.530887924
686,1.0
687,1.0
688,2.0
2,21, 1,21, 0,10, 0.00,10.00,Monday
250,2.9297464359476946
251,36145793.57726523
336,0.0
385,21.808664418877992
386,27.815155883875192
387,0.4752251126516436
388,0.0
425,0.0
450,0.0
451,0.0
452,2.8250047590834635
453,0.0
490,0.0
515,0.0
516,0.0
542,0.0
592,5241404.10703412
632,30728832.098201375
686,1.0
687,1.0
688,2.0
2,21, 1,21, 0,10,10.00,20.00,Monday
250,3.3942505435542225
251,35899946.29955453
336,0.0
385,21.808664418877992
386,27.81515588387519
387,0.7662739165764028
388,0.0
425,0.0
450,0.0
451,0.0
452,3.579899708886723
453,0.0
490,0.0
515,0.0
516,0.0
542,0.0
592,5315291.857316207
632,30408174.214661613
686,1.0
687,1.0
688,2.0
2,21, 1,21, 0,10,20.00,30.00,Monday
250,3.858965014785484
251,35652715.88575313
336,0.0
385,21.808664418877985
386,27.81515588387518
387,1.0466502939268016
388,0.0
425,0.0
450,0.0
451,0.0
452,4.268805551066
453,0.0
490,0.0
515,0.0
516,0.0
542,0.0
592,5391793.298050372
632,30084522.52460914
686,0.9999999999999996
687,0.9999999999999996
688,1.9999999999999991
2,21, 1,21, 0,10,30.00,40.00,Monday
250,4.323807578315883
251,35405282.59208908
336,0.0
385,21.808664418878003
386,27.8151558838752
387,1.328406297839418
388,0.0
425,0.0
450,0.0
451,0.0
452,4.970730206967081
453,0.0
490,0.0
515,0.0
516,0.0
542,0.0
592,5471132.199313744
632,29757817.931494907
686,1.0000000000000004
687,1.0000000000000004
688,2.000000000000001
2,21, 1,21, 0,10,40.00,50.00,Monday
250,4.788831536669649
251,35157610.756764345
336,0.0
385,21.80866441887801
386,27.81515588387521
387,1.6185350847918674
388,0.0
425,0.0
450,0.0
451,0.0
452,5.734835187643362
453,0.0
490,0.0
515,0.0
516,0.0
542,0.0
592,5553542.375759332
632,29427815.351206914
686,1.0000000000000009
687,1.0000000000000009
688,2.0000000000000018
2,21, 1,21, 0,10,50.00,60.00,Monday
250,5.253865295930824
251,34909786.09685864
336,0.0
385,21.80866441887801
386,27.81515588387521
387,1.9187501154573654
388,0.0
425,0.0
450,0.0
451,0.0
452,6.563882200462074
453,0.0
490,0.0
515,0.0
516,0.0
542,0.0
592,5639267.778995938
632,29094316.124047723
686,1.0000000000000009
687,1.0000000000000009
688,2.0000000000000018
2,21, 1,21, 0,11, 0.00,10.00,Monday
250,5.537334891814157
251,34758943.55222106
336,0.0
385,21.808664418877992
386,27.815155883875192
387,2.2052509226818224
388,0.0
425,0.0
450,0.0
451,0.0
452,7.4190993051064815
453,0.0
490,0.0
515,0.0
516,0.0
542,0.0
592,5689519.861596226
632,28860866.083726175
686,1.0
687,1.0
688,2.0
2,21, 1,21, 0,11,10.00,20.00,Monday
250,5.820216188581975
251,34608360.54974843
336,0.0
385,21.808664418877992
386,27.81515588387519
387,2.475016060224246
388,0.0
425,0.0
450,0.0
451,0.0
452,8.26961596334424
453,0.0
490,0.0
515,0.0
516,0.0
542,0.0
592,5740969.350869594
632,28658743.550005615
686,1.0
687,1.0
688,2.0
2,21, 1,21, 0,11,20.00,30.00,Monday
250,6.103146103058252
251,34457701.82356082
336,0.0
385,21.808664418877985
386,27.81515588387518
387,2.7471745058066674
388,0.0
425,0.0
450,0.0
451,0.0
452,9.116215331191935
453,0.0
490,0.0
515,0.0
516,0.0
542,0.0
592,5793671.0952822175
632,28455408.450655185
686,0.9999999999999996
687,0.9999999999999996
688,1.9999999999999991
2,21, 1,21, 0,11,30.00,40.00,Monday
250,6.385865917731155
251,34307103.51402454
336,0.0
385,21.808664418878003
386,27.8151558838752
387,3.0245084976767833
388,0.0
425,0.0
450,0.0
451,0.0
452,9.938035907559158
453,0.0
490,0.0
515,0.0
516,0.0
542,0.0
592,5847681.4279665835
632,28250779.490850322
686,1.0000000000000004
687,1.0000000000000004
688,2.000000000000001
2,21, 1,21, 0,11,40.00,50.00,Monday
250,6.668495274146939
251,34156500.00817956
336,0.0
385,21.80866441887801
386,27.81515588387521
387,3.3036165997390636
388,0.0
425,0.0
450,0.0
451,0.0
452,10.683590159439262
453,0.0
490,0.0
515,0.0
516,0.0
542,0.0
592,5903058.082199926
632,28044801.014842737
686,1.0000000000000009
687,1.0000000000000009
688,2.0000000000000018
2,21, 1,21, 0,11,50.00,60.00,Monday
250,6.951002261235222
251,34005907.03660197
336,0.0
385,21.80866441887801
386,27.81515588387521
387,3.580646458582037
388,0.0
425,0.0
450,0.0
451,0.0
452,11.319414575643812
453,0.0
490,0.0
515,0.0
516,0.0
542,0.0
592,5959860.237244541
632,27837402.3244852
686,1.0000000000000009
687,1.0000000000000009
688,2.0000000000000018
2,21, 1,21, 0,12, 0.00,10.00,Monday
250,7.217675801583423
251,33863788.00275092
336,0.0
385,21.808664418877992
386,27.81515588387519
387,3.820653369798836
388,0.0
425,0.0
450,0.0
451,0.0
452,11.818526957520634
453,0.0
490,0.0
515,0.0
516,0.0
542,0.0
592,5991096.197635708
632,27686394.947831817
686,1.0
687,1.0
688,2.0
2,21, 1,21, 0,12,10.00,20.00,Monday
250,7.483091698920983
251,33725824.99590556
336,0.0
385,21.808664418877992
386,27.81515588387519
387,4.113047910491654
388,0.0
425,0.0
450,0.0
451,0.0
452,12.382518070213827
453,0.0
490,0.0
515,0.0
516,0.0
542,0.0
592,7572016.881221028
632,25965686.80454626
686,1.0
687,1.0
688,2.0
2,21, 1,21, 0,12,20.00,30.00,Monday
250,7.749133359432987
251,33585803.88674052
336,0.0
385,21.808664418877992
386,27.81515588387519
387,4.382172528779112
388,0.0
425,0.0
450,0.0
451,0.0
452,12.897498941145436
453,0.0
490,0.0
515,0.0
516,0.0
542,0.0
592,7609409.155487608
632,25788434.661094658
686,1.0
687,1.0
688,2.0
2,21, 1,21, 0,12,30.00,40.00,Monday
250,8.01509937503338
251,33445824.793055356
336,0.0
385,21.808664418877992
386,27.81515588387519
387,4.640994362621457
388,0.0
425,0.0
450,0.0
451,0.0
452,13.389324988614192
453,0.0
490,0.0
515,0.0
516,0.0
542,0.0
592,7646583.592010485
632,25611260.63168224
686,1.0
687,1.0
688,2.0
2,21, 1,21, 0,12,40.00,50.00,Monday
250,8.281038294560798
251,33305860.009210818
336,0.0
385,21.808664418877992
386,27.81515588387519
387,4.895427237087857
388,0.0
425,0.0
450,0.0
451,0.0
452,13.831395895770068
453,0.0
490,0.0
515,0.0
516,0.0
542,0.0
592,7683540.190789655
632,25434332.12255008
686,1.0
687,1.0
688,2.0
2,21, 1,21, 0,12,50.00,60.00,Monday
250,8.546968967974394
251,33165898.88949611
336,0.0
385,21.808664418877992
386,27.81515588387519
387,5.144379562871517
388,0.0
425,0.0
450,0.0
451,0.0
452,14.19917292402269
453,0.0
490,0.0
515,0.0
516,0.0
542,0.0
592,7720278.951825123
632,25257630.499746647
686,1.0
687,1.0
688,2.0
2,21, 1,21, 0,13, 0.00,10.00,Monday
250,8.729961001071628
251,33067220.12392241
336,0.0
385,21.808664418877992
386,27.81515588387519
387,5.376773646988264
388,0.0
425,0.0
450,0.0
451,0.0
452,14.490408938195516
453,0.0
490,0.0
515,0.0
516,0.0
542,0.0
592,7745410.487127082
632,25159842.118002087
686,1.0
687,1.0
688,2.0
2,21, 1,21, 0,13,10.00,20.00,Monday
250,8.912591580613341
251,32972722.570950758
336,0.0
385,21.808664418877992
386,27.81515588387519
387,5.59557001438739
388,0.0
425,0.0
450,0.0
451,0.0
452,14.719670513293446
453,0.0
490,0.0
515,0.0
516,0.0
542,0.0
592,7770439.060057994
632,25041969.311050024
686,1.0
687,1.0
688,2.0
2,21, 1,21, 0,13,20.00,30.00,Monday
250,9.095698687925994
251,32878068.74889318
336,0.0
385,21.808664418877992
386,27.81515588387519
387,5.800481442112916
388,0.0
425,0.0
450,0.0
451,0.0
452,14.902858332823275
453,0.0
490,0.0
515,0.0
516,0.0
542,0.0
592,7795364.67061786
632,24922659.659405038
686,1.0
687,1.0
688,2.0
2,21, 1,21, 0,13,30.00,40.00,Monday
250,9.278662302145827
251,32783522.305682216
336,0.0
385,21.808664418877992
386,27.81515588387519
387,5.9955277188038885
388,0.0
425,0.0
450,0.0
451,0.0
452,15.05173109501903
453,0.0
490,0.0
515,0.0
516,0.0
542,0.0
592,7820187.318806681
632,24803225.830818433
686,1.0
687,1.0
688,2.0
2,21, 1,21, 0,13,40.00,50.00,Monday
250,9.461631341202283
251,32689006.441453792
336,0.0
385,21.808664418877992
386,27.81515588387519
387,6.184459243708397
388,0.0
425,0.0
450,0.0
451,0.0
452,15.171065018451666
453,0.0
490,0.0
515,0.0
516,0.0
542,0.0
592,7844907.00462445
632,24684006.113142658
686,1.0
687,1.0
688,2.0
2,21, 1,21, 0,13,50.00,60.00,Monday
250,9.644594281691543
251,32594527.033329714
336,0.0
385,21.808664418877992
386,27.81515588387519
387,6.368576002404783
388,0.0
425,0.0
450,0.0
451,0.0
452,15.264491858007732
453,0.0
490,0.0
515,0.0
516,0.0
542,0.0
592,7869523.72807117
632,24564919.770344693
686,1.0
687,1.0
688,2.0
2,21, 1,21, 0,14, 0.00,10.00,Monday
250,9.844519380609945
251,32490919.415758125
336,0.0
385,21.808664418877992
386,27.81515588387519
387,6.550716990331373
388,0.0
425,0.0
450,0.0
451,0.0
452,15.320609065512786
453,0.0
490,0.0
515,0.0
516,0.0
542,0.0
592,7896260.907308879
632,24443749.76426936
686,1.0
687,1.0
688,2.0
2,21, 1,21, 0,14,10.00,20.00,Monday
250,10.044093807001007
251,32387103.92338995
336,0.0
385,21.808664418877992
386,27.81515588387519
387,6.731013950103974
388,0.0
425,0.0
450,0.0
451,0.0
452,15.32109650258147
453,0.0
490,0.0
515,0.0
516,0.0
542,0.0
592,7922875.552815756
632,24313143.463468254
686,1.0
687,1.0
688,2.0
2,21, 1,21, 0,14,20.00,30.00,Monday
250,10.243559097002182
251,32283361.40776826
336,0.0
385,21.808664418877992
386,27.81515588387519
387,6.907309079626626
388,0.0
425,0.0
450,0.0
451,0.0
452,15.26548655103664
453,0.0
490,0.0
515,0.0
516,0.0
542,0.0
592,7949367.664591796
632,24182863.251302492
686,1.0
687,1.0
688,2.0
2,21, 1,21, 0,14,30.00,40.00,Monday
250,10.442951055408631
251,32179683.338853545
336,0.0
385,21.808664418877992
386,27.81515588387519
387,7.0736500501603325
388,0.0
425,0.0
450,0.0
451,0.0
452,15.14325391885869
453,0.0
490,0.0
515,0.0
516,0.0
542,0.0
592,7975737.242637001
632,24052789.523477256
686,1.0
687,1.0
688,2.0
2,21, 1,21, 0,14,40.00,50.00,Monday
250,10.642277719847103
251,32076062.543769415
336,0.0
385,21.808664418877992
386,27.81515588387519
387,7.226343130272078
388,0.0
425,0.0
450,0.0
451,0.0
452,14.934677439336957
453,0.0
490,0.0
515,0.0
516,0.0
542,0.0
592,8001984.286951375
632,23922900.101424333
686,1.0
687,1.0
688,2.0
2,21, 1,21, 0,14,50.00,60.00,Monday
250,10.841558154480802
251,31972489.21318811
336,0.0
385,21.808664418877992
386,27.81515588387519
387,7.3656785411025885
388,0.0
425,0.0
450,0.0
451,0.0
452,14.642795145364952
453,0.0
490,0.0
515,0.0
516,0.0
542,0.0
592,8028108.797534915
632,23793191.139943797
686,1.0
687,1.0
688,2.0
2,21, 1,21, 0,15, 0.00,10.00,Monday
250,11.107319918433195
251,31833734.499161392
336,0.0
385,21.808664418877992
386,27.81515588387519
387,7.48665838579063
388,0.0
425,0.0
450,0.0
451,0.0
452,14.347481304641278
453,0.0
490,0.0
515,0.0
516,0.0
542,0.0