Program Version,EnergyPlus, Version 24.2.0-94a887817b, YMD=2025.02.04 15:39
1,5,Environment Title[],Latitude[deg],Longitude[deg],Time Zone[],Elevation[m]
2,8,Day of Simulation[],Month[],Day of Month[],DST Indicator[1=yes 0=no],Hour[],StartMinute[],EndMinute[],DayType
3,5,Cumulative Day of Simulation[],Month[],Day of Month[],DST Indicator[1=yes 0=no],DayType  ! When Daily Report Variables Requested
4,2,Cumulative Days of Simulation[],Month[]  ! When Monthly Report Variables Requested
5,1,Cumulative Days of Simulation[] ! When Run Period Report Variables Requested
6,1,Calendar Year of Simulation[] ! When Annual Report Variables Requested
250,1,LIVING ZONE,Zone Air Temperature [C] !TimeStep,REPORTSCH
251,1,LIVING ZONE,Zone Air System Sensible Heating Energy [J] !TimeStep,REPORTSCH
336,1,LIVING ZONE,Zone Air System Sensible Cooling Energy [J] !TimeStep,REPORTSCH
385,1,LIVING ZONE,Zone Thermostat Heating Setpoint Temperature [C] !TimeStep,REPORTSCH
386,1,LIVING ZONE,Zone Thermostat Cooling Setpoint Temperature [C] !TimeStep,REPORTSCH
387,1,GARAGE ZONE,Zone Air Temperature [C] !TimeStep,REPORTSCH
388,1,GARAGE ZONE,Zone Air System Sensible Heating Energy [J] !TimeStep,REPORTSCH
425,1,GARAGE ZONE,Zone Air System Sensible Cooling Energy [J] !TimeStep,REPORTSCH
450,1,GARAGE ZONE,Zone Thermostat Heating Setpoint Temperature [C] !TimeStep,REPORTSCH
451,1,GARAGE ZONE,Zone Thermostat Cooling Setpoint Temperature [C] !TimeStep,REPORTSCH
452,1,ATTIC ZONE,Zone Air Temperature [C] !TimeStep,REPORTSCH
453,1,ATTIC ZONE,Zone Air System Sensible Heating Energy [J] !TimeStep,REPORTSCH
490,1,ATTIC ZONE,Zone Air System Sensible Cooling Energy [J] !TimeStep,REPORTSCH
515,1,ATTIC ZONE,Zone Thermostat Heating Setpoint Temperature [C] !TimeStep,REPORTSCH
516,1,ATTIC ZONE,Zone Thermostat Cooling Setpoint Temperature [C] !TimeStep,REPORTSCH
542,1,ACDXCOIL 1,Cooling Coil Total Cooling Energy [J] !TimeStep,REPORTSCH
592,1,HEAT PUMP DX HEATING COIL 1,Heating Coil Heating Energy [J] !TimeStep,REPORTSCH
632,1,SUPP HEATING COIL 1,Heating Coil Heating Energy [J] !TimeStep,REPORTSCH
686,1,TWOSPEED HEAT PUMP 1,Unitary System DX Coil Cycling Ratio [] !TimeStep,REPORTSCH
687,1,TWOSPEED HEAT PUMP 1,Unitary System DX Coil Speed Ratio [] !TimeStep,REPORTSCH
688,1,TWOSPEED HEAT PUMP 1,Unitary System DX Coil Speed Level [] !TimeStep,REPORTSCH
End of Data Dictionary
1,RUN PERIOD 1,  41.98, -87.92,  -6.00, 201.00
2,21, 1,21, 0, 1, 0.00,10.00,Monday
250,0.0011457721391011644
251,37679698.257878065
336,0.0
385,17.714537274762694
386,28.43362302554435
387,-0.9295893586089153
388,0.0
425,0.0
450,0.0
451,0.0
452,-1.9556895579414382
453,0.0
490,0.0
515,0.0
516,0.0
542,0.0
592,4839743.9850796405
632,32583401.968969878
686,1.0
687,1.0
688,2.0
2,21, 1,21, 0, 1,10.00,20.00,Monday
250,0.0011506650232432005
251,37681260.02641328
336,0.0
385,17.714537274762694
386,28.43362302554435
387,-0.9379966785884535
388,0.0
425,0.0
450,0.0
451,0.0
452,-1.9376215574583837
453,0.0
490,0.0
515,0.0
516,0.0
542,0.0
592,4823801.676011793
632,32598569.555731058
686,1.0
687,1.0
688,2.0
2,21, 1,21, 0, 1,20.00,30.00,Monday
250,0.0007866392808516816
251,37683117.79774778
336,0.0
385,17.714537274762694
386,28.43362302554435
387,-0.947624004810815
388,0.0
425,0.0
450,0.0
451,0.0
452,-1.9345120770588469
453,0.0
490,0.0
515,0.0
516,0.0
542,0.0
592,4807858.162905221
632,32616172.237998445
686,1.0
687,1.0
688,2.0
2,21, 1,21, 0, 1,30.00,40.00,Monday
250,0.0005217003361731992
251,37684891.29518612
336,0.0
385,17.714537274762694
386,28.43362302554435
387,-0.958676422912409
388,0.0
425,0.0
450,0.0
451,0.0
452,-1.9473299475054218
453,0.0
490,0.0
515,0.0
516,0.0
542,0.0
592,4791913.445623511
632,32633943.7885663
686,1.0
687,1.0
688,2.0
2,21, 1,21, 0, 1,40.00,50.00,Monday
250,0.0002456992058768011
251,37686674.89101711
336,0.0
385,17.714537274762694
386,28.43362302554435
387,-0.9713118073110394
388,0.0
425,0.0
450,0.0
451,0.0
452,-1.9744665432877788
453,0.0
490,0.0
515,0.0
516,0.0
542,0.0
592,4775967.524030239
632,32651667.344110064
686,1.0
687,1.0
688,2.0
2,21, 1,21, 0, 1,50.00,60.00,Monday
250,-0.00003592638096962353
251,37688463.151581675
336,0.0
385,17.714537274762694
386,28.43362302554435
387,-0.985719290694112
388,0.0
425,0.0
450,0.0
451,0.0
452,-2.014377876742389
453,0.0
490,0.0
515,0.0
516,0.0
542,0.0
592,4760020.397988958
632,32669399.696019795
686,1.0
687,1.0
688,2.0
2,21, 1,21, 0, 2, 0.00,10.00,Monday
250,-0.00030300830211581973
251,37690243.552617066
336,0.0
385,17.714537274762694
386,28.43362302554435
387,-1.0012252621037998
388,0.0
425,0.0
450,0.0
451,0.0
452,-2.0610332380620866
453,0.0
490,0.0
515,0.0
516,0.0
542,0.0
592,4760020.397988958
632,32671187.92121264
686,1.0
687,1.0
688,2.0
2,21, 1,21, 0, 2,10.00,20.00,Monday
250,-0.0006067310193114833
251,37690478.77896091
336,0.0
385,17.714537274762694
386,28.43362302554435
387,-1.016896691815723
388,0.0
425,0.0
450,0.0
451,0.0
452,-2.103680705257035
453,0.0
490,0.0
515,0.0
516,0.0
542,0.0
592,4760020.397988958
632,32671403.418751866
686,1.0
687,1.0
688,2.0
2,21, 1,21, 0, 2,20.00,30.00,Monday
250,-0.000911829886349316
251,37690617.30788139
336,0.0
385,17.714537274762694
386,28.43362302554435
387,-1.0321846764251428
388,0.0
425,0.0
450,0.0
451,0.0
452,-2.135100687624735
453,0.0
490,0.0
515,0.0
516,0.0
542,0.0
592,4760020.397988958
632,32671541.20682317
686,1.0
687,1.0
688,2.0
2,21, 1,21, 0, 2,30.00,40.00,Monday
250,-0.0012097823328446416
251,37690783.06131442
336,0.0
385,17.714537274762694
386,28.43362302554435
387,-1.0467685293035462
388,0.0
425,0.0
450,0.0
451,0.0
452,-2.1544768246878325
453,0.0
490,0.0
515,0.0
516,0.0
542,0.0
592,4760020.397988959
632,32671710.808083434
686,1.0
687,1.0
688,2.0
2,21, 1,21, 0, 2,40.00,50.00,Monday
250,-0.0015031808787774662
251,37690942.356818125
336,0.0
385,17.714537274762694
386,28.43362302554435
387,-1.0605069590146599
388,0.0
425,0.0
450,0.0
451,0.0
452,-2.164628498861328
453,0.0
490,0.0
515,0.0
516,0.0
542,0.0
592,4760020.397988959
632,32671872.555540342
686,1.0
687,1.0
688,2.0
2,21, 1,21, 0, 2,50.00,60.00,Monday
250,-0.0017912703158238015
251,37691097.29294325
336,0.0
385,17.714537274762694
386,28.43362302554435
387,-1.0733615283961808
388,0.0
425,0.0
450,0.0
451,0.0
452,-2.1686926579599453
453,0.0
490,0.0
515,0.0
516,0.0
542,0.0
592,4760020.397988958
632,32672030.350252204
686,1.0
687,1.0
688,2.0
2,21, 1,21, 0, 3, 0.00,10.00,Monday
250,0.07741627261383102
251,37648449.523977235
336,0.0
385,17.714537274762694
386,28.43362302554435
387,-1.074958058061
388,0.0
425,0.0
450,0.0
451,0.0
452,-2.1612657768709
453,0.0
490,0.0
515,0.0
516,0.0
542,0.0
592,4762558.894114006
632,32669646.955750234
686,1.0
687,1.0
688,2.0
2,21, 1,21, 0, 3,10.00,20.00,Monday
250,0.16035690554895254
251,37605273.776937276
336,0.0
385,17.714537274762694
386,28.43362302554435
387,-1.0640143884403706
388,0.0
425,0.0
450,0.0
451,0.0
452,-2.1363782878435025
453,0.0
490,0.0
515,0.0
516,0.0
542,0.0
592,4764988.43573097
632,32626053.436517887
686,1.0
687,1.0
688,2.0
2,21, 1,21, 0, 3,20.00,30.00,Monday
250,0.2417097155366036
251,37563051.42700074
336,0.0
385,17.714537274762694
386,28.43362302554435
387,-1.0449605158514867
388,0.0
425,0.0
450,0.0
451,0.0
452,-2.092562085883181
453,0.0
490,0.0
515,0.0
516,0.0
542,0.0
592,4767308.250738334
632,32580658.150812898
686,1.0
687,1.0
688,2.0
2,21, 1,21, 0, 3,30.00,40.00,Monday
250,0.3234016389610277
251,37520623.807584986
336,0.0
385,17.714537274762694
386,28.43362302554435
387,-1.0215976081833749
388,0.0
425,0.0
450,0.0
451,0.0
452,-2.0329274868934015
453,0.0
490,0.0
515,0.0
516,0.0
542,0.0
592,4769517.689516207
632,32536205.52715339
686,1.0
687,1.0
688,2.0
2,21, 1,21, 0, 3,40.00,50.00,Monday
250,0.40522830534051024
251,37478133.99223508
336,0.0
385,17.714537274762694
386,28.43362302554435
387,-0.9952412149029962
388,0.0
425,0.0
450,0.0
451,0.0
452,-1.9619506718025277
453,0.0
490,0.0
515,0.0
516,0.0
542,0.0
592,4771616.115684973
632,32491691.694433726
686,1.0
687,1.0
688,2.0
2,21, 1,21, 0, 3,50.00,60.00,Monday
250,0.4870824470705128
251,37435637.41597174
336,0.0
385,17.714537274762694
386,28.43362302554435
387,-0.965722012119524
388,0.0
425,0.0
450,0.0
451,0.0
452,-1.883255509648169
453,0.0
490,0.0
515,0.0
516,0.0
542,0.0
592,4773602.736238396
632,32447225.15821849
686,1.0
687,1.0
688,2.0
2,21, 1,21, 0, 4, 0.00,10.00,Monday
250,0.4894914766708078
251,37435933.69901487
336,0.0
385,17.714537274762694
386,28.43362302554435
387,-0.9435134824414583
388,0.0
425,0.0
450,0.0
451,0.0
452,-1.8071215375807446
453,0.0
490,0.0
515,0.0
516,0.0
542,0.0
592,4773428.98237163
632,32404910.707329877
686,1.0
687,1.0
688,2.0
2,21, 1,21, 0, 4,10.00,20.00,Monday
250,0.4882172765434328
251,37436726.47937623
336,0.0
385,17.714537274762694
386,28.43362302554435
387,-0.9311963235447238
388,0.0
425,0.0
450,0.0
451,0.0
452,-1.7425743963912135
453,0.0
490,0.0
515,0.0
516,0.0
542,0.0
592,4773255.169447958
632,32403893.63968989
686,1.0
687,1.0
688,2.0
2,21, 1,21, 0, 4,20.00,30.00,Monday
250,0.4886207527469193
251,37436522.85931456
336,0.0
385,17.714537274762694
386,28.43362302554435
387,-0.92530703379523
388,0.0
425,0.0
450,0.0
451,0.0
452,-1.6932319046559616
453,0.0
490,0.0
515,0.0
516,0.0
542,0.0
592,4773081.297437258
632,32404767.432203956
686,1.0
687,1.0
688,2.0
2,21, 1,21, 0, 4,30.00,40.00,Monday
250,0.488767135683797
251,37436487.27306777
336,0.0
385,17.714537274762694
386,28.43362302554435
387,-0.9221125067903261
388,0.0
425,0.0
450,0.0
451,0.0
452,-1.657461655849174
453,0.0
490,0.0
515,0.0
516,0.0
542,0.0
592,4772907.366309401
632,32404767.315271642
686,1.0
687,1.0
688,2.0
2,21, 1,21, 0, 4,40.00,50.00,Monday
250,0.48884173943314996
251,37436486.56124011
336,0.0
385,17.714537274762694
386,28.43362302554435
387,-0.919964983439102
388,0.0
425,0.0
450,0.0
451,0.0
452,-1.6317396776850852
453,0.0
490,0.0
515,0.0
516,0.0
542,0.0
592,4772733.376034233
632,32404901.93582768
686,1.0
687,1.0
688,2.0
2,21, 1,21, 0, 4,50.00,60.00,Monday
250,0.4889267950371503
251,37436478.805254325
336,0.0
385,17.714537274762694
386,28.43362302554435
387,-0.9186203339626481
388,0.0
425,0.0
450,0.0
451,0.0
452,-1.6128495284415785
453,0.0
490,0.0
515,0.0
516,0.0
542,0.0
592,4772559.326581575
632,32405073.85837574
686,1.0
687,1.0
688,2.0
2,21, 1,21, 0, 5, 0.00,10.00,Monday
250,0.489008641082802
251,37436472.94767695
336,0.0
385,17.714537274762694
386,28.43362302554435
387,-0.9180590385465732
388,0.0
425,0.0
450,0.0
451,0.0
452,-1.598070220557612
453,0.0
490,0.0
515,0.0
516,0.0
542,0.0
592,4759720.858689582
632,32417904.740168136
686,1.0
687,1.0
688,2.0
2,21, 1,21, 0, 5,10.00,20.00,Monday
250,0.4891235409410232
251,37437667.305372596
336,0.0
385,17.714537274762694
386,28.43362302554435
387,-0.9181468023197459
388,0.0
425,0.0
450,0.0
451,0.0
452,-1.5851310596331412
453,0.0
490,0.0
515,0.0
516,0.0
542,0.0
592,4746877.262331866
632,32431960.498060532
686,1.0
687,1.0
688,2.0
2,21, 1,21, 0, 5,20.00,30.00,Monday
250,0.48924266892394086
251,37438935.78866604
336,0.0
385,17.714537274762694
386,28.43362302554435
387,-0.9186848415927916
388,0.0
425,0.0
450,0.0
451,0.0
452,-1.5726907824702632
453,0.0
490,0.0
515,0.0
516,0.0
542,0.0
592,4734028.534436011
632,32446079.98874751
686,1.0
687,1.0
688,2.0
2,21, 1,21, 0, 5,30.00,40.00,Monday
250,0.4893613590303633
251,37440180.859916225
336,0.0
385,17.714537274762694
386,28.43362302554435
387,-0.9194899709773713
388,0.0
425,0.0
450,0.0
451,0.0
452,-1.5603397508752586
453,0.0
490,0.0
515,0.0
516,0.0
542,0.0
592,4721174.671927155
632,32460178.688898623
686,1.0
687,1.0
688,2.0
2,21, 1,21, 0, 5,40.00,50.00,Monday
250,0.4894813063350693
251,37441428.886637844
336,0.0
385,17.714537274762694
386,28.43362302554435
387,-0.9204304050661118
388,0.0
425,0.0
450,0.0
451,0.0
452,-1.5481423570149222
453,0.0
490,0.0
515,0.0
516,0.0
542,0.0
592,4708315.671727969
632,32474286.395243164
686,1.0
687,1.0
688,2.0
2,21, 1,21, 0, 5,50.00,60.00,Monday
250,0.48960274730800624
251,37442677.795888245
336,0.0
385,17.714537274762694
386,28.43362302554435
387,-0.9214237276060865
388,0.0
425,0.0
450,0.0
451,0.0
452,-1.5362391319079978
453,0.0
490,0.0
515,0.0
516,0.0
542,0.0
592,4695451.530758674
632,32488400.25231464
686,1.0
687,1.0
688,2.0
2,21, 1,21, 0, 6, 0.00,10.00,Monday
250,0.4897307568393415
251,37443923.55774865
336,0.0
385,17.714537274762694
386,28.43362302554435
387,-0.9225519194340263
388,0.0
425,0.0
450,0.0
451,0.0
452,-1.5253123080846678
453,0.0
490,0.0
515,0.0
516,0.0
542,0.0
592,4695264.082255858
632,32489837.00333828
686,1.0
687,1.0
688,2.0
2,21, 1,21, 0, 6,10.00,20.00,Monday
250,0.48982645205629693
251,37443967.599818684
336,0.0
385,17.714537274762694
386,28.43362302554435
387,-0.9238960420368425
388,0.0
425,0.0
450,0.0
451,0.0
452,-1.5161738997730152
453,0.0
490,0.0
515,0.0
516,0.0
542,0.0
592,4695076.569900009
632,32490051.15075966
686,1.0
687,1.0
688,2.0
2,21, 1,21, 0, 6,20.00,30.00,Monday
250,0.48991978893334126
251,37443936.917623356
336,0.0
385,17.714537274762694
386,28.43362302554435
387,-0.9254502243847496
388,0.0
425,0.0
450,0.0
451,0.0
452,-1.509165203195755
453,0.0
490,0.0
515,0.0
516,0.0
542,0.0
592,4694888.993658494
632,32490206.77443391
686,1.0
687,1.0
688,2.0
2,21, 1,21, 0, 6,30.00,40.00,Monday
250,0.490016276846615
251,37443928.74687986
336,0.0
385,17.714537274762694
386,28.43362302554435
387,-0.9271727610102485
388,0.0
425,0.0
450,0.0
451,0.0
452,-1.5040775633301977
453,0.0
490,0.0
515,0.0
516,0.0
542,0.0
592,4694701.353498662
632,32490387.94132244
686,1.0
687,1.0
688,2.0
2,21, 1,21, 0, 6,40.00,50.00,Monday
250,0.4901146529225815
251,37443916.45536771
336,0.0
385,17.714537274762694
386,28.43362302554435
387,-0.9290317363848234
388,0.0
425,0.0
450,0.0
451,0.0
452,-1.5004566041782799
453,0.0
490,0.0
515,0.0
516,0.0
542,0.0
592,4694513.649387832
632,32490564.371102095
686,1.0
687,1.0
688,2.0
2,21, 1,21, 0, 6,50.00,60.00,Monday
250,0.4902150434658295
251,37443901.92266742
336,0.0
385,17.714537274762694
386,28.43362302554435
387,-0.9310097343050765
388,0.0
425,0.0
450,0.0
451,0.0
452,-1.4978801542011038
453,0.0
490,0.0
515,0.0
516,0.0
542,0.0
592,4694325.881293308
632,32490738.69171629
686,1.0
687,1.0
688,2.0
2,21, 1,21, 0, 7, 0.00,10.00,Monday
250,0.48777785572810983
251,37445254.48965683
336,0.0
385,17.714537274762694
386,28.43362302554435
387,-0.9355379933394243
388,0.0
425,0.0
450,0.0
451,0.0
452,-1.5012080776512255
453,0.0
490,0.0
515,0.0
516,0.0
542,0.0
592,4723573.583255435
632,32461476.599140972
686,1.0
687,1.0
688,2.0
2,21, 1,21, 0, 7,10.00,20.00,Monday
250,0.48779339677783273
251,37442474.64249795
336,0.0
385,17.714537274762694
386,28.43362302554435
387,-0.9447920006438413
388,0.0
425,0.0
450,0.0
451,0.0
452,-1.5198982253120275
453,0.0
490,0.0
515,0.0
516,0.0
542,0.0
592,4752837.186047653
632,32430754.399003714
686,1.0
687,1.0
688,2.0
2,21, 1,21, 0, 7,20.00,30.00,Monday
250,0.4879960723972995
251,37439417.41617987
336,0.0
385,17.714537274762694
386,28.43362302554435
387,-0.9590033891510497
388,0.0
425,0.0
450,0.0
451,0.0
452,-1.5593382149454962
453,0.0
490,0.0
515,0.0
516,0.0
542,0.0
592,4782116.702651945
632,32398518.44678019
686,1.0
687,1.0
688,2.0
2,21, 1,21, 0, 7,30.00,40.00,Monday
250,0.48814495707013056
251,37436443.370865956
336,0.0
385,17.714537274762694
386,28.43362302554435
387,-0.9772019795784312
388,0.0
425,0.0
450,0.0
451,0.0
452,-1.6171914938815997
453,0.0
490,0.0
515,0.0
516,0.0
542,0.0
592,4811412.146064445
632,32366219.9798566
686,1.0
687,1.0
688,2.0
2,21, 1,21, 0, 7,40.00,50.00,Monday
250,0.4883097177928162
251,37433452.029848546
336,0.0
385,17.714537274762694
386,28.43362302554435
387,-0.9982965603942975
388,0.0
425,0.0
450,0.0
451,0.0
452,-1.6872023568281482
453,0.0
490,0.0
515,0.0
516,0.0
542,0.0
592,4840723.52929546
632,32333925.79896533
686,1.0
687,1.0
688,2.0
2,21, 1,21, 0, 7,50.00,60.00,Monday
250,0.48845462130090816
251,37430467.1260019
336,0.0
385,17.714537274762694
386,28.43362302554435
387,-1.0215376288245948
388,0.0
425,0.0
450,0.0
451,0.0
452,-1.7636570020480336
453,0.0
490,0.0
515,0.0
516,0.0
542,0.0
592,4870050.865369482
632,32301602.859473087
686,1.0
687,1.0
688,2.0
2,21, 1,21, 0, 8, 0.00,10.00,Monday
250,0.689619229865322
251,37319244.59145561
336,0.0
385,17.714537274762694
386,28.43362302554435
387,-1.0176599797274217
388,0.0
425,0.0
450,0.0
451,0.0
452,-1.822676141653963
453,0.0
490,0.0
515,0.0
516,0.0
542,0.0
592,4889730.300311493
632,32278937.247037802
686,1.0
687,1.0
688,2.0
2,21, 1,21, 0, 8,10.00,20.00,Monday
250,0.8909098762263472
251,37212978.42545822
336,0.0
385,17.714537274762694
386,28.43362302554435
387,-0.9758414933021595
388,0.0
425,0.0
450,0.0
451,0.0
452,-1.8140771478814164
453,0.0
490,0.0
515,0.0
516,0.0
542,0.0
592,4909380.719869504
632,32153094.68825037
686,1.0
687,1.0
688,2.0
2,21, 1,21, 0, 8,20.00,30.00,Monday
250,1.0870844928865375
251,37109778.3542972
336,0.0
385,17.714537274762694
386,28.43362302554435
387,-0.9044487286118195
388,0.0
425,0.0
450,0.0
451,0.0
452,-1.7070287282596834
453,0.0
490,0.0
515,0.0
516,0.0
542,0.0
592,4929009.6156952735
632,32027517.834588587
686,1.0
687,1.0
688,2.0
2,21, 1,21, 0, 8,30.00,40.00,Monday
250,1.2843427273312713
251,37005894.59882792
336,0.0
385,17.714537274762694
386,28.43362302554435
387,-0.8135060983432946
388,0.0
425,0.0
450,0.0
451,0.0
452,-1.5122878138744398
453,0.0
490,0.0
515,0.0
516,0.0
542,0.0
592,4952863.6467726575
632,31900370.29711446
686,1.0
687,1.0
688,2.0
2,21, 1,21, 0, 8,40.00,50.00,Monday
250,1.4820725063923312
251,36901374.41409659
336,0.0
385,17.714537274762694
386,28.43362302554435
387,-0.7112644154508938
388,0.0
425,0.0
450,0.0
451,0.0
452,-1.235784777048321
453,0.0
490,0.0
515,0.0
516,0.0
542,0.0
592,4977062.298687916
632,31771911.07376013
686,1.0
687,1.0
688,2.0
2,21, 1,21, 0, 8,50.00,60.00,Monday
250,1.6816012305051036
251,36796776.090781316
336,0.0
385,17.714537274762694
386,28.43362302554435
387,-0.6150570268118132
388,0.0
425,0.0
450,0.0
451,0.0
452,-0.9218778668457686
453,0.0
490,0.0
515,0.0
516,0.0
542,0.0
592,5001395.306277512
632,31592128.274666224
686,1.0
687,1.0
688,2.0
2,21, 1,21, 0, 9, 0.00,10.00,Monday
250,1.945006956539644
251,36658776.068481125
336,0.0
385,17.714537274762694
386,28.43362302554435
387,-0.4763375294498473
388,0.0
425,0.0
450,0.0
451,0.0
452,-0.4417563108363475
453,0.0
490,0.0
515,0.0
516,0.0
542,0.0
592,5029363.153609448
632,31443193.67044603
686,1.0
687,1.0
688,2.0
2,21, 1,21, 0, 9,10.00,20.00,Monday
250,2.20823324529131
251,36519986.21578804
336,0.0
385,17.714537274762694
386,28.43362302554435
387,-0.3252042938001647
388,0.0
425,0.0
450,0.0
451,0.0
452,0.08256774114615358
453,0.0
490,0.0
515,0.0
516,0.0
542,0.0
592,5057356.862312016
632,31276288.5720909
686,1.0
687,1.0
688,2.0
2,21, 1,21, 0, 9,20.00,30.00,Monday
250,2.471722774431443
251,36381042.68389754
336,0.0
385,17.714537274762694
386,28.43362302554435
387,-0.16528111554815889
388,0.0
425,0.0
450,0.0
451,0.0
452,0.6472551731330421
453,0.0
490,0.0
515,0.0
516,0.0
542,0.0
592,5085392.284952975
632,31109383.58903852
686,1.0
687,1.0
688,2.0
2,21, 1,21, 0, 9,30.00,40.00,Monday
250,2.735013947550911
251,36242205.41900444
336,0.0
385,17.714537274762694
386,28.43362302554435
387,0.004353067493289106
388,0.0
425,0.0
450,0.0
451,0.0
452,1.2419106618889475
453,0.0
490,0.0
515,0.0
516,0.0
542,0.0
592,5113485.892141593
632,30942399.26612474
686,1.0
687,1.0
688,2.0
2,21, 1,21, 0, 9,40.00,50.00,Monday
250,2.9991784702115885
251,36101972.43042559
336,0.0
385,17.71453727476271
386,28.43362302554437
387,0.1493525843693158
388,0.0
425,0.0
450,0.0
451,0.0
452,1.7440765113582226
453,0.0
490,0.0
515,0.0
516,0.0
542,0.0
592,5141654.529350725
632,30749220.013687793
686,1.0000000000000009
687,1.0000000000000009
688,2.0000000000000018
2,21, 1,21, 0, 9,50.00,60.00,Monday
250,3.263133326762757
251,35962221.56877418
336,0.0
385,17.714537274762694
386,28.43362302554435
387,0.301441086827936
388,0.0
425,0.0
450,0.0
451,0.0
452,2.2849872385636605
453,0.0
490,0.0
515,0.0
516,0.0
542,0.0
592,5169915.672059795
632,30607047.67019479
686,1.0
687,1.0
688,2.0
2,21, 1,21, 0,10, 0.00,10.00,Monday
250,3.718407143998156
251,35720707.217751324
336,0.0
385,17.714537274762694
386,28.43362302554435
387,0.49181937496239203
388,0.0
425,0.0
450,0.0
451,0.0
452,2.84478053874576
453,0.0
490,0.0
515,0.0
516,0.0
542,0.0
592,5241404.10703412
632,30302925.37064065
686,1.0
687,1.0
688,2.0
2,21, 1,21, 0,10,10.00,20.00,Monday
250,4.175884412331075
251,35478573.722742744
336,0.0
385,17.71453727476269
386,28.43362302554435
387,0.7828908899169817
388,0.0
425,0.0
450,0.0
451,0.0
452,3.599757617805426
453,0.0
490,0.0
515,0.0
516,0.0
542,0.0
592,5315291.857316207
632,29986508.08091004
686,1.0
687,1.0
688,2.0
2,21, 1,21, 0,10,20.00,30.00,Monday
250,4.634564321087639
251,35234559.75775184
336,0.0
385,17.714537274762687
386,28.433623025544335
387,1.0633804610809827
388,0.0
425,0.0
450,0.0
451,0.0
452,4.289276288063483
453,0.0
490,0.0
515,0.0
516,0.0
542,0.0
592,5391793.298050373
632,29666253.048759207
686,0.9999999999999996
687,0.9999999999999996
688,1.9999999999999991
2,21, 1,21, 0,10,30.00,40.00,Monday
250,5.093828467150052
251,34990099.90768454
336,0.0
385,17.7145372747627
386,28.433623025544357
387,1.345228962716248
388,0.0
425,0.0
450,0.0
451,0.0
452,4.990403081385459
453,0.0
490,0.0
515,0.0
516,0.0
542,0.0
592,5471132.199313744
632,29342602.874853924
686,1.0000000000000004
687,1.0000000000000004
688,2.000000000000001
2,21, 1,21, 0,10,40.00,50.00,Monday
250,5.553870380939474
251,34745081.791497216
336,0.0
385,17.71453727476271
386,28.43362302554437
387,1.635433329245969
388,0.0
425,0.0
450,0.0
451,0.0
452,5.75436284814105
453,0.0
490,0.0
515,0.0
516,0.0
542,0.0
592,5553542.375759332
632,29015361.34495721
686,1.0000000000000009
687,1.0000000000000009
688,2.0000000000000018
2,21, 1,21, 0,10,50.00,60.00,Monday
250,6.013966395625923
251,34499888.893587425
336,0.0
385,17.71453727476271
386,28.43362302554437
387,1.9357149299491252
388,0.0
425,0.0
450,0.0
451,0.0
452,6.583627015757328
453,0.0
490,0.0
515,0.0
516,0.0
542,0.0
592,5639267.778995938
632,28684500.914806142
686,1.0000000000000009
687,1.0000000000000009
688,2.0000000000000018
2,21, 1,21, 0,11, 0.00,10.00,Monday
250,6.2976781252738645
251,34348916.01102786
336,0.0
385,17.714537274762694
386,28.43362302554435
387,2.2222735541449263
388,0.0
425,0.0
450,0.0
451,0.0
452,7.438916303524705
453,0.0
490,0.0
515,0.0
516,0.0
542,0.0
592,5689519.861596227
632,28451516.563693434
686,1.0
687,1.0
688,2.0
2,21, 1,21, 0,11,10.00,20.00,Monday
250,6.579426849594967
251,34198919.69347307
336,0.0
385,17.71453727476269
386,28.43362302554435
387,2.4920694280382896
388,0.0
425,0.0
450,0.0
451,0.0
452,8.289533145836678
453,0.0
490,0.0
515,0.0
516,0.0
542,0.0
592,5740969.350869596
632,28249695.54773378
686,1.0
687,1.0
688,2.0
2,21, 1,21, 0,11,20.00,30.00,Monday
250,6.861226168558002
251,34048850.42286777
336,0.0
385,17.714537274762687
386,28.433623025544335
387,2.764237779448825
388,0.0
425,0.0
450,0.0
451,0.0
452,9.13624181914038
453,0.0
490,0.0
515,0.0
516,0.0
542,0.0
592,5793671.0952822175
632,28046949.594099175
686,0.9999999999999996
687,0.9999999999999996
688,1.9999999999999991
2,21, 1,21, 0,11,30.00,40.00,Monday
250,7.1421633416611074
251,33899192.7691056
336,0.0
385,17.7145372747627
386,28.433623025544357
387,3.0415723734477624
388,0.0
425,0.0
450,0.0
451,0.0
452,9.95856311107423
453,0.0
490,0.0
515,0.0
516,0.0
542,0.0
592,5847681.427966583
632,27843142.726933405
686,1.0000000000000004
687,1.0000000000000004
688,2.000000000000001
2,21, 1,21, 0,11,40.00,50.00,Monday
250,7.422709673246941
251,33749692.50873482
336,0.0
385,17.71453727476271
386,28.43362302554437
387,3.3206722736630163
388,0.0
425,0.0
450,0.0
451,0.0
452,10.703961458885798
453,0.0
490,0.0
515,0.0
516,0.0
542,0.0
592,5903058.082199926
632,27638212.521295495
686,1.0000000000000009
687,1.0000000000000009
688,2.0000000000000018
2,21, 1,21, 0,11,50.00,60.00,Monday
250,7.7027288994092995
251,33600421.71867282
336,0.0
385,17.71453727476271
386,28.43362302554437
387,3.5976853275179854
388,0.0
425,0.0
450,0.0
451,0.0
452,11.339403778460879
453,0.0
490,0.0
515,0.0
516,0.0
542,0.0
592,5959860.237244541
632,27432062.02479045
686,1.0000000000000009
687,1.0000000000000009
688,2.0000000000000018
2,21, 1,21, 0,12, 0.00,10.00,Monday
250,7.969025444543512
251,33458430.795537073
336,0.0
385,17.714537274762694
386,28.43362302554435
387,3.8376410336083593
388,0.0
425,0.0
450,0.0
451,0.0
452,11.838652195589876
453,0.0
490,0.0
515,0.0
516,0.0
542,0.0
592,5991096.197635708
632,27282766.466783404
686,1.0
687,1.0
688,2.0
2,21, 1,21, 0,12,10.00,20.00,Monday
250,8.230933049692137
251,33322263.486110833
336,0.0
385,17.714537274762694
386,28.43362302554435
387,4.130008773325396
388,0.0
425,0.0
450,0.0
451,0.0
452,12.40263914903449
453,0.0
490,0.0
515,0.0
516,0.0
542,0.0
592,7572016.881221028
632,25563490.62925827
686,1.0
687,1.0
688,2.0
2,21, 1,21, 0,12,20.00,30.00,Monday
250,8.495213538028738
251,33183148.03133879
336,0.0
385,17.714537274762694
386,28.43362302554435
387,4.399117328365996
388,0.0
425,0.0
450,0.0
451,0.0
452,12.91834830141042
453,0.0
490,0.0
515,0.0
516,0.0
542,0.0
592,7609409.155487606
632,25387563.920467593
686,1.0
687,1.0
688,2.0
2,21, 1,21, 0,12,30.00,40.00,Monday
250,8.759062651359951
251,33044268.7938905
336,0.0
385,17.714537274762694
386,28.43362302554435
387,4.657914532042016
388,0.0
425,0.0
450,0.0
451,0.0
452,13.409604499870188
453,0.0
490,0.0
515,0.0
516,0.0
542,0.0
592,7646583.592010483
632,25211394.68887657
686,1.0
687,1.0
688,2.0
2,21, 1,21, 0,12,40.00,50.00,Monday
250,9.022800397657345
251,32905449.069336236
336,0.0
385,17.714537274762694
386,28.43362302554435
387,4.912325585056685
388,0.0
425,0.0
450,0.0
451,0.0
452,13.851271300021654
453,0.0
490,0.0
515,0.0
516,0.0
542,0.0
592,7683540.190789655
632,25035587.502971213
686,1.0
687,1.0
688,2.0
2,21, 1,21, 0,12,50.00,60.00,Monday
250,9.286499477732537
251,32766649.41025553
336,0.0
385,17.714537274762694
386,28.43362302554435
387,5.161258641057593
388,0.0
425,0.0
450,0.0
451,0.0
452,14.219154890994165
453,0.0
490,0.0
515,0.0
516,0.0
542,0.0
592,7720278.951825121
632,24860039.11132539
686,1.0
687,1.0
688,2.0
2,21, 1,21, 0,13, 0.00,10.00,Monday
250,9.46850463335462
251,32668700.455258626
336,0.0
385,17.714537274762694
386,28.43362302554435
387,5.393626618167108
388,0.0
425,0.0
450,0.0
451,0.0
452,14.510442070210024
453,0.0
490,0.0
515,0.0
516,0.0
542,0.0
592,7745410.487127085
632,24756328.588064276
686,1.0
687,1.0
688,2.0
2,21, 1,21, 0,13,10.00,20.00,Monday
250,9.649166115834182
251,32575049.812341027
336,0.0
385,17.714537274762694
386,28.43362302554435
387,5.612381989144679
388,0.0
425,0.0
450,0.0
451,0.0
452,14.73964824796005
453,0.0
490,0.0
515,0.0
516,0.0
542,0.0
592,7770439.060057996
632,24643233.416097444
686,1.0
687,1.0
688,2.0
2,21, 1,21, 0,13,20.00,30.00,Monday
250,9.831624407601884
251,32480696.594339196
336,0.0
385,17.714537274762694
386,28.43362302554435
387,5.817248250440492
388,0.0
425,0.0
450,0.0
451,0.0
452,14.922780510208682
453,0.0
490,0.0
515,0.0
516,0.0
542,0.0
592,7795364.67061786
632,24524936.962067604
686,1.0
687,1.0
688,2.0
2,21, 1,21, 0,13,30.00,40.00,Monday
250,10.013667858794477
251,32386594.046354406
336,0.0
385,17.714537274762694
386,28.43362302554435
387,6.0122452265183375
388,0.0
425,0.0
450,0.0
451,0.0
452,15.07168193413419
453,0.0
490,0.0
515,0.0
516,0.0
542,0.0
592,7820187.318806683
632,24405800.47731814
686,1.0
687,1.0
688,2.0
2,21, 1,21, 0,13,40.00,50.00,Monday
250,10.195580243476082
251,32292595.50146734
336,0.0
385,17.714537274762694
386,28.43362302554435
387,6.20112161159606
388,0.0
425,0.0
450,0.0
451,0.0
452,15.190946996709654
453,0.0
490,0.0
515,0.0
516,0.0
542,0.0
592,7844907.00462445
632,24287024.307648525
686,1.0
687,1.0
688,2.0
2,21, 1,21, 0,13,50.00,60.00,Monday
250,10.377441829682754
251,32198657.41456262
336,0.0
385,17.714537274762694
386,28.43362302554435
387,6.385178303267289
388,0.0
425,0.0
450,0.0
451,0.0
452,15.284242056165363
453,0.0
490,0.0
515,0.0
516,0.0
542,0.0
592,7869523.728071173
632,24168455.06681041
686,1.0
687,1.0
688,2.0
2,21, 1,21, 0,14, 0.00,10.00,Monday
250,10.577029558319095
251,32095177.92168516
336,0.0
385,17.714537274762694
386,28.43362302554435
387,6.5672491518215335
388,0.0
425,0.0
450,0.0
451,0.0
452,15.340186635829637
453,0.0
490,0.0
515,0.0
516,0.0
542,0.0
592,7896260.907308879
632,24047825.71114283
686,1.0
687,1.0
688,2.0
2,21, 1,21, 0,14,10.00,20.00,Monday
250,10.775340671448987
251,31992015.33742553
336,0.0
385,17.714537274762694
386,28.43362302554435
387,6.74746427957897
388,0.0
425,0.0
450,0.0
451,0.0
452,15.340476923082647
453,0.0
490,0.0
515,0.0
516,0.0
542,0.0
592,7922875.552815753
632,23917372.183254268
686,1.0
687,1.0
688,2.0
2,21, 1,21, 0,14,20.00,30.00,Monday
250,10.973167875564524
251,31889104.019159034
336,0.0
385,17.714537274762694
386,28.43362302554435
387,6.923670024569282
388,0.0
425,0.0
450,0.0
451,0.0
452,15.284672007382888
453,0.0
490,0.0
515,0.0
516,0.0
542,0.0
592,7949367.664591796
632,23787720.59698829
686,1.0
687,1.0
688,2.0
2,21, 1,21, 0,14,30.00,40.00,Monday
250,11.1707442171354
251,31786357.613550972
336,0.0
385,17.714537274762694
386,28.43362302554435
387,7.089921154107213
388,0.0
425,0.0
450,0.0
451,0.0
452,15.162270079277764
453,0.0
490,0.0
515,0.0
516,0.0
542,0.0
592,7975737.242637003
632,23658482.49829996
686,1.0
687,1.0
688,2.0
2,21, 1,21, 0,14,40.00,50.00,Monday
250,11.368097853465521
251,31683752.810555965
336,0.0
385,17.714537274762694
386,28.43362302554435
387,7.242525372455633
388,0.0
425,0.0
450,0.0
451,0.0
452,14.953562635587382
453,0.0
490,0.0
515,0.0
516,0.0
542,0.0
592,8001984.286951372
632,23529523.8794769
686,1.0
687,1.0
688,2.0
2,21, 1,21, 0,14,50.00,60.00,Monday
250,11.565226793138702
251,31581291.223421905
336,0.0
385,17.714537274762694
386,28.43362302554435
387,7.381771549672301
388,0.0
425,0.0
450,0.0
451,0.0
452,14.661603814341564
453,0.0
490,0.0
515,0.0
516,0.0
542,0.0
592,8028108.797534912
632,23400830.06832974
686,1.0
687,1.0
688,2.0
2,21, 1,21, 0,15, 0.00,10.00,Monday
250,11.827532582618854
251,31444372.56772191
336,0.0
385,17.714537274762694
386,28.43362302554435
387,7.502667068529824
388,0.0
425,0.0
450,0.0