Program Version,EnergyPlus, Version 24.2.0-94a887817b, YMD=2025.02.04 15:39
1,5,Environment Title[],Latitude[deg],Longitude[deg],Time Zone[],Elevation[m]
2,8,Day of Simulation[],Month[],Day of Month[],DST Indicator[1=yes 0=no],Hour[],StartMinute[],EndMinute[],DayType
3,5,Cumulative Day of Simulation[],Month[],Day of Month[],DST Indicator[1=yes 0=no],DayType  ! When Daily Meters Requested
4,2,Cumulative Days of Simulation[],Month[]  ! When Monthly Meters Requested
5,1,Cumulative Days of Simulation[] ! When Run Period Meters Requested
6,1,Calendar Year of Simulation[] ! When Annual Meters Requested
11,9,Electricity:Facility [J] !Monthly [Value,Min,Day,Hour,Minute,Max,Day,Hour,Minute]
23,9,Electricity:Building [J] !Monthly [Value,Min,Day,Hour,Minute,Max,Day,Hour,Minute]
59,9,InteriorLights:Electricity [J] !Monthly [Value,Min,Day,Hour,Minute,Max,Day,Hour,Minute]
521,9,Electricity:HVAC [J] !Monthly [Value,Min,Day,Hour,Minute,Max,Day,Hour,Minute]
637,9,NaturalGas:Facility [J] !Monthly [Value,Min,Day,Hour,Minute,Max,Day,Hour,Minute]
649,9,NaturalGas:HVAC [J] !Monthly [Value,Min,Day,Hour,Minute,Max,Day,Hour,Minute]
13,11,Electricity:Facility [J] !RunPeriod [Value,Min,Month,Day,Hour,Minute,Max,Month,Day,Hour,Minute]
25,11,Electricity:Building [J] !RunPeriod [Value,Min,Month,Day,Hour,Minute,Max,Month,Day,Hour,Minute]
61,11,InteriorLights:Electricity [J] !RunPeriod [Value,Min,Month,Day,Hour,Minute,Max,Month,Day,Hour,Minute]
523,11,Electricity:HVAC [J] !RunPeriod [Value,Min,Month,Day,Hour,Minute,Max,Month,Day,Hour,Minute]
639,11,NaturalGas:Facility [J] !RunPeriod [Value,Min,Month,Day,Hour,Minute,Max,Month,Day,Hour,Minute]
651,11,NaturalGas:HVAC [J] !RunPeriod [Value,Min,Month,Day,Hour,Minute,Max,Month,Day,Hour,Minute]
End of Data Dictionary
1,RUN PERIOD 1,  41.98, -87.92,  -6.00, 201.00
4,31, 1
11,9819459214.73979,408891.4285714286, 5, 6,50,2976871.148121133,16,13,60
23,980409113.5088058,30000.0, 1, 1,10,607397.9083397081, 1, 9,10
59,970200000.0,30000.0, 1, 1,10,600000.0, 1, 8,10
521,8839050101.230986,378891.4285714286, 5, 6,50,2369473.239781425,16,13,60
637,178164953517.4197,27846826.33550256,21,16,10,41250000.0, 1, 1,20
649,178164953517.4197,27846826.33550256,21,16,10,41250000.0, 1, 1,20
4,59, 2
11,9353413611.07152,99999999999999.0, 5, 6,50,3018332.5883842553,22,15,30
23,857037490.0076532,99999999999999.0, 1, 1,10,-99999999999999.0, 1, 9,10
59,848160000.0,99999999999999.0, 1, 1,10,-99999999999999.0, 1, 8,10
521,8496376121.063895,99999999999999.0, 5, 6,50,2410934.680044547,22,15,30
637,157337481827.4198,26172176.987139914,23,12,10,-99999999999999.0, 1, 1,20
649,157337481827.4198,26172176.987139914,23,12,10,-99999999999999.0, 1, 1,20
4,90, 3
11,10824109704.191504,30000.0,26,19,10,3019885.0230553565,12,17,60
23,906801364.5080376,99999999999999.0, 1, 1,10,-99999999999999.0, 1, 9,10
59,897480000.0,99999999999999.0, 1, 1,10,-99999999999999.0, 1, 8,10
521,9917308339.68338,0.0,19,16,60,2412487.1147156483, 9,11,60
637,159254545032.02246,0.0,19,16,60,-99999999999999.0, 1, 1,20
649,159254545032.02246,0.0,19,16,60,-99999999999999.0, 1, 1,20
4,120, 4
11,8936094981.396284,99999999999999.0,26,19,10,-99999999999999.0,12,17,60
23,939285239.0084214,99999999999999.0, 1, 1,10,-99999999999999.0, 1, 9,10
59,929520000.0,99999999999999.0, 1, 1,10,-99999999999999.0, 1, 8,10
521,7996809742.387931,99999999999999.0,19,16,60,-99999999999999.0, 9,11,60
637,114552596563.14413,99999999999999.0,19,16,60,-99999999999999.0, 1, 1,20
649,114552596563.14413,99999999999999.0,19,16,60,-99999999999999.0, 1, 1,20
4,151, 5
11,7314519234.572275,99999999999999.0,26,19,10,3030777.439908197,10,11,30
23,980655152.973159,99999999999999.0, 1, 1,10,622924.4006540293,28,13,20
59,970200000.0,99999999999999.0, 1, 1,10,-99999999999999.0, 1, 8,10
521,6333864081.599249,99999999999999.0,19,16,60,2423379.531568489,10,11,30
637,78226557788.33626,99999999999999.0,19,16,60,-99999999999999.0, 1, 1,20
649,78226557788.33626,99999999999999.0,19,16,60,-99999999999999.0, 1, 1,20
4,181, 6
11,4174852572.663316,99999999999999.0,26,19,10,-99999999999999.0,10,11,30
23,865764032.0786918,99999999999999.0, 1, 1,10,-99999999999999.0,28,13,20
59,856800000.0,99999999999999.0, 1, 1,10,-99999999999999.0, 1, 8,10
521,3309088540.5846677,99999999999999.0,19,16,60,-99999999999999.0,10,11,30
637,23309459886.054962,99999999999999.0,19,16,60,-99999999999999.0, 1, 1,20
649,23309459886.054962,99999999999999.0,19,16,60,-99999999999999.0, 1, 1,20
4,212, 7
11,3768484212.879805,99999999999999.0,26,19,10,-99999999999999.0,10,11,30
23,980681962.3058468,99999999999999.0, 1, 1,10,-99999999999999.0,28,13,20
59,970200000.0,99999999999999.0, 1, 1,10,-99999999999999.0, 1, 8,10
521,2787802250.574004,99999999999999.0,19,16,60,-99999999999999.0,10,11,30
637,3798752952.9204407,99999999999999.0,19,16,60,-99999999999999.0, 1, 1,20
649,3798752952.9204407,99999999999999.0,19,16,60,-99999999999999.0, 1, 1,20
4,243, 8
11,2485348331.191371,99999999999999.0,26,19,10,-99999999999999.0,10,11,30
23,943884486.0182079,99999999999999.0, 1, 1,10,623485.6146716633,12,14,10
59,933840000.0,99999999999999.0, 1, 1,10,-99999999999999.0, 1, 8,10
521,1541463845.1732163,99999999999999.0,19,16,60,-99999999999999.0,10,11,30
637,9188511899.922195,99999999999999.0,19,16,60,-99999999999999.0, 1, 1,20
649,9188511899.922195,99999999999999.0,19,16,60,-99999999999999.0, 1, 1,20
4,273, 9
11,4537539217.019178,99999999999999.0,26,19,10,-99999999999999.0,10,11,30
23,902481364.5080373,99999999999999.0, 1, 1,10,-99999999999999.0,12,14,10
59,893160000.0,99999999999999.0, 1, 1,10,-99999999999999.0, 1, 8,10
521,3635057852.5111933,99999999999999.0,19,16,60,-99999999999999.0,10,11,30
637,40941297487.59575,99999999999999.0,19,16,60,-99999999999999.0, 1, 1,20
649,40941297487.59575,99999999999999.0,19,16,60,-99999999999999.0, 1, 1,20
4,304,10
11,9862936463.097271,99999999999999.0,26,19,10,-99999999999999.0,10,11,30
23,980426836.9655503,99999999999999.0, 1, 1,10,625121.3650843285,22,16,40
59,970200000.0,99999999999999.0, 1, 1,10,-99999999999999.0, 1, 8,10
521,8882509626.131752,99999999999999.0,19,16,60,-99999999999999.0,10,11,30
637,120146953435.77304,99999999999999.0,19,16,60,-99999999999999.0, 1, 1,20
649,120146953435.77304,99999999999999.0,19,16,60,-99999999999999.0, 1, 1,20
4,334,11
11,9777782253.881142,99999999999999.0,26,19,10,-99999999999999.0,10,11,30
23,902481364.5080376,99999999999999.0, 1, 1,10,-99999999999999.0,22,16,40
59,893160000.0,99999999999999.0, 1, 1,10,-99999999999999.0, 1, 8,10
521,8875300889.373125,99999999999999.0,19,16,60,-99999999999999.0,10,11,30
637,139465620599.9557,99999999999999.0,19,16,60,-99999999999999.0, 1, 1,20
649,139465620599.9557,99999999999999.0,19,16,60,-99999999999999.0, 1, 1,20
4,365,12
11,10432555859.392231,99999999999999.0,26,19,10,-99999999999999.0,10,11,30
23,943605239.0084217,99999999999999.0, 1, 1,10,-99999999999999.0,22,16,40
59,933840000.0,99999999999999.0, 1, 1,10,-99999999999999.0, 1, 8,10
521,9488950620.383821,99999999999999.0,19,16,60,-99999999999999.0,10,11,30
637,178930764491.36746,99999999999999.0,19,16,60,-99999999999999.0, 1, 1,20
649,178930764491.36746,99999999999999.0,19,16,60,-99999999999999.0, 1, 1,20
5,365
13,91287095656.10498,30000.0, 3,26,19,10,3030777.439908197, 5,10,11,30
25,11183513645.399698,30000.0, 1, 1, 1,10,625121.3650843285,10,22,16,40
61,11066760000.0,30000.0, 1, 1, 1,10,600000.0, 1, 1, 8,10
523,80103582010.70041,0.0, 3,19,16,60,2423379.531568489, 5,10,11,30
639,1203317495481.935,0.0, 3,19,16,60,41250000.0, 1, 1, 1,20
651,1203317495481.935,0.0, 3,19,16,60,41250000.0, 1, 1, 1,20
1,RUN PERIOD 2,  41.98, -87.92,  -6.00, 201.00
4,1, 7
11,84224524.48643719,99999999999999.0,26,19,10,-99999999999999.0,10,11,30
23,41123874.500382535,99999999999999.0, 1, 1,10,-99999999999999.0,22,16,40
59,40680000.0,99999999999999.0, 1, 1,10,-99999999999999.0, 1, 8,10
521,43100649.986054674,99999999999999.0,19,16,60,-99999999999999.0,10,11,30
637,0.0,99999999999999.0,19,16,60,-99999999999999.0, 1, 1,20
649,0.0,99999999999999.0,19,16,60,-99999999999999.0, 1, 1,20
5,1
13,84224524.48643719,99999999999999.0, 3,26,19,10,-99999999999999.0, 5,10,11,30
25,41123874.500382535,99999999999999.0, 1, 1, 1,10,-99999999999999.0,10,22,16,40
61,40680000.0,99999999999999.0, 1, 1, 1,10,-99999999999999.0, 1, 1, 8,10
523,43100649.986054674,99999999999999.0, 3,19,16,60,-99999999999999.0, 5,10,11,30
639,0.0,99999999999999.0, 3,19,16,60,-99999999999999.0, 1, 1, 1,20
651,0.0,99999999999999.0, 3,19,16,60,-99999999999999.0, 1, 1, 1,20
End of Data
 Number of Records Written=          90
