Program Version,EnergyPlus, Version 24.2.0-94a887817b, YMD=2025.02.04 15:39
1,5,Environment Title[],Latitude[deg],Longitude[deg],Time Zone[],Elevation[m]
2,8,Day of Simulation[],Month[],Day of Month[],DST Indicator[1=yes 0=no],Hour[],StartMinute[],EndMinute[],DayType
3,5,Cumulative Day of Simulation[],Month[],Day of Month[],DST Indicator[1=yes 0=no],DayType  ! When Daily Meters Requested
4,2,Cumulative Days of Simulation[],Month[]  ! When Monthly Meters Requested
5,1,Cumulative Days of Simulation[] ! When Run Period Meters Requested
6,1,Calendar Year of Simulation[] ! When Annual Meters Requested
11,9,Electricity:Facility [J] !Monthly [Value,Min,Day,Hour,Minute,Max,Day,Hour,Minute]
23,9,Electricity:Building [J] !Monthly [Value,Min,Day,Hour,Minute,Max,Day,Hour,Minute]
59,9,InteriorLights:Electricity [J] !Monthly [Value,Min,Day,Hour,Minute,Max,Day,Hour,Minute]
521,9,Electricity:HVAC [J] !Monthly [Value,Min,Day,Hour,Minute,Max,Day,Hour,Minute]
637,9,NaturalGas:Facility [J] !Monthly [Value,Min,Day,Hour,Minute,Max,Day,Hour,Minute]
649,9,NaturalGas:HVAC [J] !Monthly [Value,Min,Day,Hour,Minute,Max,Day,Hour,Minute]
13,11,Electricity:Facility [J] !RunPeriod [Value,Min,Month,Day,Hour,Minute,Max,Month,Day,Hour,Minute]
25,11,Electricity:Building [J] !RunPeriod [Value,Min,Month,Day,Hour,Minute,Max,Month,Day,Hour,Minute]
61,11,InteriorLights:Electricity [J] !RunPeriod [Value,Min,Month,Day,Hour,Minute,Max,Month,Day,Hour,Minute]
523,11,Electricity:HVAC [J] !RunPeriod [Value,Min,Month,Day,Hour,Minute,Max,Month,Day,Hour,Minute]
639,11,NaturalGas:Facility [J] !RunPeriod [Value,Min,Month,Day,Hour,Minute,Max,Month,Day,Hour,Minute]
651,11,NaturalGas:HVAC [J] !RunPeriod [Value,Min,Month,Day,Hour,Minute,Max,Month,Day,Hour,Minute]
End of Data Dictionary
1,RUN PERIOD 1,  41.98, -87.92,  -6.00, 201.00
4,31, 1
11,9832233813.353277,408891.4285714286, 5, 6,50,2986128.103638139,16,13,60
23,993183712.1222446,30000.0, 1, 1,10,616654.8638567141, 1, 9,10
59,970200000.0,30000.0, 1, 1,10,600000.0, 1, 8,10
521,8839050101.230986,378891.4285714286, 5, 6,50,2369473.239781425,16,13,60
637,178995602779.33398,28242663.810135387,21,16,10,41250000.0, 1, 1,10
649,178995602779.33398,28242663.810135387,21,16,10,41250000.0, 1, 1,10
4,59, 2
11,9364521957.69193,99999999999999.0, 5, 6,50,3027589.543901261,22,15,30
23,868145836.6280428,99999999999999.0, 1, 1,10,-99999999999999.0, 1, 9,10
59,848160000.0,99999999999999.0, 1, 1,10,-99999999999999.0, 1, 8,10
521,8496376121.063895,99999999999999.0, 5, 6,50,2410934.680044547,22,15,30
637,158375770327.7571,26554505.31677954,23,12,10,-99999999999999.0, 1, 1,10
649,158375770327.7571,26554505.31677954,23,12,10,-99999999999999.0, 1, 1,10
4,90, 3
11,10936711401.898588,316654.86385671404,27,18,10,3094313.994503949,27,13,10
23,918465128.4594432,99999999999999.0, 1, 1,10,-99999999999999.0, 1, 9,10
59,897480000.0,99999999999999.0, 1, 1,10,-99999999999999.0, 1, 8,10
521,10018246273.439104,0.0,27,13,30,2477659.1306472346,27,13,10
637,162066268465.91794,0.0,27,13,30,-99999999999999.0, 1, 1,10
649,162066268465.91794,0.0,27,13,30,-99999999999999.0, 1, 1,10
4,120, 4
11,9072390250.320349,30000.0,11,19,10,-99999999999999.0,27,13,10
23,951504420.2908442,99999999999999.0, 1, 1,10,-99999999999999.0, 1, 9,10
59,929520000.0,99999999999999.0, 1, 1,10,-99999999999999.0, 1, 8,10
521,8120885830.029586,99999999999999.0,27,13,30,-99999999999999.0,27,13,10
637,117208370552.33195,99999999999999.0,27,13,30,-99999999999999.0, 1, 1,10
649,117208370552.33195,99999999999999.0,27,13,30,-99999999999999.0, 1, 1,10
4,151, 5
11,7792927060.654853,99999999999999.0,11,19,10,3098624.731135167,21, 9,20
23,993445244.6564634,99999999999999.0, 1, 1,10,632565.0416136885,28,13,10
59,970200000.0,99999999999999.0, 1, 1,10,-99999999999999.0, 1, 8,10
521,6799481815.998549,99999999999999.0,27,13,30,2481969.867278453,21, 9,20
637,84108547086.46918,99999999999999.0,27,13,30,-99999999999999.0, 1, 1,10
649,84108547086.46918,99999999999999.0,27,13,30,-99999999999999.0, 1, 1,10
4,181, 6
11,4776392017.728952,99999999999999.0,11,19,10,3099098.398227497,18,15,50
23,876872177.7015502,99999999999999.0, 1, 1,10,-99999999999999.0,28,13,10
59,856800000.0,99999999999999.0, 1, 1,10,-99999999999999.0, 1, 8,10
521,3899519840.027367,99999999999999.0,27,13,30,2483716.785752732,19, 7,40
637,29527248862.866253,99999999999999.0,27,13,30,-99999999999999.0, 1, 1,10
649,29527248862.866253,99999999999999.0,27,13,30,-99999999999999.0, 1, 1,10
4,212, 7
11,4141299261.4221215,99999999999999.0,11,19,10,3101234.6504998636, 1,11,40
23,993456113.1549668,99999999999999.0, 1, 1,10,-99999999999999.0,28,13,10
59,970200000.0,99999999999999.0, 1, 1,10,-99999999999999.0, 1, 8,10
521,3147843148.2670846,99999999999999.0,27,13,30,2484579.78664315, 1,11,40
637,7348968974.300118,99999999999999.0,27,13,30,-99999999999999.0, 1, 1,10
649,7348968974.300118,99999999999999.0,27,13,30,-99999999999999.0, 1, 1,10
4,243, 8
11,2888053550.8480296,99999999999999.0,11,19,10,-99999999999999.0, 1,11,40
23,956102982.4299042,99999999999999.0, 1, 1,10,632719.1122946368,12,14,10
59,933840000.0,99999999999999.0, 1, 1,10,-99999999999999.0, 1, 8,10
521,1931950568.418036,99999999999999.0,27,13,30,-99999999999999.0, 1,11,40
637,13255394019.682121,99999999999999.0,27,13,30,-99999999999999.0, 1, 1,10
649,13255394019.682121,99999999999999.0,27,13,30,-99999999999999.0, 1, 1,10
4,273, 9
11,5015390670.87239,99999999999999.0,11,19,10,3108949.9392544962,30,13,40
23,914145128.4594436,99999999999999.0, 1, 1,10,-99999999999999.0,12,14,10
59,893160000.0,99999999999999.0, 1, 1,10,-99999999999999.0, 1, 8,10
521,4101245542.412902,99999999999999.0,27,13,30,2493277.298006538,29,10,60
637,46231140382.16424,99999999999999.0,27,13,30,-99999999999999.0, 1, 1,10
649,46231140382.16424,99999999999999.0,27,13,30,-99999999999999.0, 1, 1,10
4,304,10
11,10113620739.720766,99999999999999.0,11,19,10,3109913.542081111, 3,13,60
23,993183712.1222446,99999999999999.0, 1, 1,10,-99999999999999.0,12,14,10
59,970200000.0,99999999999999.0, 1, 1,10,-99999999999999.0, 1, 8,10
521,9120437027.59854,99999999999999.0,27,13,30,-99999999999999.0,29,10,60
637,124184025829.9719,99999999999999.0,27,13,30,-99999999999999.0, 1, 1,10
649,124184025829.9719,99999999999999.0,27,13,30,-99999999999999.0, 1, 1,10
4,334,11
11,10199644389.50684,99999999999999.0,11,19,10,-99999999999999.0, 3,13,60
23,914145128.4594432,99999999999999.0, 1, 1,10,-99999999999999.0,12,14,10
59,893160000.0,99999999999999.0, 1, 1,10,-99999999999999.0, 1, 8,10
521,9285499261.047401,99999999999999.0,27,13,30,-99999999999999.0,29,10,60
637,145065854821.70996,99999999999999.0,27,13,30,-99999999999999.0, 1, 1,10
649,145065854821.70996,99999999999999.0,27,13,30,-99999999999999.0, 1, 1,10
4,365,12
11,10444775040.674679,99999999999999.0,11,19,10,-99999999999999.0, 3,13,60
23,955824420.290844,99999999999999.0, 1, 1,10,-99999999999999.0,12,14,10
59,933840000.0,99999999999999.0, 1, 1,10,-99999999999999.0, 1, 8,10
521,9488950620.383821,99999999999999.0,27,13,30,-99999999999999.0,29,10,60
637,179831611753.18195,99999999999999.0,27,13,30,-99999999999999.0, 1, 1,10
649,179831611753.18195,99999999999999.0,27,13,30,-99999999999999.0, 1, 1,10
5,365
13,94577960154.68153,30000.0, 4,11,19,10,3109913.542081111,10, 3,13,60
25,11328474004.775715,30000.0, 1, 1, 1,10,632719.1122946368, 8,12,14,10
61,11066760000.0,30000.0, 1, 1, 1,10,600000.0, 1, 1, 8,10
523,83249486149.92113,0.0, 3,27,13,30,2493277.298006538, 9,29,10,60
639,1246198803855.6914,0.0, 3,27,13,30,41250000.0, 1, 1, 1,10
651,1246198803855.6914,0.0, 3,27,13,30,41250000.0, 1, 1, 1,10
1,RUN PERIOD 2,  41.98, -87.92,  -6.00, 201.00
4,1, 7
11,86410219.84535913,99999999999999.0,11,19,10,-99999999999999.0, 3,13,60
23,41679291.8314028,99999999999999.0, 1, 1,10,-99999999999999.0,12,14,10
59,40680000.0,99999999999999.0, 1, 1,10,-99999999999999.0, 1, 8,10
521,44730928.013956204,99999999999999.0,27,13,30,-99999999999999.0,29,10,60
637,0.0,99999999999999.0,27,13,30,-99999999999999.0, 1, 1,10
649,0.0,99999999999999.0,27,13,30,-99999999999999.0, 1, 1,10
5,1
13,86410219.84535913,99999999999999.0, 4,11,19,10,-99999999999999.0,10, 3,13,60
25,41679291.8314028,99999999999999.0, 1, 1, 1,10,-99999999999999.0, 8,12,14,10
61,40680000.0,99999999999999.0, 1, 1, 1,10,-99999999999999.0, 1, 1, 8,10
523,44730928.013956204,99999999999999.0, 3,27,13,30,-99999999999999.0, 9,29,10,60
639,0.0,99999999999999.0, 3,27,13,30,-99999999999999.0, 1, 1, 1,10
651,0.0,99999999999999.0, 3,27,13,30,-99999999999999.0, 1, 1, 1,10
End of Data
 Number of Records Written=          90
