Program Version,EnergyPlus, Version 24.2.0-94a887817b, YMD=2025.02.04 15:38
1,5,Environment Title[],Latitude[deg],Longitude[deg],Time Zone[],Elevation[m]
2,8,Day of Simulation[],Month[],Day of Month[],DST Indicator[1=yes 0=no],Hour[],StartMinute[],EndMinute[],DayType
3,5,Cumulative Day of Simulation[],Month[],Day of Month[],DST Indicator[1=yes 0=no],DayType  ! When Daily Meters Requested
4,2,Cumulative Days of Simulation[],Month[]  ! When Monthly Meters Requested
5,1,Cumulative Days of Simulation[] ! When Run Period Meters Requested
6,1,Calendar Year of Simulation[] ! When Annual Meters Requested
11,9,Electricity:Facility [J] !Monthly [Value,Min,Day,Hour,Minute,Max,Day,Hour,Minute]
23,9,Electricity:Building [J] !Monthly [Value,Min,Day,Hour,Minute,Max,Day,Hour,Minute]
59,9,InteriorLights:Electricity [J] !Monthly [Value,Min,Day,Hour,Minute,Max,Day,Hour,Minute]
521,9,Electricity:HVAC [J] !Monthly [Value,Min,Day,Hour,Minute,Max,Day,Hour,Minute]
637,9,NaturalGas:Facility [J] !Monthly [Value,Min,Day,Hour,Minute,Max,Day,Hour,Minute]
649,9,NaturalGas:HVAC [J] !Monthly [Value,Min,Day,Hour,Minute,Max,Day,Hour,Minute]
13,11,Electricity:Facility [J] !RunPeriod [Value,Min,Month,Day,Hour,Minute,Max,Month,Day,Hour,Minute]
25,11,Electricity:Building [J] !RunPeriod [Value,Min,Month,Day,Hour,Minute,Max,Month,Day,Hour,Minute]
61,11,InteriorLights:Electricity [J] !RunPeriod [Value,Min,Month,Day,Hour,Minute,Max,Month,Day,Hour,Minute]
523,11,Electricity:HVAC [J] !RunPeriod [Value,Min,Month,Day,Hour,Minute,Max,Month,Day,Hour,Minute]
639,11,NaturalGas:Facility [J] !RunPeriod [Value,Min,Month,Day,Hour,Minute,Max,Month,Day,Hour,Minute]
651,11,NaturalGas:HVAC [J] !RunPeriod [Value,Min,Month,Day,Hour,Minute,Max,Month,Day,Hour,Minute]
End of Data Dictionary
1,RUN PERIOD 1,  41.98, -87.92,  -6.00, 201.00
4,31, 1
11,9821109155.708048,408891.4285714286, 5, 6,50,2978066.757518416,16,13,60
23,982059054.4770668,30000.0, 1, 1,10,608593.517736991, 1, 9,10
59,970200000.0,30000.0, 1, 1,10,600000.0, 1, 8,10
521,8839050101.230986,378891.4285714286, 5, 6,50,2369473.239781425,16,13,60
637,179099247085.186,28295323.54989774,21,16,10,41250000.0, 1, 1,10
649,179099247085.186,28295323.54989774,21,16,10,41250000.0, 1, 1,10
4,59, 2
11,9354848342.348251,99999999999999.0, 5, 6,50,3019528.197781538,22,15,30
23,858472221.2844017,99999999999999.0, 1, 1,10,-99999999999999.0, 1, 9,10
59,848160000.0,99999999999999.0, 1, 1,10,-99999999999999.0, 1, 8,10
521,8496376121.063895,99999999999999.0, 5, 6,50,2410934.680044547,22,15,30
637,158505026484.32486,26605294.919098202,23,12,10,-99999999999999.0, 1, 1,10
649,158505026484.32486,26605294.919098202,23,12,10,-99999999999999.0, 1, 1,10
4,90, 3
11,10850630916.920835,30000.0,26,19,10,3029761.3184873327,19,16,60
23,908307832.3486235,99999999999999.0, 1, 1,10,-99999999999999.0, 1, 9,10
59,897480000.0,99999999999999.0, 1, 1,10,-99999999999999.0, 1, 8,10
521,9942323084.57221,0.0,26,15,20,2421167.8007503417,19,16,60
637,161533892859.27475,0.0,26,15,20,-99999999999999.0, 1, 1,10
649,161533892859.27475,0.0,26,15,20,-99999999999999.0, 1, 1,10
4,120, 4
11,8910182351.8161,99999999999999.0,26,19,10,-99999999999999.0,19,16,60
23,940863443.4128449,99999999999999.0, 1, 1,10,-99999999999999.0, 1, 9,10
59,929520000.0,99999999999999.0, 1, 1,10,-99999999999999.0, 1, 8,10
521,7969318908.4032,99999999999999.0,26,15,20,-99999999999999.0,19,16,60
637,115435871124.89761,99999999999999.0,26,15,20,-99999999999999.0, 1, 1,10
649,115435871124.89761,99999999999999.0,26,15,20,-99999999999999.0, 1, 1,10
4,151, 5
11,7394851611.428861,99999999999999.0,26,19,10,3031973.04930548, 9,15,30
23,982320540.7558736,99999999999999.0, 1, 1,10,624514.6475142075,28,13,10
59,970200000.0,99999999999999.0, 1, 1,10,-99999999999999.0, 1, 8,10
521,6412531070.672775,99999999999999.0,26,15,20,2429317.8072731043,11,14,10
637,79927517599.5242,99999999999999.0,26,15,20,-99999999999999.0, 1, 1,10
649,79927517599.5242,99999999999999.0,26,15,20,-99999999999999.0, 1, 1,10
4,181, 6
11,4254501006.420166,99999999999999.0,26,19,10,-99999999999999.0, 9,15,30
23,867198536.406089,99999999999999.0, 1, 1,10,-99999999999999.0,28,13,10
59,856800000.0,99999999999999.0, 1, 1,10,-99999999999999.0, 1, 8,10
521,3387302470.0141215,99999999999999.0,26,15,20,-99999999999999.0,11,14,10
637,22895003790.026146,99999999999999.0,26,15,20,-99999999999999.0, 1, 1,10
649,22895003790.026146,99999999999999.0,26,15,20,-99999999999999.0, 1, 1,10
4,212, 7
11,3898743651.9151826,99999999999999.0,26,19,10,-99999999999999.0, 9,15,30
23,982331396.9667022,99999999999999.0, 1, 1,10,-99999999999999.0,28,13,10
59,970200000.0,99999999999999.0, 1, 1,10,-99999999999999.0, 1, 8,10
521,2916412254.948514,99999999999999.0,26,15,20,-99999999999999.0,11,14,10
637,2743271970.1983285,99999999999999.0,26,15,20,-99999999999999.0, 1, 1,10
649,2743271970.1983285,99999999999999.0,26,15,20,-99999999999999.0, 1, 1,10
4,243, 8
11,2762381670.7134995,99999999999999.0,26,19,10,-99999999999999.0, 9,15,30
23,945461839.9389617,99999999999999.0, 1, 1,10,624615.2858903527,12,14,10
59,933840000.0,99999999999999.0, 1, 1,10,-99999999999999.0, 1, 8,10
521,1816919830.7746074,99999999999999.0,26,15,20,-99999999999999.0,11,14,10
637,8894166749.37263,99999999999999.0,26,15,20,-99999999999999.0, 1, 1,10
649,8894166749.37263,99999999999999.0,26,15,20,-99999999999999.0, 1, 1,10
4,273, 9
11,4597945390.873687,99999999999999.0,26,19,10,-99999999999999.0, 9,15,30
23,903987832.3486233,99999999999999.0, 1, 1,10,-99999999999999.0,12,14,10
59,893160000.0,99999999999999.0, 1, 1,10,-99999999999999.0, 1, 8,10
521,3693957558.525116,99999999999999.0,26,15,20,-99999999999999.0,11,14,10
637,41781137238.549164,99999999999999.0,26,15,20,-99999999999999.0, 1, 1,10
649,41781137238.549164,99999999999999.0,26,15,20,-99999999999999.0, 1, 1,10
4,304,10
11,9903753573.59815,99999999999999.0,26,19,10,-99999999999999.0, 9,15,30
23,982059054.4770668,99999999999999.0, 1, 1,10,-99999999999999.0,12,14,10
59,970200000.0,99999999999999.0, 1, 1,10,-99999999999999.0, 1, 8,10
521,8921694519.12104,99999999999999.0,26,15,20,-99999999999999.0,11,14,10
637,122408413104.6612,99999999999999.0,26,15,20,-99999999999999.0, 1, 1,10
649,122408413104.6612,99999999999999.0,26,15,20,-99999999999999.0, 1, 1,10
4,334,11
11,10083125891.780798,99999999999999.0,26,19,10,-99999999999999.0, 9,15,30
23,903987832.3486235,99999999999999.0, 1, 1,10,-99999999999999.0,12,14,10
59,893160000.0,99999999999999.0, 1, 1,10,-99999999999999.0, 1, 8,10
521,9179138059.432182,99999999999999.0,26,15,20,-99999999999999.0,11,14,10
637,144186499140.51462,99999999999999.0,26,15,20,-99999999999999.0, 1, 1,10
649,144186499140.51462,99999999999999.0,26,15,20,-99999999999999.0, 1, 1,10
4,365,12
11,10434134063.796637,99999999999999.0,26,19,10,-99999999999999.0, 9,15,30
23,945183443.4128451,99999999999999.0, 1, 1,10,-99999999999999.0,12,14,10
59,933840000.0,99999999999999.0, 1, 1,10,-99999999999999.0, 1, 8,10
521,9488950620.383821,99999999999999.0,26,15,20,-99999999999999.0,11,14,10
637,179944358602.8826,99999999999999.0,26,15,20,-99999999999999.0, 1, 1,10
649,179944358602.8826,99999999999999.0,26,15,20,-99999999999999.0, 1, 1,10
5,365
13,92266207627.32994,30000.0, 3,26,19,10,3031973.04930548, 5, 9,15,30
25,11202233028.177532,30000.0, 1, 1, 1,10,624615.2858903527, 8,12,14,10
61,11066760000.0,30000.0, 1, 1, 1,10,600000.0, 1, 1, 8,10
523,81063974599.14583,0.0, 3,26,15,20,2429317.8072731043, 5,11,14,10
639,1217354405749.4207,0.0, 3,26,15,20,41250000.0, 1, 1, 1,10
651,1217354405749.4207,0.0, 3,26,15,20,41250000.0, 1, 1, 1,10
1,RUN PERIOD 2,  41.98, -87.92,  -6.00, 201.00
4,1, 7
11,92287189.1809258,99999999999999.0,26,19,10,-99999999999999.0, 9,15,30
23,41195611.06421948,99999999999999.0, 1, 1,10,-99999999999999.0,12,14,10
59,40680000.0,99999999999999.0, 1, 1,10,-99999999999999.0, 1, 8,10
521,51091578.116706386,99999999999999.0,26,15,20,-99999999999999.0,11,14,10
637,0.0,99999999999999.0,26,15,20,-99999999999999.0, 1, 1,10
649,0.0,99999999999999.0,26,15,20,-99999999999999.0, 1, 1,10
5,1
13,92287189.1809258,99999999999999.0, 3,26,19,10,-99999999999999.0, 5, 9,15,30
25,41195611.06421948,99999999999999.0, 1, 1, 1,10,-99999999999999.0, 8,12,14,10
61,40680000.0,99999999999999.0, 1, 1, 1,10,-99999999999999.0, 1, 1, 8,10
523,51091578.116706386,99999999999999.0, 3,26,15,20,-99999999999999.0, 5,11,14,10
639,0.0,99999999999999.0, 3,26,15,20,-99999999999999.0, 1, 1, 1,10
651,0.0,99999999999999.0, 3,26,15,20,-99999999999999.0, 1, 1, 1,10
End of Data
 Number of Records Written=          90
