Program Version,EnergyPlus, Version 24.2.0-94a887817b, YMD=2025.02.04 15:39
1,5,Environment Title[],Latitude[deg],Longitude[deg],Time Zone[],Elevation[m]
2,8,Day of Simulation[],Month[],Day of Month[],DST Indicator[1=yes 0=no],Hour[],StartMinute[],EndMinute[],DayType
3,5,Cumulative Day of Simulation[],Month[],Day of Month[],DST Indicator[1=yes 0=no],DayType  ! When Daily Meters Requested
4,2,Cumulative Days of Simulation[],Month[]  ! When Monthly Meters Requested
5,1,Cumulative Days of Simulation[] ! When Run Period Meters Requested
6,1,Calendar Year of Simulation[] ! When Annual Meters Requested
11,9,Electricity:Facility [J] !Monthly [Value,Min,Day,Hour,Minute,Max,Day,Hour,Minute]
23,9,Electricity:Building [J] !Monthly [Value,Min,Day,Hour,Minute,Max,Day,Hour,Minute]
59,9,InteriorLights:Electricity [J] !Monthly [Value,Min,Day,Hour,Minute,Max,Day,Hour,Minute]
521,9,Electricity:HVAC [J] !Monthly [Value,Min,Day,Hour,Minute,Max,Day,Hour,Minute]
637,9,NaturalGas:Facility [J] !Monthly [Value,Min,Day,Hour,Minute,Max,Day,Hour,Minute]
649,9,NaturalGas:HVAC [J] !Monthly [Value,Min,Day,Hour,Minute,Max,Day,Hour,Minute]
13,11,Electricity:Facility [J] !RunPeriod [Value,Min,Month,Day,Hour,Minute,Max,Month,Day,Hour,Minute]
25,11,Electricity:Building [J] !RunPeriod [Value,Min,Month,Day,Hour,Minute,Max,Month,Day,Hour,Minute]
61,11,InteriorLights:Electricity [J] !RunPeriod [Value,Min,Month,Day,Hour,Minute,Max,Month,Day,Hour,Minute]
523,11,Electricity:HVAC [J] !RunPeriod [Value,Min,Month,Day,Hour,Minute,Max,Month,Day,Hour,Minute]
639,11,NaturalGas:Facility [J] !RunPeriod [Value,Min,Month,Day,Hour,Minute,Max,Month,Day,Hour,Minute]
651,11,NaturalGas:HVAC [J] !RunPeriod [Value,Min,Month,Day,Hour,Minute,Max,Month,Day,Hour,Minute]
End of Data Dictionary
1,RUN PERIOD 1,  41.98, -87.92,  -6.00, 201.00
4,31, 1
11,9822205371.410244,408891.4285714286, 5, 6,50,2978861.1167228934,16,13,60
23,983155270.1792016,30000.0, 1, 1,10,609387.876941469, 1, 9,10
59,970200000.0,30000.0, 1, 1,10,600000.0, 1, 8,10
521,8839050101.230986,378891.4285714286, 5, 6,50,2369473.239781425,16,13,60
637,178884007708.66812,28187204.497054882,21,16,10,41250000.0, 1, 1,10
649,178884007708.66812,28187204.497054882,21,16,10,41250000.0, 1, 1,10
4,59, 2
11,9355801573.393612,99999999999999.0, 5, 6,50,3020322.5569860158,22,15,30
23,859425452.3297416,99999999999999.0, 1, 1,10,-99999999999999.0, 1, 9,10
59,848160000.0,99999999999999.0, 1, 1,10,-99999999999999.0, 1, 8,10
521,8496376121.063895,99999999999999.0, 5, 6,50,2410934.680044547,22,15,30
637,158237819248.93912,26500908.10741629,23,12,10,-99999999999999.0, 1, 1,10
649,158237819248.93912,26500908.10741629,23,12,10,-99999999999999.0, 1, 1,10
4,90, 3
11,10969474706.856276,99999999999999.0, 5, 6,50,3230200.2331896033,27,15,10
23,909308724.9462281,99999999999999.0, 1, 1,10,-99999999999999.0, 1, 9,10
59,897480000.0,99999999999999.0, 1, 1,10,-99999999999999.0, 1, 8,10
521,10060165981.910002,0.0,27,15,20,2620812.3562481343,27,15,10
637,162177043867.75455,0.0,27,15,20,-99999999999999.0, 1, 1,10
649,162177043867.75455,0.0,27,15,20,-99999999999999.0, 1, 1,10
4,120, 4
11,9628179532.87997,30000.0,11,19,10,-99999999999999.0,27,15,10
23,941911997.562715,99999999999999.0, 1, 1,10,-99999999999999.0, 1, 9,10
59,929520000.0,99999999999999.0, 1, 1,10,-99999999999999.0, 1, 8,10
521,8686267535.317226,99999999999999.0,27,15,20,-99999999999999.0,27,15,10
637,120006912440.95781,99999999999999.0,27,15,20,-99999999999999.0, 1, 1,10
649,120006912440.95781,99999999999999.0,27,15,20,-99999999999999.0, 1, 1,10
4,151, 5
11,9190649341.345554,99999999999999.0,11,19,10,-99999999999999.0,27,15,10
23,983494060.7788066,99999999999999.0, 1, 1,10,625286.3246479925,28,13,10
59,970200000.0,99999999999999.0, 1, 1,10,-99999999999999.0, 1, 8,10
521,8207155280.566641,99999999999999.0,27,15,20,-99999999999999.0,27,15,10
637,92567305367.04918,99999999999999.0,27,15,20,-99999999999999.0, 1, 1,10
649,92567305367.04918,99999999999999.0,27,15,20,-99999999999999.0, 1, 1,10
4,181, 6
11,7366021743.17795,99999999999999.0,11,19,10,-99999999999999.0,27,15,10
23,868144250.8898125,99999999999999.0, 1, 1,10,-99999999999999.0,28,13,10
59,856800000.0,99999999999999.0, 1, 1,10,-99999999999999.0, 1, 8,10
521,6497877492.288074,99999999999999.0,27,15,20,-99999999999999.0,27,15,10
637,41553283452.2149,99999999999999.0,27,15,20,-99999999999999.0, 1, 1,10
649,41553283452.2149,99999999999999.0,27,15,20,-99999999999999.0, 1, 1,10
4,212, 7
11,6894904101.315862,99999999999999.0,11,19,10,-99999999999999.0,27,15,10
23,983398860.0112468,99999999999999.0, 1, 1,10,-99999999999999.0,28,13,10
59,970200000.0,99999999999999.0, 1, 1,10,-99999999999999.0, 1, 8,10
521,5911505241.304535,99999999999999.0,27,15,20,-99999999999999.0,27,15,10
637,14832421595.477884,99999999999999.0,27,15,20,-99999999999999.0, 1, 1,10
649,14832421595.477884,99999999999999.0,27,15,20,-99999999999999.0, 1, 1,10
4,243, 8
11,6053632683.949934,99999999999999.0,11,19,10,-99999999999999.0,27,15,10
23,946520028.1767508,99999999999999.0, 1, 1,10,636742.78737554, 6,11,60
59,933840000.0,99999999999999.0, 1, 1,10,-99999999999999.0, 1, 8,10
521,5107112655.773076,99999999999999.0,27,15,20,-99999999999999.0,27,15,10
637,27643030994.963642,99999999999999.0,27,15,20,-99999999999999.0, 1, 1,10
649,27643030994.963642,99999999999999.0,27,15,20,-99999999999999.0, 1, 1,10
4,273, 9
11,7516660615.433821,99999999999999.0,11,19,10,3230420.561440677,25,14,10
23,905058241.4888068,99999999999999.0, 1, 1,10,-99999999999999.0, 6,11,60
59,893160000.0,99999999999999.0, 1, 1,10,-99999999999999.0, 1, 8,10
521,6611602373.944926,99999999999999.0,27,15,20,2621032.684499208,25,14,10
637,63627295614.78146,99999999999999.0,27,15,20,-99999999999999.0, 1, 1,10
649,63627295614.78146,99999999999999.0,27,15,20,-99999999999999.0, 1, 1,10
4,304,10
11,10563521523.600716,99999999999999.0,11,19,10,-99999999999999.0,25,14,10
23,983193432.4426194,99999999999999.0, 1, 1,10,-99999999999999.0, 6,11,60
59,970200000.0,99999999999999.0, 1, 1,10,-99999999999999.0, 1, 8,10
521,9580328091.15805,99999999999999.0,27,15,20,-99999999999999.0,25,14,10
637,127998484419.56067,99999999999999.0,27,15,20,-99999999999999.0, 1, 1,10
649,127998484419.56067,99999999999999.0,27,15,20,-99999999999999.0, 1, 1,10
4,334,11
11,10449595072.370613,99999999999999.0,11,19,10,-99999999999999.0,25,14,10
23,904988724.9462281,99999999999999.0, 1, 1,10,-99999999999999.0, 6,11,60
59,893160000.0,99999999999999.0, 1, 1,10,-99999999999999.0, 1, 8,10
521,9544606347.424368,99999999999999.0,27,15,20,-99999999999999.0,25,14,10
637,147359636111.8559,99999999999999.0,27,15,20,-99999999999999.0, 1, 1,10
649,147359636111.8559,99999999999999.0,27,15,20,-99999999999999.0, 1, 1,10
4,365,12
11,10435182617.946564,99999999999999.0,11,19,10,-99999999999999.0,25,14,10
23,946231997.5627148,99999999999999.0, 1, 1,10,-99999999999999.0, 6,11,60
59,933840000.0,99999999999999.0, 1, 1,10,-99999999999999.0, 1, 8,10
521,9488950620.383821,99999999999999.0,27,15,20,-99999999999999.0,25,14,10
637,179710889096.75192,99999999999999.0,27,15,20,-99999999999999.0, 1, 1,10
649,179710889096.75192,99999999999999.0,27,15,20,-99999999999999.0, 1, 1,10
5,365
13,108245828883.67555,30000.0, 4,11,19,10,3230420.561440677, 9,25,14,10
25,11214831041.317766,30000.0, 1, 1, 1,10,636742.78737554, 8, 6,11,60
61,11066760000.0,30000.0, 1, 1, 1,10,600000.0, 1, 1, 8,10
523,97030997842.3707,0.0, 3,27,15,20,2621032.684499208, 9,25,14,10
639,1314598129918.984,0.0, 3,27,15,20,41250000.0, 1, 1, 1,10
651,1314598129918.984,0.0, 3,27,15,20,41250000.0, 1, 1, 1,10
1,RUN PERIOD 2,  41.98, -87.92,  -6.00, 201.00
4,1, 7
11,128489821.73939663,99999999999999.0,11,19,10,-99999999999999.0,25,14,10
23,41243272.616488166,99999999999999.0, 1, 1,10,-99999999999999.0, 6,11,60
59,40680000.0,99999999999999.0, 1, 1,10,-99999999999999.0, 1, 8,10
521,87246549.12290844,99999999999999.0,27,15,20,-99999999999999.0,25,14,10
637,0.0,99999999999999.0,27,15,20,-99999999999999.0, 1, 1,10
649,0.0,99999999999999.0,27,15,20,-99999999999999.0, 1, 1,10
5,1
13,128489821.73939663,99999999999999.0, 4,11,19,10,-99999999999999.0, 9,25,14,10
25,41243272.616488166,99999999999999.0, 1, 1, 1,10,-99999999999999.0, 8, 6,11,60
61,40680000.0,99999999999999.0, 1, 1, 1,10,-99999999999999.0, 1, 1, 8,10
523,87246549.12290844,99999999999999.0, 3,27,15,20,-99999999999999.0, 9,25,14,10
639,0.0,99999999999999.0, 3,27,15,20,-99999999999999.0, 1, 1, 1,10
651,0.0,99999999999999.0, 3,27,15,20,-99999999999999.0, 1, 1, 1,10
End of Data
 Number of Records Written=          90
