Program Version,EnergyPlus, Version 24.2.0-94a887817b, YMD=2025.02.04 15:39
1,5,Environment Title[],Latitude[deg],Longitude[deg],Time Zone[],Elevation[m]
2,8,Day of Simulation[],Month[],Day of Month[],DST Indicator[1=yes 0=no],Hour[],StartMinute[],EndMinute[],DayType
3,5,Cumulative Day of Simulation[],Month[],Day of Month[],DST Indicator[1=yes 0=no],DayType  ! When Daily Report Variables Requested
4,2,Cumulative Days of Simulation[],Month[]  ! When Monthly Report Variables Requested
5,1,Cumulative Days of Simulation[] ! When Run Period Report Variables Requested
6,1,Calendar Year of Simulation[] ! When Annual Report Variables Requested
250,1,LIVING ZONE,Zone Air Temperature [C] !TimeStep,REPORTSCH
251,1,LIVING ZONE,Zone Air System Sensible Heating Energy [J] !TimeStep,REPORTSCH
336,1,LIVING ZONE,Zone Air System Sensible Cooling Energy [J] !TimeStep,REPORTSCH
385,1,LIVING ZONE,Zone Thermostat Heating Setpoint Temperature [C] !TimeStep,REPORTSCH
386,1,LIVING ZONE,Zone Thermostat Cooling Setpoint Temperature [C] !TimeStep,REPORTSCH
387,1,GARAGE ZONE,Zone Air Temperature [C] !TimeStep,REPORTSCH
388,1,GARAGE ZONE,Zone Air System Sensible Heating Energy [J] !TimeStep,REPORTSCH
425,1,GARAGE ZONE,Zone Air System Sensible Cooling Energy [J] !TimeStep,REPORTSCH
450,1,GARAGE ZONE,Zone Thermostat Heating Setpoint Temperature [C] !TimeStep,REPORTSCH
451,1,GARAGE ZONE,Zone Thermostat Cooling Setpoint Temperature [C] !TimeStep,REPORTSCH
452,1,ATTIC ZONE,Zone Air Temperature [C] !TimeStep,REPORTSCH
453,1,ATTIC ZONE,Zone Air System Sensible Heating Energy [J] !TimeStep,REPORTSCH
490,1,ATTIC ZONE,Zone Air System Sensible Cooling Energy [J] !TimeStep,REPORTSCH
515,1,ATTIC ZONE,Zone Thermostat Heating Setpoint Temperature [C] !TimeStep,REPORTSCH
516,1,ATTIC ZONE,Zone Thermostat Cooling Setpoint Temperature [C] !TimeStep,REPORTSCH
542,1,ACDXCOIL 1,Cooling Coil Total Cooling Energy [J] !TimeStep,REPORTSCH
592,1,HEAT PUMP DX HEATING COIL 1,Heating Coil Heating Energy [J] !TimeStep,REPORTSCH
632,1,SUPP HEATING COIL 1,Heating Coil Heating Energy [J] !TimeStep,REPORTSCH
686,1,TWOSPEED HEAT PUMP 1,Unitary System DX Coil Cycling Ratio [] !TimeStep,REPORTSCH
687,1,TWOSPEED HEAT PUMP 1,Unitary System DX Coil Speed Ratio [] !TimeStep,REPORTSCH
688,1,TWOSPEED HEAT PUMP 1,Unitary System DX Coil Speed Level [] !TimeStep,REPORTSCH
End of Data Dictionary
1,RUN PERIOD 1,  41.98, -87.92,  -6.00, 201.00
2,21, 1,21, 0, 1, 0.00,10.00,Monday
250,-0.5945216257486376
251,38000340.18945316
336,0.0
385,20.43313134654121
386,25.5983047443504
387,-0.9425016395004753
388,0.0
425,0.0
450,0.0
451,0.0
452,-1.9694629174654124
453,0.0
490,0.0
515,0.0
516,0.0
542,0.0
592,4839743.985079642
632,32902799.535326485
686,1.0
687,1.0
688,2.0
2,21, 1,21, 0, 1,10.00,20.00,Monday
250,-0.594569828882462
251,38001982.412249714
336,0.0
385,20.43313134654121
386,25.5983047443504
387,-0.9508752533801453
388,0.0
425,0.0
450,0.0
451,0.0
452,-1.9513404258751683
453,0.0
490,0.0
515,0.0
516,0.0
542,0.0
592,4823801.676011793
632,32919263.359287623
686,1.0
687,1.0
688,2.0
2,21, 1,21, 0, 1,20.00,30.00,Monday
250,-0.5947173954692505
251,38003725.045166545
336,0.0
385,20.43313134654121
386,25.5983047443504
387,-0.9604799481409102
388,0.0
425,0.0
450,0.0
451,0.0
452,-1.948255654867349
453,0.0
490,0.0
515,0.0
516,0.0
542,0.0
592,4807858.16290522
632,32936896.01318504
686,1.0
687,1.0
688,2.0
2,21, 1,21, 0, 1,30.00,40.00,Monday
250,-0.5948435179438955
251,38005439.76113385
336,0.0
385,20.43313134654121
386,25.5983047443504
387,-0.9715204866090247
388,0.0
425,0.0
450,0.0
451,0.0
452,-1.9611154110973483
453,0.0
490,0.0
515,0.0
516,0.0
542,0.0
592,4791913.445623511
632,32954566.987643816
686,1.0
687,1.0
688,2.0
2,21, 1,21, 0, 1,40.00,50.00,Monday
250,-0.5949749471807959
251,38007160.43813735
336,0.0
385,20.43313134654121
386,25.5983047443504
387,-0.9841543205153559
388,0.0
425,0.0
450,0.0
451,0.0
452,-1.9883017363641002
453,0.0
490,0.0
515,0.0
516,0.0
542,0.0
592,4775967.524030241
632,32972230.72622036
686,1.0
687,1.0
688,2.0
2,21, 1,21, 0, 1,50.00,60.00,Monday
250,-0.595106913172696
251,38008881.918373585
336,0.0
385,20.43313134654121
386,25.5983047443504
387,-0.9985703523894924
388,0.0
425,0.0
450,0.0
451,0.0
452,-2.0282826458746257
453,0.0
490,0.0
515,0.0
516,0.0
542,0.0
592,4760020.397988959
632,32989899.04043269
686,1.0
687,1.0
688,2.0
2,21, 1,21, 0, 2, 0.00,10.00,Monday
250,-0.5952308177774998
251,38010599.126669586
336,0.0
385,20.43313134654121
386,25.5983047443504
387,-1.0140885598373788
388,0.0
425,0.0
450,0.0
451,0.0
452,-2.0750170034077833
453,0.0
490,0.0
515,0.0
516,0.0
542,0.0
592,4760020.397988958
632,32991620.58613704
686,1.0
687,1.0
688,2.0
2,21, 1,21, 0, 2,10.00,20.00,Monday
250,-0.5953733465025525
251,38010709.51145709
336,0.0
385,20.43313134654121
386,25.5983047443504
387,-1.0297687653428726
388,0.0
425,0.0
450,0.0
451,0.0
452,-2.117724692363671
453,0.0
490,0.0
515,0.0
516,0.0
542,0.0
592,4760020.397988958
632,32991720.94306919
686,1.0
687,1.0
688,2.0
2,21, 1,21, 0, 2,20.00,30.00,Monday
250,-0.5955154612107023
251,38010772.819690295
336,0.0
385,20.43313134654121
386,25.5983047443504
387,-1.0450586642762782
388,0.0
425,0.0
450,0.0
451,0.0
452,-2.149178279111055
453,0.0
490,0.0
515,0.0
516,0.0
542,0.0
592,4760020.397988958
632,32991784.47424835
686,1.0
687,1.0
688,2.0
2,21, 1,21, 0, 2,30.00,40.00,Monday
250,-0.5956546451235872
251,38010851.058945924
336,0.0
385,20.43313134654121
386,25.5983047443504
387,-1.0596371312943562
388,0.0
425,0.0
450,0.0
451,0.0
452,-2.16855736082404
453,0.0
490,0.0
515,0.0
516,0.0
542,0.0
592,4760020.397988958
632,32991864.291526802
686,1.0
687,1.0
688,2.0
2,21, 1,21, 0, 2,40.00,50.00,Monday
250,-0.5957918118766488
251,38010925.23788336
336,0.0
385,20.43313134654121
386,25.5983047443504
387,-1.0733635039450606
388,0.0
425,0.0
450,0.0
451,0.0
452,-2.178699060212543
453,0.0
490,0.0
515,0.0
516,0.0
542,0.0
592,4760020.397988956
632,32991939.556563903
686,1.0
687,1.0
688,2.0
2,21, 1,21, 0, 2,50.00,60.00,Monday
250,-0.5959265455261609
251,38010997.7230915
336,0.0
385,20.43313134654121
386,25.5983047443504
387,-1.0862000945495938
388,0.0
425,0.0
450,0.0
451,0.0
452,-2.1827509879247717
453,0.0
490,0.0
515,0.0
516,0.0
542,0.0
592,4760020.397988956
632,32992013.351829242
686,1.0
687,1.0
688,2.0
2,21, 1,21, 0, 3, 0.00,10.00,Monday
250,-0.5145369245148274
251,37967175.07420346
336,0.0
385,20.43313134654121
386,25.5983047443504
387,-1.0877624989689894
388,0.0
425,0.0
450,0.0
451,0.0
452,-2.1752871880963736
453,0.0
490,0.0
515,0.0
516,0.0
542,0.0
592,4762558.894114006
632,32989547.403200015
686,1.0
687,1.0
688,2.0
2,21, 1,21, 0, 3,10.00,20.00,Monday
250,-0.43136269390802123
251,37923922.72431161
336,0.0
385,20.43313134654121
386,25.5983047443504
387,-1.076747541451593
388,0.0
425,0.0
450,0.0
451,0.0
452,-2.150330469329767
453,0.0
490,0.0
515,0.0
516,0.0
542,0.0
592,4764988.4357309695
632,32944828.20809193
686,1.0
687,1.0
688,2.0
2,21, 1,21, 0, 3,20.00,30.00,Monday
250,-0.3489968988574247
251,37881156.45675563
336,0.0
385,20.43313134654121
386,25.5983047443504
387,-1.0575706671216925
388,0.0
425,0.0
450,0.0
451,0.0
452,-2.106428496654194
453,0.0
490,0.0
515,0.0
516,0.0
542,0.0
592,4767308.250738333
632,32899308.675931115
686,1.0
687,1.0
688,2.0
2,21, 1,21, 0, 3,30.00,40.00,Monday
250,-0.26643563633251444
251,37838276.02208024
336,0.0
385,20.43313134654121
386,25.5983047443504
387,-1.0340307831825633
388,0.0
425,0.0
450,0.0
451,0.0
452,-2.0467092571084993
453,0.0
490,0.0
515,0.0
516,0.0
542,0.0
592,4769517.689516207
632,32854325.90937488
686,1.0
687,1.0
688,2.0
2,21, 1,21, 0, 3,40.00,50.00,Monday
250,-0.18382629643558912
251,37795379.14523038
336,0.0
385,20.43313134654121
386,25.5983047443504
387,-1.0074414135961711
388,0.0
425,0.0
450,0.0
451,0.0
452,-1.9756555513103873
453,0.0
490,0.0
515,0.0
516,0.0
542,0.0
592,4771616.115684973
632,32809358.365049146
686,1.0
687,1.0
688,2.0
2,21, 1,21, 0, 3,50.00,60.00,Monday
250,-0.10118939447766558
251,37752474.463262916
336,0.0
385,20.43313134654121
386,25.5983047443504
387,-0.977608007594985
388,0.0
425,0.0
450,0.0
451,0.0
452,-1.8968870202865287
453,0.0
490,0.0
515,0.0
516,0.0
542,0.0
592,4773602.736238396
632,32764483.787735336
686,1.0
687,1.0
688,2.0
2,21, 1,21, 0, 4, 0.00,10.00,Monday
250,-0.10004562762239493
251,37753465.815320574
336,0.0
385,20.43313134654121
386,25.5983047443504
387,-0.9549101539791729
388,0.0
425,0.0
450,0.0
451,0.0
452,-1.820690045204737
453,0.0
490,0.0
515,0.0
516,0.0
542,0.0
592,4773428.98237163
632,32721761.397740778
686,1.0
687,1.0
688,2.0
2,21, 1,21, 0, 4,10.00,20.00,Monday
250,-0.10066592374986902
251,37753870.460499145
336,0.0
385,20.43313134654121
386,25.5983047443504
387,-0.9422576698549135
388,0.0
425,0.0
450,0.0
451,0.0
452,-1.756100965594993
453,0.0
490,0.0
515,0.0
516,0.0
542,0.0
592,4773255.169447958
632,32721389.79176395
686,1.0
687,1.0
688,2.0
2,21, 1,21, 0, 4,20.00,30.00,Monday
250,-0.10044070711934706
251,37753775.095767535
336,0.0
385,20.43313134654121
386,25.5983047443504
387,-0.9362345337452315
388,0.0
425,0.0
450,0.0
451,0.0
452,-1.70672703952607
453,0.0
490,0.0
515,0.0
516,0.0
542,0.0
592,4773081.29743726
632,32721923.663975127
686,1.0
687,1.0
688,2.0
2,21, 1,21, 0, 4,30.00,40.00,Monday
250,-0.10037992671379446
251,37753784.01577474
336,0.0
385,20.43313134654121
386,25.5983047443504
387,-0.9329970807248857
388,0.0
425,0.0
450,0.0
451,0.0
452,-1.670915095345397
453,0.0
490,0.0
515,0.0
516,0.0
542,0.0
592,4772907.366309401
632,32722017.955242936
686,1.0
687,1.0
688,2.0
2,21, 1,21, 0, 4,40.00,50.00,Monday
250,-0.10033873209923042
251,37753800.6725803
336,0.0
385,20.43313134654121
386,25.5983047443504
387,-0.9307426319139879
388,0.0
425,0.0
450,0.0
451,0.0
452,-1.6449970687334543
453,0.0
490,0.0
515,0.0
516,0.0
542,0.0
592,4772733.376034233
632,32722198.05407666
686,1.0
687,1.0
688,2.0
2,21, 1,21, 0, 4,50.00,60.00,Monday
250,-0.10029522542255248
251,37753815.731994525
336,0.0
385,20.43313134654121
386,25.5983047443504
387,-0.9292706558257524
388,0.0
425,0.0
450,0.0
451,0.0
452,-1.6259125266676033
453,0.0
490,0.0
515,0.0
516,0.0
542,0.0
592,4772559.326581575
632,32722388.408170156
686,1.0
687,1.0
688,2.0
2,21, 1,21, 0, 5, 0.00,10.00,Monday
250,-0.10025442169460423
251,37753832.31935834
336,0.0
385,20.43313134654121
386,25.5983047443504
387,-0.9286270091142994
388,0.0
425,0.0
450,0.0
451,0.0
452,-1.611044697922741
453,0.0
490,0.0
515,0.0
516,0.0
542,0.0
592,4759720.858689582
632,32735242.00772518
686,1.0
687,1.0
688,2.0
2,21, 1,21, 0, 5,10.00,20.00,Monday
250,-0.10019813462346241
251,37755099.02545686
336,0.0
385,20.43313134654121
386,25.5983047443504
387,-0.9286756372701853
388,0.0
425,0.0
450,0.0
451,0.0
452,-1.5980830334758305
453,0.0
490,0.0
515,0.0
516,0.0
542,0.0
592,4746877.262331868
632,32749360.650073368
686,1.0
687,1.0
688,2.0
2,21, 1,21, 0, 5,20.00,30.00,Monday
250,-0.10014136657564657
251,37756402.48892622
336,0.0
385,20.43313134654121
386,25.5983047443504
387,-0.9291890197839405
388,0.0
425,0.0
450,0.0
451,0.0
452,-1.5856256464279015
453,0.0
490,0.0
515,0.0
516,0.0
542,0.0
592,4734028.534436011
632,32763513.101566985
686,1.0
687,1.0
688,2.0
2,21, 1,21, 0, 5,30.00,40.00,Monday
250,-0.10008506584545022
251,37757693.88634175
336,0.0
385,20.43313134654121
386,25.5983047443504
387,-0.9299642534470571
388,0.0
425,0.0
450,0.0
451,0.0
452,-1.5732382261044864
453,0.0
490,0.0
515,0.0
516,0.0
542,0.0
592,4721174.671927155
632,32777658.110852532
686,1.0
687,1.0
688,2.0
2,21, 1,21, 0, 5,40.00,50.00,Monday
250,-0.10002865935215716
251,37758988.06580549
336,0.0
385,20.43313134654121
386,25.5983047443504
387,-0.930864992143855
388,0.0
425,0.0
450,0.0
451,0.0
452,-1.5609887573869168
453,0.0
490,0.0
515,0.0
516,0.0
542,0.0
592,4708315.671727969
632,32791811.34854798
686,1.0
687,1.0
688,2.0
2,21, 1,21, 0, 5,50.00,60.00,Monday
250,-0.09997202644334531
251,37760282.948062085
336,0.0
385,20.43313134654121
386,25.5983047443504
387,-0.9318116527446137
388,0.0
425,0.0
450,0.0
451,0.0
452,-1.549027911019856
453,0.0
490,0.0
515,0.0
516,0.0
542,0.0
592,4695451.530758676
632,32805970.49480209
686,1.0
687,1.0
688,2.0
2,21, 1,21, 0, 6, 0.00,10.00,Monday
250,-0.09991280304224513
251,37761576.91285127
336,0.0
385,20.43313134654121
386,25.5983047443504
387,-0.9328905639921073
388,0.0
425,0.0
450,0.0
451,0.0
452,-1.538050479662184
453,0.0
490,0.0
515,0.0
516,0.0
542,0.0
592,4695264.082255858
632,32807453.304617383
686,1.0
687,1.0
688,2.0
2,21, 1,21, 0, 6,10.00,20.00,Monday
250,-0.0998696381546036
251,37761619.889660545
336,0.0
385,20.43313134654121
386,25.5983047443504
387,-0.9341854569335554
388,0.0
425,0.0
450,0.0
451,0.0
452,-1.528868989367738
453,0.0
490,0.0
515,0.0
516,0.0
542,0.0
592,4695076.569900009
632,32807675.143387552
686,1.0
687,1.0
688,2.0
2,21, 1,21, 0, 6,20.00,30.00,Monday
250,-0.09982704883109227
251,37761626.639053755
336,0.0
385,20.43313134654121
386,25.5983047443504
387,-0.9356912743188933
388,0.0
425,0.0
450,0.0
451,0.0
452,-1.5218128540070783
453,0.0
490,0.0
515,0.0
516,0.0
542,0.0
592,4694888.993658494
632,32807869.15899361
686,1.0
687,1.0
688,2.0
2,21, 1,21, 0, 6,30.00,40.00,Monday
250,-0.09978364389467197
251,37761645.822372444
336,0.0
385,20.43313134654121
386,25.5983047443504
387,-0.9373664088648401
388,0.0
425,0.0
450,0.0
451,0.0
452,-1.516675664924148
453,0.0
490,0.0
515,0.0
516,0.0
542,0.0
592,4694701.35349866
632,32808076.421855778
686,1.0
687,1.0
688,2.0
2,21, 1,21, 0, 6,40.00,50.00,Monday
250,-0.09973973985331978
251,37761662.434266
336,0.0
385,20.43313134654121
386,25.5983047443504
387,-0.939179072597213
388,0.0
425,0.0
450,0.0
451,0.0
452,-1.513006928252013
453,0.0
490,0.0
515,0.0
516,0.0
542,0.0
592,4694513.649387832
632,32808281.006745324
686,1.0
687,1.0
688,2.0
2,21, 1,21, 0, 6,50.00,60.00,Monday
250,-0.09969525639798434
251,37761678.448525205
336,0.0
385,20.43313134654121
386,25.5983047443504
387,-0.9411121449573141
388,0.0
425,0.0
450,0.0
451,0.0
452,-1.5103859062051659
453,0.0
490,0.0
515,0.0
516,0.0
542,0.0
592,4694325.881293308
632,32808485.10124591
686,1.0
687,1.0
688,2.0
2,21, 1,21, 0, 7, 0.00,10.00,Monday
250,-0.1008373082513517
251,37762333.694688655
336,0.0
385,20.43313134654121
386,25.5983047443504
387,-0.9455905339296562
388,0.0
425,0.0
450,0.0
451,0.0
452,-1.513678952595961
453,0.0
490,0.0
515,0.0
516,0.0
542,0.0
592,4723573.583255435
632,32779253.475614063
686,1.0
687,1.0
688,2.0
2,21, 1,21, 0, 7,10.00,20.00,Monday
250,-0.10080831375569275
251,37759453.689292185
336,0.0
385,20.43313134654121
386,25.5983047443504
387,-0.9547896079358783
388,0.0
425,0.0
450,0.0
451,0.0
452,-1.532355963970771
453,0.0
490,0.0
515,0.0
516,0.0
542,0.0
592,4752837.186047653
632,32747740.69241479
686,1.0
687,1.0
688,2.0
2,21, 1,21, 0, 7,20.00,30.00,Monday
250,-0.10073336732977836
251,37756463.14722296
336,0.0
385,20.43313134654121
386,25.5983047443504
387,-0.9689495920475448
388,0.0
425,0.0
450,0.0
451,0.0
452,-1.5717907534146358
453,0.0
490,0.0
515,0.0
516,0.0
542,0.0
592,4782116.702651945
632,32715495.382367127
686,1.0
687,1.0
688,2.0
2,21, 1,21, 0, 7,30.00,40.00,Monday
250,-0.10067064829927598
251,37753507.245266296
336,0.0
385,20.43313134654121
386,25.5983047443504
387,-0.9871141344109903
388,0.0
425,0.0
450,0.0
451,0.0
452,-1.6296095281712137
453,0.0
490,0.0
515,0.0
516,0.0
542,0.0
592,4811412.146064443
632,32683237.448672067
686,1.0
687,1.0
688,2.0
2,21, 1,21, 0, 7,40.00,50.00,Monday
250,-0.10060449317584513
251,37750542.57402477
336,0.0
385,20.43313134654121
386,25.5983047443504
387,-1.0082033671690995
388,0.0
425,0.0
450,0.0
451,0.0
452,-1.6995576221488922
453,0.0
490,0.0
515,0.0
516,0.0
542,0.0
592,4840723.5292954575
632,32650963.241981957
686,1.0
687,1.0
688,2.0
2,21, 1,21, 0, 7,50.00,60.00,Monday
250,-0.10053695143678842
251,37747574.88423344
336,0.0
385,20.43313134654121
386,25.5983047443504
387,-1.0314694914846194
388,0.0
425,0.0
450,0.0
451,0.0
452,-1.775937645916702
453,0.0
490,0.0
515,0.0
516,0.0
542,0.0
592,4870050.865369484
632,32618668.960011844
686,1.0
687,1.0
688,2.0
2,21, 1,21, 0, 8, 0.00,10.00,Monday
250,0.0999667234687978
251,37636683.72278763
336,0.0
385,20.43313134654121
386,25.5983047443504
387,-1.0275569399608058
388,0.0
425,0.0
450,0.0
451,0.0
452,-1.8349010191657236
453,0.0
490,0.0
515,0.0
516,0.0
542,0.0
592,4889730.300311493
632,32596020.36021656
686,1.0
687,1.0
688,2.0
2,21, 1,21, 0, 8,10.00,20.00,Monday
250,0.30066299295575694
251,37530879.8094841
336,0.0
385,20.43313134654121
386,25.5983047443504
387,-0.9859321431684408
388,0.0
425,0.0
450,0.0
451,0.0
452,-1.826114100573525
453,0.0
490,0.0
515,0.0
516,0.0
542,0.0
592,4909380.719869504
632,32470676.229436662
686,1.0
687,1.0
688,2.0
2,21, 1,21, 0, 8,20.00,30.00,Monday
250,0.4988339706914022
251,37426584.97220832
336,0.0
385,20.43313134654121
386,25.5983047443504
387,-0.9148765832573944
388,0.0
425,0.0
450,0.0
451,0.0
452,-1.7187851216467707
453,0.0
490,0.0
515,0.0
516,0.0
542,0.0
592,4929009.6156952735
632,32345399.58986477
686,1.0
687,1.0
688,2.0
2,21, 1,21, 0, 8,30.00,40.00,Monday
250,0.697740000399977
251,37321840.52717601
336,0.0
385,20.43313134654121
386,25.5983047443504
387,-0.824483426871547
388,0.0
425,0.0
450,0.0
451,0.0
452,-1.5233626108505165
453,0.0
490,0.0
515,0.0
516,0.0
542,0.0
592,4952863.646772657
632,32217203.73514216
686,1.0
687,1.0
688,2.0
2,21, 1,21, 0, 8,40.00,50.00,Monday
250,0.8967385185818123
251,37216647.375593565
336,0.0
385,20.43313134654121
386,25.5983047443504
387,-0.7227572657169896
388,0.0
425,0.0
450,0.0
451,0.0
452,-1.2476068936663285
453,0.0
490,0.0
515,0.0
516,0.0
542,0.0
592,4977062.298687914
632,32087867.427410208
686,1.0
687,1.0
688,2.0
2,21, 1,21, 0, 8,50.00,60.00,Monday
250,1.0966275682721613
251,37111895.979652554
336,0.0
385,20.43313134654121
386,25.5983047443504
387,-0.6268065454592004
388,0.0
425,0.0
450,0.0
451,0.0
452,-0.9344503557456388
453,0.0
490,0.0
515,0.0
516,0.0
542,0.0
592,5001395.306277513
632,31906366.17312955
686,1.0
687,1.0
688,2.0
2,21, 1,21, 0, 9, 0.00,10.00,Monday
250,1.361820858284132
251,36973003.5445071
336,0.0
385,20.43313134654121
386,25.5983047443504
387,-0.48834621506464204
388,0.0
425,0.0
450,0.0
451,0.0
452,-0.4548943382084395
453,0.0
490,0.0
515,0.0
516,0.0
542,0.0
592,5029363.153609448
632,31756286.600206874
686,1.0
687,1.0
688,2.0
2,21, 1,21, 0, 9,10.00,20.00,Monday
250,1.626875075426967
251,36833250.31427711
336,0.0
385,20.43313134654121
386,25.5983047443504
387,-0.337485247467481
388,0.0
425,0.0
450,0.0
451,0.0
452,0.06934154526047726
453,0.0
490,0.0
515,0.0
516,0.0
542,0.0
592,5057356.862312016
632,31588498.088569343
686,1.0
687,1.0
688,2.0
2,21, 1,21, 0, 9,20.00,30.00,Monday
250,1.892092700329822
251,36693402.86640191
336,0.0
385,20.43313134654121
386,25.5983047443504
387,-0.17758148878148328
388,0.0
425,0.0
450,0.0
451,0.0
452,0.6340239987696141
453,0.0
490,0.0
515,0.0
516,0.0
542,0.0
592,5085392.284952975
632,31420659.524811383
686,1.0
687,1.0
688,2.0
2,21, 1,21, 0, 9,30.00,40.00,Monday
250,2.157232620545999
251,36553595.65006325
336,0.0
385,20.43313134654121
386,25.5983047443504
387,-0.007865101489287197
388,0.0
425,0.0
450,0.0
451,0.0
452,1.2286485115067967
453,0.0
490,0.0
515,0.0
516,0.0
542,0.0
592,5113485.892141593
632,31252739.092291966
686,1.0
687,1.0
688,2.0
2,21, 1,21, 0, 9,40.00,50.00,Monday
250,2.4227277221241716
251,36412623.90370924
336,0.0
385,20.433131346541224
386,25.59830474435042
387,0.1372645036048778
388,0.0
425,0.0
450,0.0
451,0.0
452,1.7304592986839742
453,0.0
490,0.0
515,0.0
516,0.0
542,0.0
592,5141654.529350725
632,31059818.461886525
686,1.0000000000000009
687,1.0000000000000009
688,2.0000000000000018
2,21, 1,21, 0, 9,50.00,60.00,Monday
250,2.6883436379759464
251,36272018.45399636
336,0.0
385,20.43313134654121
386,25.5983047443504
387,0.28940133537785684
388,0.0
425,0.0
450,0.0
451,0.0
452,2.271054343450258
453,0.0
490,0.0
515,0.0
516,0.0
542,0.0
592,5169915.672059793
632,30916006.56869573
686,1.0
687,1.0
688,2.0
2,21, 1,21, 0,10, 0.00,10.00,Monday
250,3.1496554237371726
251,36027264.32686606
336,0.0
385,20.43313134654121
386,25.5983047443504
387,0.4798524938725298
388,0.0
425,0.0
450,0.0
451,0.0
452,2.8304711035219023
453,0.0
490,0.0
515,0.0
516,0.0
542,0.0
592,5241404.10703412
632,30609987.33101514
686,1.0
687,1.0
688,2.0
2,21, 1,21, 0,10,10.00,20.00,Monday
250,3.6122628162268535
251,35782418.81121139
336,0.0
385,20.43313134654121
386,25.5983047443504
387,0.7708977216422019
388,0.0
425,0.0
450,0.0
451,0.0
452,3.5853723202516976
453,0.0
490,0.0
515,0.0
516,0.0
542,0.0
592,5315291.857316207
632,30290484.407306187
686,1.0
687,1.0
688,2.0
2,21, 1,21, 0,10,20.00,30.00,Monday
250,4.0753140037403455
251,35536074.7885506
336,0.0
385,20.433131346541202
386,25.598304744350393
387,1.051297671128828
388,0.0
425,0.0
450,0.0
451,0.0
452,4.274446776382681
453,0.0
490,0.0
515,0.0
516,0.0
542,0.0
592,5391793.298050372
632,29967761.382894818
686,0.9999999999999996
687,0.9999999999999996
688,1.9999999999999991
2,21, 1,21, 0,10,30.00,40.00,Monday
250,4.538624258829582
251,35289458.044549584
336,0.0
385,20.433131346541217
386,25.59830474435041
387,1.3330734554211872
388,0.0
425,0.0
450,0.0
451,0.0
452,4.976136655160106
453,0.0
490,0.0
515,0.0
516,0.0
542,0.0
592,5471132.199313744
632,29641896.611463845
686,1.0000000000000004
687,1.0000000000000004
688,2.000000000000001
2,21, 1,21, 0,10,40.00,50.00,Monday
250,5.002250182994036
251,35042530.87757373
336,0.0
385,20.433131346541224
386,25.59830474435042
387,1.6232190488064067
388,0.0
425,0.0
450,0.0
451,0.0
452,5.74017867494958
453,0.0
490,0.0
515,0.0
516,0.0
542,0.0
592,5553542.375759332
632,29312662.63758508
686,1.0000000000000009
687,1.0000000000000009
688,2.0000000000000018
2,21, 1,21, 0,10,50.00,60.00,Monday
250,5.465903071875406
251,34795442.165558815
336,0.0
385,20.433131346541224
386,25.59830474435042
387,1.9234497844609058
388,0.0
425,0.0
450,0.0
451,0.0
452,6.569276197834741
453,0.0
490,0.0
515,0.0
516,0.0
542,0.0
592,5639267.778995938
632,28979902.170174334
686,1.0000000000000009
687,1.0000000000000009
688,2.0000000000000018
2,21, 1,21, 0,11, 0.00,10.00,Monday
250,5.749462438880283
251,34644551.03647681
336,0.0
385,20.43313134654121
386,25.5983047443504
387,2.209964934853231
388,0.0
425,0.0
450,0.0
451,0.0
452,7.424510353050103
453,0.0
490,0.0
515,0.0
516,0.0
542,0.0
592,5689519.861596227
632,28746605.243782714
686,1.0
687,1.0
688,2.0
2,21, 1,21, 0,11,10.00,20.00,Monday
250,6.031991721989611
251,34494150.96415434
336,0.0
385,20.43313134654121
386,25.5983047443504
387,2.479737786452519
388,0.0
425,0.0
450,0.0
451,0.0
452,8.275054306251356
453,0.0
490,0.0
515,0.0
516,0.0
542,0.0
592,5740969.350869595
632,28544580.114080332
686,1.0
687,1.0
688,2.0
2,21, 1,21, 0,11,20.00,30.00,Monday
250,6.3145891159504615
251,34343665.90244971
336,0.0
385,20.433131346541202
386,25.598304744350393
387,2.7518987438957945
388,0.0
425,0.0
450,0.0
451,0.0
452,9.121685595932053
453,0.0
490,0.0
515,0.0
516,0.0
542,0.0
592,5793671.0952822175
632,28341421.838099472
686,0.9999999999999996
687,0.9999999999999996
688,1.9999999999999991
2,21, 1,21, 0,11,30.00,40.00,Monday
250,6.596799549210248
251,34193336.495388135
336,0.0
385,20.433131346541217
386,25.59830474435041
387,3.0292333002766547
388,0.0
425,0.0
450,0.0
451,0.0
452,9.943615065076571
453,0.0
490,0.0
515,0.0
516,0.0
542,0.0
592,5847681.427966583
632,28137029.81100211
686,1.0000000000000004
687,1.0000000000000004
688,2.000000000000001
2,21, 1,21, 0,11,40.00,50.00,Monday
250,6.87884065234142
251,34043044.59465682
336,0.0
385,20.433131346541224
386,25.59830474435042
387,3.3083398617481654
388,0.0
425,0.0
450,0.0
451,0.0
452,10.689161342520096
453,0.0
490,0.0
515,0.0
516,0.0
542,0.0
592,5903058.082199926
632,27931348.61696192
686,1.0000000000000009
687,1.0000000000000009
688,2.0000000000000018
2,21, 1,21, 0,11,50.00,60.00,Monday
250,7.160652983739235
251,33892820.79559457
336,0.0
385,20.433131346541224
386,25.59830474435042
387,3.58536558579248
388,0.0
425,0.0
450,0.0
451,0.0
452,11.324896084487232
453,0.0
490,0.0
515,0.0
516,0.0
542,0.0
592,5959860.237244541
632,27724299.804917153
686,1.0000000000000009
687,1.0000000000000009
688,2.0000000000000018
2,21, 1,21, 0,12, 0.00,10.00,Monday
250,7.427279693013145
251,33750704.577435166
336,0.0
385,20.43313134654121
386,25.5983047443504
387,3.8253586725593323
388,0.0
425,0.0
450,0.0
451,0.0
452,11.824048890009042
453,0.0
490,0.0
515,0.0
516,0.0
542,0.0
592,5991096.197635708
632,27573840.920604758
686,1.0
687,1.0
688,2.0
2,21, 1,21, 0,12,10.00,20.00,Monday
250,7.691677446004545
251,33613262.420039326
336,0.0
385,20.43313134654121
386,25.5983047443504
387,4.1177457288738095
388,0.0
425,0.0
450,0.0
451,0.0
452,12.388040552807166
453,0.0
490,0.0
515,0.0
516,0.0
542,0.0
592,7572016.881221028
632,25853566.12523298
686,1.0
687,1.0
688,2.0
2,21, 1,21, 0,12,20.00,30.00,Monday
250,7.957213398132743
251,33473501.6489922
336,0.0
385,20.43313134654121
386,25.5983047443504
387,4.386863491315501
388,0.0
425,0.0
450,0.0
451,0.0
452,12.903395004369937
453,0.0
490,0.0
515,0.0
516,0.0
542,0.0
592,7609409.155487608
632,25676700.687598243
686,1.0
687,1.0
688,2.0
2,21, 1,21, 0,12,30.00,40.00,Monday
250,8.222589795585996
251,33333828.858695373
336,0.0
385,20.43313134654121
386,25.5983047443504
387,4.645675376031264
388,0.0
425,0.0
450,0.0
451,0.0
452,13.39494536305667
453,0.0
490,0.0
515,0.0
516,0.0
542,0.0
592,7646583.592010483
632,25499810.365791358
686,1.0
687,1.0
688,2.0
2,21, 1,21, 0,12,40.00,50.00,Monday
250,8.487914641225375
251,33194183.511599712
336,0.0
385,20.43313134654121
386,25.5983047443504
387,4.900100946548683
388,0.0
425,0.0
450,0.0
451,0.0
452,13.836800907364639
453,0.0
490,0.0
515,0.0
516,0.0
542,0.0
592,7683540.190789656
632,25323194.590037078
686,1.0
687,1.0
688,2.0
2,21, 1,21, 0,12,50.00,60.00,Monday
250,8.753222749294736
251,33054546.40012584
336,0.0
385,20.43313134654121
386,25.5983047443504
387,5.149047414387578
388,0.0
425,0.0
450,0.0
451,0.0
452,14.204614499559842
453,0.0
490,0.0
515,0.0
516,0.0
542,0.0
592,7720278.951825123
632,25146814.706958868
686,1.0
687,1.0
688,2.0
2,21, 1,21, 0,13, 0.00,10.00,Monday
250,8.935934957477366
251,32956080.242274802
336,0.0
385,20.43313134654121
386,25.5983047443504
387,5.381433523867035
388,0.0
425,0.0
450,0.0
451,0.0
452,14.495880136142578
453,0.0
490,0.0
515,0.0
516,0.0
542,0.0
592,7745410.487127082
632,25047158.921036266
686,1.0
687,1.0
688,2.0
2,21, 1,21, 0,13,10.00,20.00,Monday
250,9.11799800317964
251,32861824.034406226
336,0.0
385,20.43313134654121
386,25.5983047443504
387,5.600217614701342
388,0.0
425,0.0
450,0.0
451,0.0
452,14.725126371391552
453,0.0
490,0.0
515,0.0
516,0.0
542,0.0
592,7770439.060057994
632,24930764.357754186
686,1.0
687,1.0
688,2.0
2,21, 1,21, 0,13,20.00,30.00,Monday
250,9.300928268642064
251,32767252.493628927
336,0.0
385,20.43313134654121
386,25.5983047443504
387,5.805115544772837
388,0.0
425,0.0
450,0.0
451,0.0
452,14.908291472752854
453,0.0
490,0.0
515,0.0
516,0.0
542,0.0
592,7795364.6706178645
632,24811747.85844328
686,1.0
687,1.0
688,2.0
2,21, 1,21, 0,13,30.00,40.00,Monday
250,9.483624933674422
251,32672835.277338795
336,0.0
385,20.43313134654121
386,25.5983047443504
387,6.000146943062912
388,0.0
425,0.0
450,0.0
451,0.0
452,15.057164774108053
453,0.0
490,0.0
515,0.0
516,0.0
542,0.0
592,7820187.318806683
632,24692394.593390282
686,1.0
687,1.0
688,2.0
2,21, 1,21, 0,13,40.00,50.00,Monday
250,9.666250465721305
251,32578490.07776528
336,0.0
385,20.43313134654121
386,25.5983047443504
387,6.189061395441656
388,0.0
425,0.0
450,0.0
451,0.0
452,15.176471713222558
453,0.0
490,0.0
515,0.0
516,0.0
542,0.0
592,7844907.00462445
632,24573304.1811623
686,1.0
687,1.0
688,2.0
2,21, 1,21, 0,13,50.00,60.00,Monday
250,9.84889805592563
251,32484166.070559107
336,0.0
385,20.43313134654121
386,25.5983047443504
387,6.373159148728995
388,0.0
425,0.0
450,0.0
451,0.0
452,15.269852484653569
453,0.0
490,0.0
515,0.0
516,0.0
542,0.0
592,7869523.728071173
632,24454388.419478767
686,1.0
687,1.0
688,2.0
2,21, 1,21, 0,14, 0.00,10.00,Monday
250,10.048751365160596
251,32380582.142997894
336,0.0
385,20.43313134654121
386,25.5983047443504
387,6.555278243699491
388,0.0
425,0.0
450,0.0
451,0.0
452,15.325915053085897
453,0.0
490,0.0
515,0.0
516,0.0
542,0.0
592,7896260.907308882
632,24333373.6221939
686,1.0
687,1.0
688,2.0
2,21, 1,21, 0,14,10.00,20.00,Monday
250,10.247971851646824
251,32276949.59800757
336,0.0
385,20.43313134654121
386,25.5983047443504
387,6.735550421606662
388,0.0
425,0.0
450,0.0
451,0.0
452,15.326348005114808
453,0.0
490,0.0
515,0.0
516,0.0
542,0.0
592,7922875.552815756
632,24202797.86919795
686,1.0
687,1.0
688,2.0
2,21, 1,21, 0,14,20.00,30.00,Monday
250,10.446984631145167
251,32173436.32832173
336,0.0
385,20.43313134654121
386,25.5983047443504
387,6.911819152379314
388,0.0
425,0.0
450,0.0
451,0.0
452,15.270690220064404
453,0.0
490,0.0
515,0.0
516,0.0
542,0.0
592,7949367.664591794
632,24072693.621189576
686,1.0
687,1.0
688,2.0
2,21, 1,21, 0,14,30.00,40.00,Monday
250,10.645866979188972
251,32070019.960672893
336,0.0
385,20.43313134654121
386,25.5983047443504
387,7.07813398694354
388,0.0
425,0.0
450,0.0
451,0.0
452,15.148418979727312
453,0.0
490,0.0
515,0.0
516,0.0
542,0.0
592,7975737.242637001
632,23942850.71220346
686,1.0
687,1.0
688,2.0
2,21, 1,21, 0,14,40.00,50.00,Monday
250,10.844631893134279
251,31966688.69550323
336,0.0
385,20.43313134654121
386,25.5983047443504
387,7.230801488758616
388,0.0
425,0.0
450,0.0
451,0.0
452,14.939813652167947
453,0.0
490,0.0
515,0.0
516,0.0
542,0.0
592,8001984.286951372
632,23813222.60874311
686,1.0
687,1.0
688,2.0
2,21, 1,21, 0,14,50.00,60.00,Monday
250,11.043318031948868
251,31863422.32063523
336,0.0
385,20.43313134654121
386,25.5983047443504
387,7.370111456868559
388,0.0
425,0.0
450,0.0
451,0.0
452,14.647915708896146
453,0.0
490,0.0
515,0.0
516,0.0
542,0.0
592,8028108.797534915
632,23683802.973828305
686,1.0
687,1.0
688,2.0
2,21, 1,21, 0,15, 0.00,10.00,Monday
250,11.308297656382965
251,31725081.768194985
336,0.0
385,20.43313134654121
386,25.5983047443504
387,7.491067692888409
388,0.0
425,0.0
450,0.0
451,0.0
452,14.352537661142364
453,0.0
490,0.0
515,0.0
516,0.0
542,0.0
592,8062750.870287225
632,23476358.761640392