Program Version,EnergyPlus, Version 24.2.0-94a887817b, YMD=2025.02.04 15:37
1,5,Environment Title[],Latitude[deg],Longitude[deg],Time Zone[],Elevation[m]
2,8,Day of Simulation[],Month[],Day of Month[],DST Indicator[1=yes 0=no],Hour[],StartMinute[],EndMinute[],DayType
3,5,Cumulative Day of Simulation[],Month[],Day of Month[],DST Indicator[1=yes 0=no],DayType  ! When Daily Report Variables Requested
4,2,Cumulative Days of Simulation[],Month[]  ! When Monthly Report Variables Requested
5,1,Cumulative Days of Simulation[] ! When Run Period Report Variables Requested
6,1,Calendar Year of Simulation[] ! When Annual Report Variables Requested
250,1,LIVING ZONE,Zone Air Temperature [C] !TimeStep,REPORTSCH
251,1,LIVING ZONE,Zone Air System Sensible Heating Energy [J] !TimeStep,REPORTSCH
336,1,LIVING ZONE,Zone Air System Sensible Cooling Energy [J] !TimeStep,REPORTSCH
385,1,LIVING ZONE,Zone Thermostat Heating Setpoint Temperature [C] !TimeStep,REPORTSCH
386,1,LIVING ZONE,Zone Thermostat Cooling Setpoint Temperature [C] !TimeStep,REPORTSCH
387,1,GARAGE ZONE,Zone Air Temperature [C] !TimeStep,REPORTSCH
388,1,GARAGE ZONE,Zone Air System Sensible Heating Energy [J] !TimeStep,REPORTSCH
425,1,GARAGE ZONE,Zone Air System Sensible Cooling Energy [J] !TimeStep,REPORTSCH
450,1,GARAGE ZONE,Zone Thermostat Heating Setpoint Temperature [C] !TimeStep,REPORTSCH
451,1,GARAGE ZONE,Zone Thermostat Cooling Setpoint Temperature [C] !TimeStep,REPORTSCH
452,1,ATTIC ZONE,Zone Air Temperature [C] !TimeStep,REPORTSCH
453,1,ATTIC ZONE,Zone Air System Sensible Heating Energy [J] !TimeStep,REPORTSCH
490,1,ATTIC ZONE,Zone Air System Sensible Cooling Energy [J] !TimeStep,REPORTSCH
515,1,ATTIC ZONE,Zone Thermostat Heating Setpoint Temperature [C] !TimeStep,REPORTSCH
516,1,ATTIC ZONE,Zone Thermostat Cooling Setpoint Temperature [C] !TimeStep,REPORTSCH
542,1,ACDXCOIL 1,Cooling Coil Total Cooling Energy [J] !TimeStep,REPORTSCH
592,1,HEAT PUMP DX HEATING COIL 1,Heating Coil Heating Energy [J] !TimeStep,REPORTSCH
632,1,SUPP HEATING COIL 1,Heating Coil Heating Energy [J] !TimeStep,REPORTSCH
686,1,TWOSPEED HEAT PUMP 1,Unitary System DX Coil Cycling Ratio [] !TimeStep,REPORTSCH
687,1,TWOSPEED HEAT PUMP 1,Unitary System DX Coil Speed Ratio [] !TimeStep,REPORTSCH
688,1,TWOSPEED HEAT PUMP 1,Unitary System DX Coil Speed Level [] !TimeStep,REPORTSCH
End of Data Dictionary
1,RUN PERIOD 1,  41.98, -87.92,  -6.00, 201.00
2,21, 1,21, 0, 1, 0.00,10.00,Monday
250,-0.8584530430478793
251,38098161.468995266
336,0.0
385,21.485516219979722
386,28.52735128584105
387,-0.9481761231260528
388,0.0
425,0.0
450,0.0
451,0.0
452,-1.975603771410924
453,0.0
490,0.0
515,0.0
516,0.0
542,0.0
592,4839743.985079641
632,33000000.0
686,1.0
687,1.0
688,2.0
2,21, 1,21, 0, 1,10.00,20.00,Monday
250,-0.8585926379872442
251,38082768.25040369
336,0.0
385,21.485516219979722
386,28.52735128584105
387,-0.9565351784783712
388,0.0
425,0.0
450,0.0
451,0.0
452,-1.957455541618488
453,0.0
490,0.0
515,0.0
516,0.0
542,0.0
592,4823801.676011796
632,33000000.0
686,1.0
687,1.0
688,2.0
2,21, 1,21, 0, 1,20.00,30.00,Monday
250,-0.8587665134990016
251,38066843.19506728
336,0.0
385,21.485516219979722
386,28.52735128584105
387,-0.9661303086431394
388,0.0
425,0.0
450,0.0
451,0.0
452,-1.9543776306971397
453,0.0
490,0.0
515,0.0
516,0.0
542,0.0
592,4807858.162905219
632,33000000.0
686,1.0
687,1.0
688,2.0
2,21, 1,21, 0, 1,30.00,40.00,Monday
250,-0.85893677812526
251,38050896.53788853
336,0.0
385,21.485516219979722
386,28.52735128584105
387,-0.9771662268658804
388,0.0
425,0.0
450,0.0
451,0.0
452,-1.967253736205426
453,0.0
490,0.0
515,0.0
516,0.0
542,0.0
592,4791913.445623511
632,33000000.0
686,1.0
687,1.0
688,2.0
2,21, 1,21, 0, 1,40.00,50.00,Monday
250,-0.8591082929811898
251,38034951.2933783
336,0.0
385,21.485516219979722
386,28.52735128584105
387,-0.9898001904793439
388,0.0
425,0.0
450,0.0
451,0.0
452,-1.9944623545410964
453,0.0
490,0.0
515,0.0
516,0.0
542,0.0
592,4775967.524030239
632,33000000.0
686,1.0
687,1.0
688,2.0
2,21, 1,21, 0, 1,50.00,60.00,Monday
250,-0.8592803386852373
251,38019004.45715904
336,0.0
385,21.485516219979722
386,28.52735128584105
387,-1.004220961533249
388,0.0
425,0.0
450,0.0
451,0.0
452,-2.0344748664382135
453,0.0
490,0.0
515,0.0
516,0.0
542,0.0
592,4760020.397988958
632,33000000.0
686,1.0
687,1.0
688,2.0
2,21, 1,21, 0, 2, 0.00,10.00,Monday
250,-0.8593512170110694
251,38018949.98959904
336,0.0
385,21.485516219979722
386,28.52735128584105
387,-1.0197456360205825
388,0.0
425,0.0
450,0.0
451,0.0
452,-2.0812451371988843
453,0.0
490,0.0
515,0.0
516,0.0
542,0.0
592,4760020.397988958
632,33000000.0
686,1.0
687,1.0
688,2.0
2,21, 1,21, 0, 2,10.00,20.00,Monday
250,-0.859419838939938
251,38018948.77470222
336,0.0
385,21.485516219979722
386,28.52735128584105
387,-1.0354307657491881
388,0.0
425,0.0
450,0.0
451,0.0
452,-2.123981259549254
453,0.0
490,0.0
515,0.0
516,0.0
542,0.0
592,4760020.397988958
632,33000000.0
686,1.0
687,1.0
688,2.0
2,21, 1,21, 0, 2,20.00,30.00,Monday
250,-0.8594882333614488
251,38018948.65219893
336,0.0
385,21.485516219979722
386,28.52735128584105
387,-1.050722396292717
388,0.0
425,0.0
450,0.0
451,0.0
452,-2.155452991734713
453,0.0
490,0.0
515,0.0
516,0.0
542,0.0
592,4760020.397988958
632,33000000.0
686,1.0
687,1.0
688,2.0
2,21, 1,21, 0, 2,30.00,40.00,Monday
250,-0.859555316530261
251,38018947.94618225
336,0.0
385,21.485516219979722
386,28.52735128584105
387,-1.0652991164199928
388,0.0
425,0.0
450,0.0
451,0.0
452,-2.1748364606331347
453,0.0
490,0.0
515,0.0
516,0.0
542,0.0
592,4760020.397988959
632,33000000.0
686,1.0
687,1.0
688,2.0
2,21, 1,21, 0, 2,40.00,50.00,Monday
250,-0.8596213995708546
251,38018947.40768282
336,0.0
385,21.485516219979722
386,28.52735128584105
387,-1.0790205192770812
388,0.0
425,0.0
450,0.0
451,0.0
452,-2.184976943502698
453,0.0
490,0.0
515,0.0
516,0.0
542,0.0
592,4760020.397988958
632,33000000.0
686,1.0
687,1.0
688,2.0
2,21, 1,21, 0, 2,50.00,60.00,Monday
250,-0.8596863110003766
251,38018946.7768517
336,0.0
385,21.485516219979722
386,28.52735128584105
387,-1.0918492684091516
388,0.0
425,0.0
450,0.0
451,0.0
452,-2.1890232485969894
453,0.0
490,0.0
515,0.0
516,0.0
542,0.0
592,4760020.397988958
632,33000000.0
686,1.0
687,1.0
688,2.0
2,21, 1,21, 0, 3, 0.00,10.00,Monday
250,-0.7772750209567927
251,37977077.573289745
336,0.0
385,21.485516219979722
386,28.52735128584105
387,-1.0933954556844536
388,0.0
425,0.0
450,0.0
451,0.0
452,-2.1815422539023364
453,0.0
490,0.0
515,0.0
516,0.0
542,0.0
592,4762558.894114006
632,33000000.0
686,1.0
687,1.0
688,2.0
2,21, 1,21, 0, 3,10.00,20.00,Monday
250,-0.6937349408013757
251,37978897.504083
336,0.0
385,21.485516219979722
386,28.52735128584105
387,-1.0823447076562547
388,0.0
425,0.0
450,0.0
451,0.0
452,-2.156558104497814
453,0.0
490,0.0
515,0.0
516,0.0
542,0.0
592,4764988.43573097
632,33000000.0
686,1.0
687,1.0
688,2.0
2,21, 1,21, 0, 3,20.00,30.00,Monday
250,-0.6105923657254756
251,37981429.492148556
336,0.0
385,21.485516219979722
386,28.52735128584105
387,-1.063103801027349
388,0.0
425,0.0
450,0.0
451,0.0
452,-2.112623323121149
453,0.0
490,0.0
515,0.0
516,0.0
542,0.0
592,4767308.250738333
632,33000000.0
686,1.0
687,1.0
688,2.0
2,21, 1,21, 0, 3,30.00,40.00,Monday
250,-0.5273783296331789
251,37978804.84934551
336,0.0
385,21.485516219979722
386,28.52735128584105
387,-1.0394674172734626
388,0.0
425,0.0
450,0.0
451,0.0
452,-2.052871452732679
453,0.0
490,0.0
515,0.0
516,0.0
542,0.0
592,4769517.689516207
632,32995206.267425902
686,1.0
687,1.0
688,2.0
2,21, 1,21, 0, 3,40.00,50.00,Monday
250,-0.444394497573677
251,37935712.50305904
336,0.0
385,21.485516219979722
386,28.52735128584105
387,-1.0127394178955624
388,0.0
425,0.0
450,0.0
451,0.0
452,-1.9817874488625757
453,0.0
490,0.0
515,0.0
516,0.0
542,0.0
592,4771616.115684973
632,32949893.408719253
686,1.0
687,1.0
688,2.0
2,21, 1,21, 0, 3,50.00,60.00,Monday
250,-0.36140024536463156
251,37892621.33363522
336,0.0
385,21.485516219979722
386,28.52735128584105
387,-0.9826595727637425
388,0.0
425,0.0
450,0.0
451,0.0
452,-1.9029893803477627
453,0.0
490,0.0
515,0.0
516,0.0
542,0.0
592,4773602.736238396
632,32904823.120879482
686,1.0
687,1.0
688,2.0
2,21, 1,21, 0, 4, 0.00,10.00,Monday
250,-0.36084857552230304
251,37893937.61657723
336,0.0
385,21.485516219979722
386,28.52735128584105
387,-0.9599277861870535
388,0.0
425,0.0
450,0.0
451,0.0
452,-1.8267662477608748
453,0.0
490,0.0
515,0.0
516,0.0
542,0.0
592,4773428.98237163
632,32861914.31607291
686,1.0
687,1.0
688,2.0
2,21, 1,21, 0, 4,10.00,20.00,Monday
250,-0.36115306933063124
251,37894155.69428057
336,0.0
385,21.485516219979722
386,28.52735128584105
387,-0.947347610984414
388,0.0
425,0.0
450,0.0
451,0.0
452,-1.7621586782170051
453,0.0
490,0.0
515,0.0
516,0.0
542,0.0
592,4773255.1694479585
632,32861845.106114957
686,1.0
687,1.0
688,2.0
2,21, 1,21, 0, 4,20.00,30.00,Monday
250,-0.36103743404731203
251,37894125.77501914
336,0.0
385,21.485516219979722
386,28.52735128584105
387,-0.941379862416291
388,0.0
425,0.0
450,0.0
451,0.0
452,-1.7127705130832995
453,0.0
490,0.0
515,0.0
516,0.0
542,0.0
592,4773081.297437258
632,32862215.326346464
686,1.0
687,1.0
688,2.0
2,21, 1,21, 0, 4,30.00,40.00,Monday
250,-0.36101155668935137
251,37894152.189353675
336,0.0
385,21.485516219979722
386,28.52735128584105
387,-0.9381421637147234
388,0.0
425,0.0
450,0.0
451,0.0
452,-1.6769409993439153
453,0.0
490,0.0
515,0.0
516,0.0
542,0.0
592,4772907.3663094025
632,32862367.331176125
686,1.0
687,1.0
688,2.0
2,21, 1,21, 0, 4,40.00,50.00,Monday
250,-0.36099073651707797
251,37894179.72897512
336,0.0
385,21.485516219979722
386,28.52735128584105
387,-0.935851233682738
388,0.0
425,0.0
450,0.0
451,0.0
452,-1.6509990813009883
453,0.0
490,0.0
515,0.0
516,0.0
542,0.0
592,4772733.376034233
632,32862566.13744849
686,1.0
687,1.0
688,2.0
2,21, 1,21, 0, 4,50.00,60.00,Monday
250,-0.3609695778612932
251,37894207.00901588
336,0.0
385,21.485516219979722
386,28.52735128584105
387,-0.934334608891844
388,0.0
425,0.0
450,0.0
451,0.0
452,-1.631887133152551
453,0.0
490,0.0
515,0.0
516,0.0
542,0.0
592,4772559.326581573
632,32862767.649249937
686,1.0
687,1.0
688,2.0
2,21, 1,21, 0, 5, 0.00,10.00,Monday
250,-0.3609497202538184
251,37894235.01955388
336,0.0
385,21.485516219979722
386,28.52735128584105
387,-0.9336513718751729
388,0.0
425,0.0
450,0.0
451,0.0
452,-1.6169899539012802
453,0.0
490,0.0
515,0.0
516,0.0
542,0.0
592,4759720.858689582
632,32875633.426987126
686,1.0
687,1.0
688,2.0
2,21, 1,21, 0, 5,10.00,20.00,Monday
250,-0.36092226856523124
251,37895535.77067894
336,0.0
385,21.485516219979722
386,28.52735128584105
387,-0.9336662188706958
388,0.0
425,0.0
450,0.0
451,0.0
452,-1.6039966051632253
453,0.0
490,0.0
515,0.0
516,0.0
542,0.0
592,4746877.262331866
632,32889781.864920765
686,1.0
687,1.0
688,2.0
2,21, 1,21, 0, 5,20.00,30.00,Monday
250,-0.3608947922647473
251,37896854.803675234
336,0.0
385,21.485516219979722
386,28.52735128584105
387,-0.9341489651482343
388,0.0
425,0.0
450,0.0
451,0.0
452,-1.5915056022800251
453,0.0
490,0.0
515,0.0
516,0.0
542,0.0
592,4734028.534436011
632,32903949.639589455
686,1.0
687,1.0
688,2.0
2,21, 1,21, 0, 5,30.00,40.00,Monday
250,-0.360867463520821
251,37898167.922108196
336,0.0
385,21.485516219979722
386,28.52735128584105
387,-0.9348953734100225
388,0.0
425,0.0
450,0.0
451,0.0
452,-1.5790841510118765
453,0.0
490,0.0
515,0.0
516,0.0
542,0.0
592,4721174.671927155
632,32918116.54157205
686,1.0
687,1.0
688,2.0
2,21, 1,21, 0, 5,40.00,50.00,Monday
250,-0.3608400920601734
251,37899482.86565804
336,0.0
385,21.485516219979722
386,28.52735128584105
387,-0.9357692976520333
388,0.0
425,0.0
450,0.0
451,0.0
452,-1.5668016058767402
453,0.0
490,0.0
515,0.0
516,0.0
542,0.0
592,4708315.671727969
632,32932290.508846667
686,1.0
687,1.0
688,2.0
2,21, 1,21, 0, 5,50.00,60.00,Monday
250,-0.3608126119634503
251,37900798.35377163
336,0.0
385,21.485516219979722
386,28.52735128584105
387,-0.936691649995598
388,0.0
425,0.0
450,0.0
451,0.0
452,-1.5548092016824258
453,0.0
490,0.0
515,0.0
516,0.0
542,0.0
592,4695451.530758675
632,32946470.196965348
686,1.0
687,1.0
688,2.0
2,21, 1,21, 0, 6, 0.00,10.00,Monday
250,-0.3607838929663071
251,37902113.69034895
336,0.0
385,21.485516219979722
386,28.52735128584105
387,-0.9377493179602945
388,0.0
425,0.0
450,0.0
451,0.0
452,-1.5438043052789574
453,0.0
490,0.0
515,0.0
516,0.0
542,0.0
592,4695264.082255858
632,32947973.64993906
686,1.0
687,1.0
688,2.0
2,21, 1,21, 0, 6,10.00,20.00,Monday
250,-0.3607630079755189
251,37902155.20505572
336,0.0
385,21.485516219979722
386,28.52735128584105
387,-0.9390256747497038
388,0.0
425,0.0
450,0.0
451,0.0
452,-1.5346012224872811
453,0.0
490,0.0
515,0.0
516,0.0
542,0.0
592,4695076.569900008
632,32948198.456976246
686,1.0
687,1.0
688,2.0
2,21, 1,21, 0, 6,20.00,30.00,Monday
250,-0.3607421757600541
251,37902178.965727285
336,0.0
385,21.485516219979722
386,28.52735128584105
387,-0.9405147351540283
388,0.0
425,0.0
450,0.0
451,0.0
452,-1.527524241985392
453,0.0
490,0.0
515,0.0
516,0.0
542,0.0
592,4694888.993658493
632,32948409.765470505
686,1.0
687,1.0
688,2.0
2,21, 1,21, 0, 6,30.00,40.00,Monday
250,-0.36072100215925945
251,37902209.087304495
336,0.0
385,21.485516219979722
386,28.52735128584105
387,-0.9421741928098577
388,0.0
425,0.0
450,0.0
451,0.0
452,-1.5223646004538964
453,0.0
490,0.0
515,0.0
516,0.0
542,0.0
592,4694701.353498662
632,32948627.711118724
686,1.0
687,1.0
688,2.0
2,21, 1,21, 0, 6,40.00,50.00,Monday
250,-0.36069952109386827
251,37902237.73589016
336,0.0
385,21.485516219979722
386,28.52735128584105
387,-0.9439719869358691
388,0.0
425,0.0
450,0.0
451,0.0
452,-1.5186736686491413
453,0.0
490,0.0
515,0.0
516,0.0
542,0.0
592,4694513.649387832
632,32948844.22945382
686,1.0
687,1.0
688,2.0
2,21, 1,21, 0, 6,50.00,60.00,Monday
250,-0.3606777675614157
251,37902266.17731798
336,0.0
385,21.485516219979722
386,28.52735128584105
387,-0.9458909191540875
388,0.0
425,0.0
450,0.0
451,0.0
452,-1.5160322777283837
453,0.0
490,0.0
515,0.0
516,0.0
542,0.0
592,4694325.881293308
632,32949060.585762434
686,1.0
687,1.0
688,2.0
2,21, 1,21, 0, 7, 0.00,10.00,Monday
250,-0.36122569756585343
251,37902601.52654861
336,0.0
385,21.485516219979722
386,28.52735128584105
387,-0.9503519138793641
388,0.0
425,0.0
450,0.0
451,0.0
452,-1.5193085702026696
453,0.0
490,0.0
515,0.0
516,0.0
542,0.0
592,4723573.583255435
632,32919841.352543764
686,1.0
687,1.0
688,2.0
2,21, 1,21, 0, 7,10.00,20.00,Monday
250,-0.3612053648481635
251,37899683.953788966
336,0.0
385,21.485516219979722
386,28.52735128584105
387,-0.9595277080334494
388,0.0
425,0.0
450,0.0
451,0.0
452,-1.5379778054858166
453,0.0
490,0.0
515,0.0
516,0.0
542,0.0
592,4752837.186047653
632,32887966.291278657
686,1.0
687,1.0
688,2.0
2,21, 1,21, 0, 7,20.00,30.00,Monday
250,-0.36117212727089737
251,37896716.840664834
336,0.0
385,21.485516219979722
386,28.52735128584105
387,-0.9736595152815913
388,0.0
425,0.0
450,0.0
451,0.0
452,-1.5774082885425236
453,0.0
490,0.0
515,0.0
516,0.0
542,0.0
592,4782116.702651945
632,32855726.61129011
686,1.0
687,1.0
688,2.0
2,21, 1,21, 0, 7,30.00,40.00,Monday
250,-0.36114146391168056
251,37893764.57531353
336,0.0
385,21.485516219979722
386,28.52735128584105
387,-0.9917931068597315
388,0.0
425,0.0
450,0.0
451,0.0
452,-1.6352123183456004
453,0.0
490,0.0
515,0.0
516,0.0
542,0.0
592,4811412.146064444
632,32823477.514766134
686,1.0
687,1.0
688,2.0
2,21, 1,21, 0, 7,40.00,50.00,Monday
250,-0.3611097157651427
251,37890807.09147754
336,0.0
385,21.485516219979722
386,28.52735128584105
387,-1.0128502280672538
388,0.0
425,0.0
450,0.0
451,0.0
452,-1.7051350318693428
453,0.0
490,0.0
515,0.0
516,0.0
542,0.0
592,4840723.52929546
632,32791209.230596494
686,1.0
687,1.0
688,2.0
2,21, 1,21, 0, 7,50.00,60.00,Monday
250,-0.36107755484098
251,37887847.62324986
336,0.0
385,21.485516219979722
386,28.52735128584105
387,-1.0360841659402116
388,0.0
425,0.0
450,0.0
451,0.0
452,-1.7814853512186122
453,0.0
490,0.0
515,0.0
516,0.0
542,0.0
592,4870050.865369482
632,32758922.64723864
686,1.0
687,1.0
688,2.0
2,21, 1,21, 0, 8, 0.00,10.00,Monday
250,-0.16084673244727773
251,37777092.52177916
336,0.0
385,21.485516219979722
386,28.52735128584105
387,-1.0322063648919129
388,0.0
425,0.0
450,0.0
451,0.0
452,-1.840432075095357
453,0.0
490,0.0
515,0.0
516,0.0
542,0.0
592,4889730.300311493
632,32736282.18137796
686,1.0
687,1.0
688,2.0
2,21, 1,21, 0, 8,10.00,20.00,Monday
250,0.039461364445156744
251,37671562.50461698
336,0.0
385,21.485516219979722
386,28.52735128584105
387,-0.9907026887226847
388,0.0
425,0.0
450,0.0
451,0.0
452,-1.8315685587038237
453,0.0
490,0.0
515,0.0
516,0.0
542,0.0
592,4909380.719869504
632,32611150.003048886
686,1.0
687,1.0
688,2.0
2,21, 1,21, 0, 8,20.00,30.00,Monday
250,0.23862346967605713
251,37566721.840471216
336,0.0
385,21.485516219979722
386,28.52735128584105
387,-0.9197136717896742
388,0.0
425,0.0
450,0.0
451,0.0
452,-1.7241257026906347
453,0.0
490,0.0
515,0.0
516,0.0
542,0.0
592,4929009.6156952735
632,32486070.219603147
686,1.0
687,1.0
688,2.0
2,21, 1,21, 0, 8,30.00,40.00,Monday
250,0.43809161381011286
251,37461688.49375197
336,0.0
385,21.485516219979722
386,28.52735128584105
387,-0.8294730450131137
388,0.0
425,0.0
450,0.0
451,0.0
452,-1.5284686590775205
453,0.0
490,0.0
515,0.0
516,0.0
542,0.0
592,4952863.6467726575
632,32357354.471874274
686,1.0
687,1.0
688,2.0
2,21, 1,21, 0, 8,40.00,50.00,Monday
250,0.6376217858514169
251,37356212.8183811
336,0.0
385,21.485516219979722
386,28.52735128584105
387,-0.7279281326221015
388,0.0
425,0.0
450,0.0
451,0.0
452,-1.2530254809444537
453,0.0
490,0.0
515,0.0
516,0.0
542,0.0
592,4977062.298687914
632,32227719.241168093
686,1.0
687,1.0
688,2.0
2,21, 1,21, 0, 8,50.00,60.00,Monday
250,0.8375988849717557
251,37251432.77197558
336,0.0
385,21.485516219979722
386,28.52735128584105
387,-0.6320800331861822
388,0.0
425,0.0
450,0.0
451,0.0
452,-0.9401366539663187
453,0.0
490,0.0
515,0.0
516,0.0
542,0.0
592,5001395.306277512
632,32045453.25642009
686,1.0
687,1.0
688,2.0
2,21, 1,21, 0, 9, 0.00,10.00,Monday
250,1.1035772554699572
251,37112151.03142835
336,0.0
385,21.485516219979722
386,28.52735128584105
387,-0.49373112852361184
388,0.0
425,0.0
450,0.0
451,0.0
452,-0.46077660140854815
453,0.0
490,0.0
515,0.0
516,0.0
542,0.0
592,5029363.153609448
632,31894823.88430966
686,1.0
687,1.0
688,2.0
2,21, 1,21, 0, 9,10.00,20.00,Monday
250,1.3694691257226157
251,36971956.39233522
336,0.0
385,21.485516219979722
386,28.52735128584105
387,-0.34298512158748606
388,0.0
425,0.0
450,0.0
451,0.0
452,0.06344694893043817
453,0.0
490,0.0
515,0.0
516,0.0
542,0.0
592,5057356.862312016
632,31726619.140705355
686,1.0
687,1.0
688,2.0
2,21, 1,21, 0, 9,20.00,30.00,Monday
250,1.6354502376996578
251,36831709.71513608
336,0.0
385,21.485516219979722
386,28.52735128584105
387,-0.1830799585068329
388,0.0
425,0.0
450,0.0
451,0.0
452,0.6281516303998853
453,0.0
490,0.0
515,0.0
516,0.0
542,0.0
592,5085392.284952975
632,31558361.7973639
686,1.0
687,1.0
688,2.0
2,21, 1,21, 0, 9,30.00,40.00,Monday
250,1.9013844567611025
251,36691486.11874384
336,0.0
385,21.485516219979722
386,28.52735128584105
387,-0.013311867211553871
388,0.0
425,0.0
450,0.0
451,0.0
452,1.2227859361720026
453,0.0
490,0.0
515,0.0
516,0.0
542,0.0
592,5113485.892141593
632,31390033.220505655
686,1.0
687,1.0
688,2.0
2,21, 1,21, 0, 9,40.00,50.00,Monday
250,2.1674913667552027
251,36550170.1680936
336,0.0
385,21.48551621997974
386,28.52735128584107
387,0.131884523415015
388,0.0
425,0.0
450,0.0
451,0.0
452,1.7244560002094933
453,0.0
490,0.0
515,0.0
516,0.0
542,0.0
592,5141654.529350725
632,31197417.661286145
686,1.0000000000000009
687,1.0000000000000009
688,2.0000000000000018
2,21, 1,21, 0, 9,50.00,60.00,Monday
250,2.4337089290715883
251,36409261.168115176
336,0.0
385,21.485516219979722
386,28.52735128584105
387,0.2840511348118369
388,0.0
425,0.0
450,0.0
451,0.0
452,2.2649284309732725
453,0.0
490,0.0
515,0.0
516,0.0
542,0.0
592,5169915.672059795
632,31052783.784116656
686,1.0
687,1.0
688,2.0
2,21, 1,21, 0,10, 0.00,10.00,Monday
250,2.8977881193125548
251,36163018.77098279
336,0.0
385,21.485516219979722
386,28.52735128584105
387,0.4745431207227415
388,0.0
425,0.0
450,0.0
451,0.0
452,2.824194274487026
453,0.0
490,0.0
515,0.0
516,0.0
542,0.0
592,5241404.10703412
632,30746110.219035126
686,1.0
687,1.0
688,2.0
2,21, 1,21, 0,10,10.00,20.00,Monday
250,3.362561806223696
251,35917029.167326435
336,0.0
385,21.485516219979722
386,28.52735128584105
387,0.7655895483883656
388,0.0
425,0.0
450,0.0
451,0.0
452,3.579079855222016
453,0.0
490,0.0
515,0.0
516,0.0
542,0.0
592,5315291.857316207
632,30425287.169976324
686,1.0
687,1.0
688,2.0
2,21, 1,21, 0,10,20.00,30.00,Monday
250,3.8275160274792657
251,35669671.00020019
336,0.0
385,21.485516219979715
386,28.527351285841043
387,1.045960252300631
388,0.0
425,0.0
450,0.0
451,0.0
452,4.267952808675219
453,0.0
490,0.0
515,0.0
516,0.0
542,0.0
592,5391793.298050372
632,30101502.362814445
686,0.9999999999999996
687,0.9999999999999996
688,1.9999999999999991
2,21, 1,21, 0,10,30.00,40.00,Monday
250,4.292581840940934
251,35422118.74108188
336,0.0
385,21.48551621997973
386,28.527351285841064
387,1.3277115170461706
388,0.0
425,0.0
450,0.0
451,0.0
452,4.969908245233136
453,0.0
490,0.0
515,0.0
516,0.0
542,0.0
592,5471132.199313744
632,29774675.878460117
686,1.0000000000000004
687,1.0000000000000004
688,2.000000000000001
2,21, 1,21, 0,10,40.00,50.00,Monday
250,4.757806828868304
251,35174339.84543139
336,0.0
385,21.48551621997974
386,28.52735128584107
387,1.6178362326813072
388,0.0
425,0.0
450,0.0
451,0.0
452,5.73401941697839
453,0.0
490,0.0
515,0.0
516,0.0
542,0.0
592,5553542.375759332
632,29444562.276547205
686,1.0000000000000009
687,1.0000000000000009
688,2.0000000000000018
2,21, 1,21, 0,10,50.00,60.00,Monday
250,5.223040283336976
251,34926408.76761463
336,0.0
385,21.48551621997974
386,28.52735128584107
387,1.9180475598885836
388,0.0
425,0.0
450,0.0
451,0.0
452,6.563055547849412
453,0.0
490,0.0
515,0.0
516,0.0
542,0.0
592,5639267.778995938
632,29110956.430456728
686,1.0000000000000009
687,1.0000000000000009
688,2.0000000000000018
2,21, 1,21, 0,11, 0.00,10.00,Monday
250,5.506495216776866
251,34775574.17558552
336,0.0
385,21.485516219979722
386,28.52735128584105
387,2.204545058580652
388,0.0
425,0.0
450,0.0
451,0.0
452,7.418267373654599
453,0.0
490,0.0
515,0.0
516,0.0
542,0.0
592,5689519.861596226
632,28877482.34955109
686,1.0
687,1.0
688,2.0
2,21, 1,21, 0,11,10.00,20.00,Monday
250,5.789429495834597
251,34624963.619837165
336,0.0
385,21.485516219979722
386,28.52735128584105
387,2.474308052650977
388,0.0
425,0.0
450,0.0
451,0.0
452,8.268777742896944
453,0.0
490,0.0
515,0.0
516,0.0
542,0.0
592,5740969.350869596
632,28675344.918972827
686,1.0
687,1.0
688,2.0
2,21, 1,21, 0,11,20.00,30.00,Monday
250,6.072408223812082
251,34474279.39285856
336,0.0
385,21.485516219979715
386,28.527351285841043
387,2.746465263428025
388,0.0
425,0.0
450,0.0
451,0.0
452,9.11537052385335
453,0.0
490,0.0
515,0.0
516,0.0
542,0.0
592,5793671.095282218
632,28471983.621617015
686,0.9999999999999996
687,0.9999999999999996
688,1.9999999999999991
2,21, 1,21, 0,11,30.00,40.00,Monday
250,6.355202552187288
251,34323641.74441738
336,0.0
385,21.48551621997973
386,28.527351285841064
387,3.023798384728006
388,0.0
425,0.0
450,0.0
451,0.0
452,9.937174046935569
453,0.0
490,0.0
515,0.0
516,0.0
542,0.0
592,5847681.4279665835
632,28267319.960627373
686,1.0000000000000004
687,1.0000000000000004
688,2.000000000000001
2,21, 1,21, 0,11,40.00,50.00,Monday
250,6.637917652846468
251,34172992.81863162
336,0.0
385,21.48551621997974
386,28.52735128584107
387,3.3029059754620382
388,0.0
425,0.0
450,0.0
451,0.0
452,10.68272726744333
453,0.0
490,0.0
515,0.0
516,0.0
542,0.0
592,5903058.082199926
632,28061298.099658888
686,1.0000000000000009
687,1.0000000000000009
688,2.0000000000000018
2,21, 1,21, 0,11,50.00,60.00,Monday
250,6.920525522311909
251,34022346.23631659
336,0.0
385,21.48551621997974
386,28.52735128584107
387,3.5799357428453913
388,0.0
425,0.0
450,0.0
451,0.0
452,11.318564060992959
453,0.0
490,0.0
515,0.0
516,0.0
542,0.0
592,5959860.237244541
632,27853848.537902754
686,1.0000000000000009
687,1.0000000000000009
688,2.0000000000000018
2,21, 1,21, 0,12, 0.00,10.00,Monday
250,7.187201921396035
251,33880229.03161694
336,0.0
385,21.485516219979722
386,28.52735128584105
387,3.819944127550042
388,0.0
425,0.0
450,0.0
451,0.0
452,11.81766904777947
453,0.0
490,0.0
515,0.0
516,0.0
542,0.0
592,5991096.197635708
632,27702755.865634136
686,1.0
687,1.0
688,2.0
2,21, 1,21, 0,12,10.00,20.00,Monday
250,7.452768321222114
251,33742189.06577507
336,0.0
385,21.485516219979722
386,28.52735128584105
387,4.112339023676241
388,0.0
425,0.0
450,0.0
451,0.0
452,12.381658711293689
453,0.0
490,0.0
515,0.0
516,0.0
542,0.0
592,7572016.881221028
632,25981982.207241368
686,1.0
687,1.0
688,2.0
2,21, 1,21, 0,12,20.00,30.00,Monday
250,7.718884834552098
251,33602129.39948915
336,0.0
385,21.485516219979722
386,28.52735128584105
387,4.381464037890515
388,0.0
425,0.0
450,0.0
451,0.0
452,12.89657115840758
453,0.0
490,0.0
515,0.0
516,0.0
542,0.0
592,7609409.155487607
632,25804672.45938935
686,1.0
687,1.0
688,2.0
2,21, 1,21, 0,12,30.00,40.00,Monday
250,7.984936463773122
251,33462105.83401867
336,0.0
385,21.485516219979722
386,28.52735128584105
387,4.640286754608251
388,0.0
425,0.0
450,0.0
451,0.0
452,13.388443697656697
453,0.0
490,0.0
515,0.0
516,0.0
542,0.0
592,7646583.592010485
632,25627456.8629518
686,1.0
687,1.0
688,2.0
2,21, 1,21, 0,12,40.00,50.00,Monday
250,8.250964243551758
251,33322094.83433993
336,0.0
385,21.485516219979722
386,28.52735128584105
387,4.894719973189515
388,0.0
425,0.0
450,0.0
451,0.0
452,13.830552527338693
453,0.0
490,0.0
515,0.0
516,0.0
542,0.0
592,7683540.190789655
632,25450483.016593933
686,1.0
687,1.0
688,2.0
2,21, 1,21, 0,12,50.00,60.00,Monday
250,8.516985049407598
251,33182086.814390562
336,0.0
385,21.485516219979722
386,28.52735128584105
387,5.1436723602716805
388,0.0
425,0.0
450,0.0
451,0.0
452,14.198322225421306
453,0.0
490,0.0
515,0.0
516,0.0
542,0.0
592,7720278.951825122
632,25273734.828979425
686,1.0
687,1.0
688,2.0
2,21, 1,21, 0,13, 0.00,10.00,Monday
250,8.700018329814048
251,33083376.34937991
336,0.0
385,21.485516219979722
386,28.52735128584105
387,5.376066830526849
388,0.0
425,0.0
450,0.0
451,0.0
452,14.489551247575788
453,0.0
490,0.0
515,0.0
516,0.0
542,0.0
592,7745410.487127085
632,25176233.91427027
686,1.0
687,1.0
688,2.0
2,21, 1,21, 0,13,10.00,20.00,Monday
250,8.882733230991851
251,32988843.08019305
336,0.0
385,21.485516219979722
386,28.52735128584105
387,5.594864237770639
388,0.0
425,0.0
450,0.0
451,0.0
452,14.7188134686385
453,0.0
490,0.0
515,0.0
516,0.0
542,0.0
592,7770439.060057994
632,25058135.34617974
686,1.0
687,1.0
688,2.0
2,21, 1,21, 0,13,20.00,30.00,Monday
250,9.065866728531626
251,32894176.88002164
336,0.0
385,21.485516219979722
386,28.52735128584105
387,5.799776890814544
388,0.0
425,0.0
450,0.0
451,0.0
452,14.902003420292214
453,0.0
490,0.0
515,0.0
516,0.0
542,0.0
592,7795364.670617863
632,24938782.048521064
686,1.0
687,1.0
688,2.0
2,21, 1,21, 0,13,30.00,40.00,Monday
250,9.248875946623969
251,32799607.99320544
336,0.0
385,21.485516219979722
386,28.52735128584105
387,5.99482460294476
388,0.0
425,0.0
450,0.0
451,0.0
452,15.050874611573262
453,0.0
490,0.0
515,0.0
516,0.0
542,0.0
592,7820187.318806683
632,24819336.151972767
686,1.0
687,1.0
688,2.0
2,21, 1,21, 0,13,40.00,50.00,Monday
250,9.43188975704578
251,32705070.104107674
336,0.0
385,21.485516219979722
386,28.52735128584105
387,6.1837578459437434
388,0.0
425,0.0
450,0.0
451,0.0
452,15.170210944650362
453,0.0
490,0.0
515,0.0
516,0.0
542,0.0
592,7844907.0046244515
632,24700093.96330057
686,1.0
687,1.0
688,2.0
2,21, 1,21, 0,13,50.00,60.00,Monday
250,9.614898064726022
251,32610568.361992907
336,0.0
385,21.485516219979722
386,28.52735128584105
387,6.367876500877691
388,0.0
425,0.0
450,0.0
451,0.0
452,15.263642200071944
453,0.0
490,0.0
515,0.0
516,0.0
542,0.0
592,7869523.72807117
632,24580985.611641787
686,1.0
687,1.0
688,2.0
2,21, 1,21, 0,14, 0.00,10.00,Monday
250,9.81483288552958
251,32506957.686278634
336,0.0
385,21.485516219979722
386,28.52735128584105
387,6.550019700207803
388,0.0
425,0.0
450,0.0
451,0.0
452,15.319764218770473
453,0.0
490,0.0
515,0.0
516,0.0
542,0.0
592,7896260.907308879
632,24459793.299447525
686,1.0
687,1.0
688,2.0
2,21, 1,21, 0,14,10.00,20.00,Monday
250,10.014458954736272
251,32403115.497448433
336,0.0
385,21.485516219979722
386,28.52735128584105
387,6.730319232209915
388,0.0
425,0.0
450,0.0
451,0.0
452,15.320256294916634
453,0.0
490,0.0
515,0.0
516,0.0
542,0.0
592,7922875.552815756
632,24329182.94522686
686,1.0
687,1.0
688,2.0
2,21, 1,21, 0,14,20.00,30.00,Monday
250,10.213989696440738
251,32299339.84905162
336,0.0
385,21.485516219979722
386,28.52735128584105
387,6.906617157942718
388,0.0
425,0.0
450,0.0
451,0.0
452,15.264650460620247
453,0.0
490,0.0
515,0.0
516,0.0
542,0.0
592,7949367.664591794
632,24198877.06482294
686,1.0
687,1.0
688,2.0
2,21, 1,21, 0,14,30.00,40.00,Monday
250,10.413455787778261
251,32195623.701153293
336,0.0
385,21.485516219979722
386,28.52735128584105
387,7.072960905787937
388,0.0
425,0.0
450,0.0
451,0.0
452,15.14242122543491
453,0.0
490,0.0
515,0.0
516,0.0
542,0.0
592,7975737.242637003
632,24068769.953004178
686,1.0
687,1.0
688,2.0
2,21, 1,21, 0,14,40.00,50.00,Monday
250,10.612864401241525
251,32091960.66452221
336,0.0
385,21.485516219979722
386,28.52735128584105
387,7.22565673261384
388,0.0
425,0.0
450,0.0
451,0.0
452,14.933847237149658
453,0.0
490,0.0
515,0.0
516,0.0
542,0.0
592,8001984.286951372
632,23938842.51829298
686,1.0
687,1.0
688,2.0
2,21, 1,21, 0,14,50.00,60.00,Monday
250,10.812231958564023
251,31988342.31705991
336,0.0
385,21.485516219979722
386,28.52735128584105
387,7.364994947401754
388,0.0
425,0.0
450,0.0
451,0.0
452,14.641965785392896
453,0.0
490,0.0
515,0.0
516,0.0
542,0.0
592,8028108.797534915
632,23809091.341881286
686,1.0
687,1.0
688,2.0
2,21, 1,21, 0,15, 0.00,10.00,Monday
250,11.078107363522811
251,31849527.40800695
336,0.0
385,21.485516219979722
386,28.52735128584105
387,7.485977518359781
388,0.0
425,0.0
450,0.0
451,0.0
452,14.34666178568633
453,0.0
490,0.0
515,0.0
516,0.0
542,0.0
592,8062750.870287225