Program Version,EnergyPlus, Version 24.2.0-94a887817b, YMD=2025.02.04 15:37
1,5,Environment Title[],Latitude[deg],Longitude[deg],Time Zone[],Elevation[m]
2,8,Day of Simulation[],Month[],Day of Month[],DST Indicator[1=yes 0=no],Hour[],StartMinute[],EndMinute[],DayType
3,5,Cumulative Day of Simulation[],Month[],Day of Month[],DST Indicator[1=yes 0=no],DayType  ! When Daily Meters Requested
4,2,Cumulative Days of Simulation[],Month[]  ! When Monthly Meters Requested
5,1,Cumulative Days of Simulation[] ! When Run Period Meters Requested
6,1,Calendar Year of Simulation[] ! When Annual Meters Requested
11,9,Electricity:Facility [J] !Monthly [Value,Min,Day,Hour,Minute,Max,Day,Hour,Minute]
23,9,Electricity:Building [J] !Monthly [Value,Min,Day,Hour,Minute,Max,Day,Hour,Minute]
59,9,InteriorLights:Electricity [J] !Monthly [Value,Min,Day,Hour,Minute,Max,Day,Hour,Minute]
521,9,Electricity:HVAC [J] !Monthly [Value,Min,Day,Hour,Minute,Max,Day,Hour,Minute]
637,9,NaturalGas:Facility [J] !Monthly [Value,Min,Day,Hour,Minute,Max,Day,Hour,Minute]
649,9,NaturalGas:HVAC [J] !Monthly [Value,Min,Day,Hour,Minute,Max,Day,Hour,Minute]
13,11,Electricity:Facility [J] !RunPeriod [Value,Min,Month,Day,Hour,Minute,Max,Month,Day,Hour,Minute]
25,11,Electricity:Building [J] !RunPeriod [Value,Min,Month,Day,Hour,Minute,Max,Month,Day,Hour,Minute]
61,11,InteriorLights:Electricity [J] !RunPeriod [Value,Min,Month,Day,Hour,Minute,Max,Month,Day,Hour,Minute]
523,11,Electricity:HVAC [J] !RunPeriod [Value,Min,Month,Day,Hour,Minute,Max,Month,Day,Hour,Minute]
639,11,NaturalGas:Facility [J] !RunPeriod [Value,Min,Month,Day,Hour,Minute,Max,Month,Day,Hour,Minute]
651,11,NaturalGas:HVAC [J] !RunPeriod [Value,Min,Month,Day,Hour,Minute,Max,Month,Day,Hour,Minute]
End of Data Dictionary
1,RUN PERIOD 1,  41.98, -87.92,  -6.00, 201.00
4,31, 1
11,9825823800.376478,408891.4285714286, 5, 6,50,2981483.1666984293,16,13,60
23,986773699.1454425,30000.0, 1, 1,10,612009.9269170045, 1, 9,10
59,970200000.0,30000.0, 1, 1,10,600000.0, 1, 8,10
521,8839050101.230986,378891.4285714286, 5, 6,50,2369473.239781425,16,13,60
637,179181146878.43652,28338092.57498118,21,16,10,41250000.0, 1, 1,10
649,179181146878.43652,28338092.57498118,21,16,10,41250000.0, 1, 1,10
4,59, 2
11,9358948033.3643,99999999999999.0, 5, 6,50,3022944.6069615516,22,15,30
23,862571912.3003895,99999999999999.0, 1, 1,10,-99999999999999.0, 1, 9,10
59,848160000.0,99999999999999.0, 1, 1,10,-99999999999999.0, 1, 8,10
521,8496376121.063895,99999999999999.0, 5, 6,50,2410934.680044547,22,15,30
637,158608130296.95547,26646599.999341886,23,12,10,-99999999999999.0, 1, 1,10
649,158608130296.95547,26646599.999341886,23,12,10,-99999999999999.0, 1, 1,10
4,90, 3
11,11014706137.143137,99999999999999.0, 5, 6,50,3267292.3280896028,27,16,10
23,912612507.915407,99999999999999.0, 1, 1,10,-99999999999999.0, 1, 9,10
59,897480000.0,99999999999999.0, 1, 1,10,-99999999999999.0, 1, 8,10
521,10102093629.227654,99999999999999.0, 5, 6,50,2655282.4011725984,27,16,10
637,163236405381.5449,21125152.25896806,27,16,10,-99999999999999.0, 1, 1,10
649,163236405381.5449,21125152.25896806,27,16,10,-99999999999999.0, 1, 1,10
4,120, 4
11,9718851763.04994,30000.0,11,19,10,3267545.931558017,11,14,10
23,945373103.5304251,99999999999999.0, 1, 1,10,-99999999999999.0, 1, 9,10
59,929520000.0,99999999999999.0, 1, 1,10,-99999999999999.0, 1, 8,10
521,8773478659.519527,0.0,11,14,20,2655536.0046410128,11,14,10
637,123452352046.93706,0.0,11,14,20,-99999999999999.0, 1, 1,10
649,123452352046.93706,0.0,11,14,20,-99999999999999.0, 1, 1,10
4,151, 5
11,9331407974.475163,99999999999999.0,11,19,10,3268869.5967437704,23,17,30
23,987087891.0506486,99999999999999.0, 1, 1,10,627940.1941460284,28,13,10
59,970200000.0,99999999999999.0, 1, 1,10,-99999999999999.0, 1, 8,10
521,8344320083.424567,99999999999999.0,11,14,20,2659248.806227049,26,13,20
637,98316297980.74162,99999999999999.0,11,14,20,-99999999999999.0, 1, 1,10
649,98316297980.74162,99999999999999.0,11,14,20,-99999999999999.0, 1, 1,10
4,181, 6
11,6756840712.497029,99999999999999.0,11,19,10,-99999999999999.0,23,17,30
23,871298206.5933164,99999999999999.0, 1, 1,10,-99999999999999.0,28,13,10
59,856800000.0,99999999999999.0, 1, 1,10,-99999999999999.0, 1, 8,10
521,5885542505.903679,99999999999999.0,11,14,20,-99999999999999.0,26,13,20
637,48098814525.815506,99999999999999.0,11,14,20,-99999999999999.0, 1, 1,10
649,48098814525.815506,99999999999999.0,11,14,20,-99999999999999.0, 1, 1,10
4,212, 7
11,5912024225.131183,99999999999999.0,11,19,10,3269440.0375390435, 9,11,40
23,987051390.5597799,99999999999999.0, 1, 1,10,-99999999999999.0,28,13,10
59,970200000.0,99999999999999.0, 1, 1,10,-99999999999999.0, 1, 8,10
521,4924972834.571347,99999999999999.0,11,14,20,-99999999999999.0,26,13,20
637,23603453274.205013,99999999999999.0,11,14,20,-99999999999999.0, 1, 1,10
649,23603453274.205013,99999999999999.0,11,14,20,-99999999999999.0, 1, 1,10
4,243, 8
11,5574582229.75575,99999999999999.0,11,19,10,3271373.014337087, 6, 9,20
23,949971504.2917566,99999999999999.0, 1, 1,10,628068.7088458937,12,14,10
59,933840000.0,99999999999999.0, 1, 1,10,-99999999999999.0, 1, 8,10
521,4624610725.463897,99999999999999.0,11,14,20,2659363.0874200827, 6, 9,20
637,38171885659.76046,99999999999999.0,11,14,20,-99999999999999.0, 1, 1,10
649,38171885659.76046,99999999999999.0,11,14,20,-99999999999999.0, 1, 1,10
4,273, 9
11,7996991301.4601965,99999999999999.0,11,19,10,-99999999999999.0, 6, 9,20
23,908292507.9154073,99999999999999.0, 1, 1,10,-99999999999999.0,12,14,10
59,893160000.0,99999999999999.0, 1, 1,10,-99999999999999.0, 1, 8,10
521,7088698793.544726,99999999999999.0,11,14,20,-99999999999999.0, 6, 9,20
637,73915419054.55151,99999999999999.0,11,14,20,-99999999999999.0, 1, 1,10
649,73915419054.55151,99999999999999.0,11,14,20,-99999999999999.0, 1, 1,10
4,304,10
11,10758739923.280392,99999999999999.0,11,19,10,-99999999999999.0, 6, 9,20
23,986809593.3829395,99999999999999.0, 1, 1,10,630111.5052439192,22,16,30
59,970200000.0,99999999999999.0, 1, 1,10,-99999999999999.0, 1, 8,10
521,9771930329.897451,99999999999999.0,11,14,20,-99999999999999.0, 6, 9,20
637,130579957707.5892,99999999999999.0,11,14,20,-99999999999999.0, 1, 1,10
649,130579957707.5892,99999999999999.0,11,14,20,-99999999999999.0, 1, 1,10
4,334,11
11,10592077494.883694,99999999999999.0,11,19,10,-99999999999999.0, 6, 9,20
23,908292507.915407,99999999999999.0, 1, 1,10,-99999999999999.0,22,16,30
59,893160000.0,99999999999999.0, 1, 1,10,-99999999999999.0, 1, 8,10
521,9683784986.968292,99999999999999.0,11,14,20,-99999999999999.0, 6, 9,20
637,149110580994.14877,99999999999999.0,11,14,20,-99999999999999.0, 1, 1,10
649,149110580994.14877,99999999999999.0,11,14,20,-99999999999999.0, 1, 1,10
4,365,12
11,10438643723.91426,99999999999999.0,11,19,10,-99999999999999.0, 6, 9,20
23,949693103.5304247,99999999999999.0, 1, 1,10,-99999999999999.0,22,16,30
59,933840000.0,99999999999999.0, 1, 1,10,-99999999999999.0, 1, 8,10
521,9488950620.383821,99999999999999.0,11,14,20,-99999999999999.0, 6, 9,20
637,180034823038.7824,99999999999999.0,11,14,20,-99999999999999.0, 1, 1,10
649,180034823038.7824,99999999999999.0,11,14,20,-99999999999999.0, 1, 1,10
5,365
13,107279637319.33528,30000.0, 4,11,19,10,3271373.014337087, 8, 6, 9,20
25,11255827928.129025,30000.0, 1, 1, 1,10,630111.5052439192,10,22,16,30
61,11066760000.0,30000.0, 1, 1, 1,10,600000.0, 1, 1, 8,10
523,96023809391.20511,0.0, 4,11,14,20,2659363.0874200827, 8, 6, 9,20
639,1366309266839.469,0.0, 4,11,14,20,41250000.0, 1, 1, 1,10
651,1366309266839.469,0.0, 4,11,14,20,41250000.0, 1, 1, 1,10
1,RUN PERIOD 2,  41.98, -87.92,  -6.00, 201.00
4,1, 7
11,84246495.35345516,99999999999999.0,11,19,10,-99999999999999.0, 6, 9,20
23,41400595.61502027,99999999999999.0, 1, 1,10,-99999999999999.0,22,16,30
59,40680000.0,99999999999999.0, 1, 1,10,-99999999999999.0, 1, 8,10
521,42845899.73843494,99999999999999.0,11,14,20,-99999999999999.0, 6, 9,20
637,0.0,99999999999999.0,11,14,20,-99999999999999.0, 1, 1,10
649,0.0,99999999999999.0,11,14,20,-99999999999999.0, 1, 1,10
5,1
13,84246495.35345516,99999999999999.0, 4,11,19,10,-99999999999999.0, 8, 6, 9,20
25,41400595.61502027,99999999999999.0, 1, 1, 1,10,-99999999999999.0,10,22,16,30
61,40680000.0,99999999999999.0, 1, 1, 1,10,-99999999999999.0, 1, 1, 8,10
523,42845899.73843494,99999999999999.0, 4,11,14,20,-99999999999999.0, 8, 6, 9,20
639,0.0,99999999999999.0, 4,11,14,20,-99999999999999.0, 1, 1, 1,10
651,0.0,99999999999999.0, 4,11,14,20,-99999999999999.0, 1, 1, 1,10
End of Data
 Number of Records Written=          90
