Program Version,EnergyPlus, Version 24.2.0-94a887817b, YMD=2025.02.04 15:38
1,5,Environment Title[],Latitude[deg],Longitude[deg],Time Zone[],Elevation[m]
2,8,Day of Simulation[],Month[],Day of Month[],DST Indicator[1=yes 0=no],Hour[],StartMinute[],EndMinute[],DayType
3,5,Cumulative Day of Simulation[],Month[],Day of Month[],DST Indicator[1=yes 0=no],DayType  ! When Daily Report Variables Requested
4,2,Cumulative Days of Simulation[],Month[]  ! When Monthly Report Variables Requested
5,1,Cumulative Days of Simulation[] ! When Run Period Report Variables Requested
6,1,Calendar Year of Simulation[] ! When Annual Report Variables Requested
250,1,LIVING ZONE,Zone Air Temperature [C] !TimeStep,REPORTSCH
251,1,LIVING ZONE,Zone Air System Sensible Heating Energy [J] !TimeStep,REPORTSCH
336,1,LIVING ZONE,Zone Air System Sensible Cooling Energy [J] !TimeStep,REPORTSCH
385,1,LIVING ZONE,Zone Thermostat Heating Setpoint Temperature [C] !TimeStep,REPORTSCH
386,1,LIVING ZONE,Zone Thermostat Cooling Setpoint Temperature [C] !TimeStep,REPORTSCH
387,1,GARAGE ZONE,Zone Air Temperature [C] !TimeStep,REPORTSCH
388,1,GARAGE ZONE,Zone Air System Sensible Heating Energy [J] !TimeStep,REPORTSCH
425,1,GARAGE ZONE,Zone Air System Sensible Cooling Energy [J] !TimeStep,REPORTSCH
450,1,GARAGE ZONE,Zone Thermostat Heating Setpoint Temperature [C] !TimeStep,REPORTSCH
451,1,GARAGE ZONE,Zone Thermostat Cooling Setpoint Temperature [C] !TimeStep,REPORTSCH
452,1,ATTIC ZONE,Zone Air Temperature [C] !TimeStep,REPORTSCH
453,1,ATTIC ZONE,Zone Air System Sensible Heating Energy [J] !TimeStep,REPORTSCH
490,1,ATTIC ZONE,Zone Air System Sensible Cooling Energy [J] !TimeStep,REPORTSCH
515,1,ATTIC ZONE,Zone Thermostat Heating Setpoint Temperature [C] !TimeStep,REPORTSCH
516,1,ATTIC ZONE,Zone Thermostat Cooling Setpoint Temperature [C] !TimeStep,REPORTSCH
542,1,ACDXCOIL 1,Cooling Coil Total Cooling Energy [J] !TimeStep,REPORTSCH
592,1,HEAT PUMP DX HEATING COIL 1,Heating Coil Heating Energy [J] !TimeStep,REPORTSCH
632,1,SUPP HEATING COIL 1,Heating Coil Heating Energy [J] !TimeStep,REPORTSCH
686,1,TWOSPEED HEAT PUMP 1,Unitary System DX Coil Cycling Ratio [] !TimeStep,REPORTSCH
687,1,TWOSPEED HEAT PUMP 1,Unitary System DX Coil Speed Ratio [] !TimeStep,REPORTSCH
688,1,TWOSPEED HEAT PUMP 1,Unitary System DX Coil Speed Level [] !TimeStep,REPORTSCH
End of Data Dictionary
1,RUN PERIOD 1,  41.98, -87.92,  -6.00, 201.00
2,21, 1,21, 0, 1, 0.00,10.00,Monday
250,-0.7299860330689072
251,38073259.35434595
336,0.0
385,18.78357102435903
386,24.711349942841345
387,-0.9454207171400053
388,0.0
425,0.0
450,0.0
451,0.0
452,-1.972614571393327
453,0.0
490,0.0
515,0.0
516,0.0
542,0.0
592,4839743.985079641
632,32975428.088308305
686,1.0
687,1.0
688,2.0
2,21, 1,21, 0, 1,10.00,20.00,Monday
250,-0.7300300400622012
251,38074911.3851518
336,0.0
385,18.78357102435903
386,24.711349942841345
387,-0.953786834757828
388,0.0
425,0.0
450,0.0
451,0.0
452,-1.9544791083781294
453,0.0
490,0.0
515,0.0
516,0.0
542,0.0
592,4823801.676011795
632,32992194.591021594
686,1.0
687,1.0
688,2.0
2,21, 1,21, 0, 1,20.00,30.00,Monday
250,-0.7302258460513797
251,38066855.00103632
336,0.0
385,18.78357102435903
386,24.711349942841345
387,-0.9633865852500334
388,0.0
425,0.0
450,0.0
451,0.0
452,-1.9513982040382185
453,0.0
490,0.0
515,0.0
516,0.0
542,0.0
592,4807858.162905219
632,33000000.0
686,1.0
687,1.0
688,2.0
2,21, 1,21, 0, 1,30.00,40.00,Monday
250,-0.7304861500189673
251,38050945.01146165
336,0.0
385,18.78357102435903
386,24.711349942841345
387,-0.9744246955769303
388,0.0
425,0.0
450,0.0
451,0.0
452,-1.964266557765027
453,0.0
490,0.0
515,0.0
516,0.0
542,0.0
592,4791913.4456235105
632,33000000.0
686,1.0
687,1.0
688,2.0
2,21, 1,21, 0, 1,40.00,50.00,Monday
250,-0.7307496316799322
251,38035000.80677021
336,0.0
385,18.78357102435903
386,24.711349942841345
387,-0.9870585176723029
388,0.0
425,0.0
450,0.0
451,0.0
452,-1.9914642817575825
453,0.0
490,0.0
515,0.0
516,0.0
542,0.0
592,4775967.524030239
632,33000000.0
686,1.0
687,1.0
688,2.0
2,21, 1,21, 0, 1,50.00,60.00,Monday
250,-0.731013561455341
251,38019053.92815662
336,0.0
385,18.78357102435903
386,24.711349942841345
387,-1.0014768921734527
388,0.0
425,0.0
450,0.0
451,0.0
452,-2.031461299591638
453,0.0
490,0.0
515,0.0
516,0.0
542,0.0
592,4760020.397988958
632,33000000.0
686,1.0
687,1.0
688,2.0
2,21, 1,21, 0, 2, 0.00,10.00,Monday
250,-0.7311229122664412
251,38018970.70434158
336,0.0
385,18.78357102435903
386,24.711349942841345
387,-1.016998333495861
388,0.0
425,0.0
450,0.0
451,0.0
452,-2.0782139788811764
453,0.0
490,0.0
515,0.0
516,0.0
542,0.0
592,4760020.397988959
632,33000000.0
686,1.0
687,1.0
688,2.0
2,21, 1,21, 0, 2,10.00,20.00,Monday
250,-0.7312277551765847
251,38018968.277188145
336,0.0
385,18.78357102435903
386,24.711349942841345
387,-1.0326810077650392
388,0.0
425,0.0
450,0.0
451,0.0
452,-2.120936123885823
453,0.0
490,0.0
515,0.0
516,0.0
542,0.0
592,4760020.397988958
632,33000000.0
686,1.0
687,1.0
688,2.0
2,21, 1,21, 0, 2,20.00,30.00,Monday
250,-0.7313326255689273
251,38018968.29197071
336,0.0
385,18.78357102435903
386,24.711349942841345
387,-1.0479717836615996
388,0.0
425,0.0
450,0.0
451,0.0
452,-2.1523988179321725
453,0.0
490,0.0
515,0.0
516,0.0
542,0.0
592,4760020.397988958
632,33000000.0
686,1.0
687,1.0
688,2.0
2,21, 1,21, 0, 2,30.00,40.00,Monday
250,-0.7314354172251775
251,38018967.17271967
336,0.0
385,18.78357102435903
386,24.711349942841345
387,-1.06254939459643
388,0.0
425,0.0
450,0.0
451,0.0
452,-2.171780036589108
453,0.0
490,0.0
515,0.0
516,0.0
542,0.0
592,4760020.397988958
632,33000000.0
686,1.0
687,1.0
688,2.0
2,21, 1,21, 0, 2,40.00,50.00,Monday
250,-0.7315366547340902
251,38018966.335919656
336,0.0
385,18.78357102435903
386,24.711349942841345
387,-1.0762733027023348
388,0.0
425,0.0
450,0.0
451,0.0
452,-2.1819210144615835
453,0.0
490,0.0
515,0.0
516,0.0
542,0.0
592,4760020.397988958
632,33000000.0
686,1.0
687,1.0
688,2.0
2,21, 1,21, 0, 2,50.00,60.00,Monday
250,-0.7316360936827884
251,38018965.36752
336,0.0
385,18.78357102435903
386,24.711349942841345
387,-1.089105989534706
388,0.0
425,0.0
450,0.0
451,0.0
452,-2.1859700661788426
453,0.0
490,0.0
515,0.0
516,0.0
542,0.0
592,4760020.397988958
632,33000000.0
686,1.0
687,1.0
688,2.0
2,21, 1,21, 0, 3, 0.00,10.00,Monday
250,-0.6497094126271025
251,37977338.50152329
336,0.0
385,18.78357102435903
386,24.711349942841345
387,-1.090660305119803
388,0.0
425,0.0
450,0.0
451,0.0
452,-2.1784974542539364
453,0.0
490,0.0
515,0.0
516,0.0
542,0.0
592,4762558.894114006
632,33000000.0
686,1.0
687,1.0
688,2.0
2,21, 1,21, 0, 3,10.00,20.00,Monday
250,-0.5660671896049295
251,37978842.5146017
336,0.0
385,18.78357102435903
386,24.711349942841345
387,-1.0796274930923102
388,0.0
425,0.0
450,0.0
451,0.0
452,-2.153526807382175
453,0.0
490,0.0
515,0.0
516,0.0
542,0.0
592,4764988.4357309695
632,33000000.0
686,1.0
687,1.0
688,2.0
2,21, 1,21, 0, 3,20.00,30.00,Monday
250,-0.48327953883019564
251,37953469.65219076
336,0.0
385,18.78357102435903
386,24.711349942841345
387,-1.060418772238294
388,0.0
425,0.0
450,0.0
451,0.0
452,-2.109608131387154
453,0.0
490,0.0
515,0.0
516,0.0
542,0.0
592,4767308.250738335
632,32971849.036338508
686,1.0
687,1.0
688,2.0
2,21, 1,21, 0, 3,30.00,40.00,Monday
250,-0.40051252420614547
251,37910482.15860892
336,0.0
385,18.78357102435903
386,24.711349942841345
387,-1.0368312734541334
388,0.0
425,0.0
450,0.0
451,0.0
452,-2.0498721956817816
453,0.0
490,0.0
515,0.0
516,0.0
542,0.0
592,4769517.689516207
632,32926642.85001163
686,1.0
687,1.0
688,2.0
2,21, 1,21, 0, 3,40.00,50.00,Monday
250,-0.3177139020292571
251,37867486.553361386
336,0.0
385,18.78357102435903
386,24.711349942841345
387,-1.0101748655433145
388,0.0
425,0.0
450,0.0
451,0.0
452,-1.9788029196505368
453,0.0
490,0.0
515,0.0
516,0.0
542,0.0
592,4771616.115684973
632,32881567.712831736
686,1.0
687,1.0
688,2.0
2,21, 1,21, 0, 3,50.00,60.00,Monday
250,-0.23489468580972014
251,37824486.74770984
336,0.0
385,18.78357102435903
386,24.711349942841345
387,-0.9802337678804787
388,0.0
425,0.0
450,0.0
451,0.0
452,-1.9000191479209276
453,0.0
490,0.0
515,0.0
516,0.0
542,0.0
592,4773602.736238394
632,32836594.263593994
686,1.0
687,1.0
688,2.0
2,21, 1,21, 0, 4, 0.00,10.00,Monday
250,-0.23405393208896622
251,37825644.39908349
336,0.0
385,18.78357102435903
386,24.711349942841345
387,-0.9575137620088434
388,0.0
425,0.0
450,0.0
451,0.0
452,-1.8238087180792286
453,0.0
490,0.0
515,0.0
516,0.0
542,0.0
592,4773428.982371633
632,32793776.789160565
686,1.0
687,1.0
688,2.0
2,21, 1,21, 0, 4,10.00,20.00,Monday
250,-0.23451444295846768
251,37825954.562905245
336,0.0
385,18.78357102435903
386,24.711349942841345
387,-0.9448783117982618
388,0.0
425,0.0
450,0.0
451,0.0
452,-1.7592102572364432
453,0.0
490,0.0
515,0.0
516,0.0
542,0.0
592,4773255.169447958
632,32793559.94917216
686,1.0
687,1.0
688,2.0
2,21, 1,21, 0, 4,20.00,30.00,Monday
250,-0.23434350902025958
251,37825891.65550126
336,0.0
385,18.78357102435903
386,24.711349942841345
387,-0.9388680547594633
388,0.0
425,0.0
450,0.0
451,0.0
452,-1.7098291517640916
453,0.0
490,0.0
515,0.0
516,0.0
542,0.0
592,4773081.297437259
632,32794010.988851335
686,1.0
687,1.0
688,2.0
2,21, 1,21, 0, 4,30.00,40.00,Monday
250,-0.23430176437942757
251,37825910.20844532
336,0.0
385,18.78357102435903
386,24.711349942841345
387,-0.9356245912430781
388,0.0
425,0.0
450,0.0
451,0.0
452,-1.6740081590483529
453,0.0
490,0.0
515,0.0
516,0.0
542,0.0
592,4772907.366309401
632,32794133.895870093
686,1.0
687,1.0
688,2.0
2,21, 1,21, 0, 4,40.00,50.00,Monday
250,-0.23427071530716767
251,37825932.26521511
336,0.0
385,18.78357102435903
386,24.711349942841345
387,-0.9333510538715413
388,0.0
425,0.0
450,0.0
451,0.0
452,-1.6480776221740492
453,0.0
490,0.0
515,0.0
516,0.0
542,0.0
592,4772733.376034233
632,32794324.182646878
686,1.0
687,1.0
688,2.0
2,21, 1,21, 0, 4,50.00,60.00,Monday
250,-0.23423841420702998
251,37825953.456722595
336,0.0
385,18.78357102435903
386,24.711349942841345
387,-0.9318568349926488
388,0.0
425,0.0
450,0.0
451,0.0
452,-1.6289786189764555
453,0.0
490,0.0
515,0.0
516,0.0
542,0.0
592,4772559.326581573
632,32794520.097926952
686,1.0
687,1.0
688,2.0
2,21, 1,21, 0, 5, 0.00,10.00,Monday
250,-0.2342080008812274
251,37825975.713437654
336,0.0
385,18.78357102435903
386,24.711349942841345
387,-0.9311928163718395
388,0.0
425,0.0
450,0.0
451,0.0
452,-1.6140952644406752
453,0.0
490,0.0
515,0.0
516,0.0
542,0.0
592,4759720.858689582
632,32807379.80585481
686,1.0
687,1.0
688,2.0
2,21, 1,21, 0, 5,10.00,20.00,Monday
250,-0.2341659741266964
251,37827259.57630864
336,0.0
385,18.78357102435903
386,24.711349942841345
387,-0.9312234265188863
388,0.0
425,0.0
450,0.0
451,0.0
452,-1.6011168517973005
453,0.0
490,0.0
515,0.0
516,0.0
542,0.0
592,4746877.262331866
632,32821513.5204994
686,1.0
687,1.0
688,2.0
2,21, 1,21, 0, 5,20.00,30.00,Monday
250,-0.23412360327272022
251,37828570.75364673
336,0.0
385,18.78357102435903
386,24.711349942841345
387,-0.931720307036222
388,0.0
425,0.0
450,0.0
451,0.0
452,-1.5886417206060441
453,0.0
490,0.0
515,0.0
516,0.0
542,0.0
592,4734028.534436011
632,32835673.611865863
686,1.0
687,1.0
688,2.0
2,21, 1,21, 0, 5,30.00,40.00,Monday
250,-0.23408127453903224
251,37829872.777969554
336,0.0
385,18.78357102435903
386,24.711349942841345
387,-0.9324801708355553
388,0.0
425,0.0
450,0.0
451,0.0
452,-1.5762363551740557
453,0.0
490,0.0
515,0.0
516,0.0
542,0.0
592,4721174.671927155
632,32849829.476809714
686,1.0
687,1.0
688,2.0
2,21, 1,21, 0, 5,40.00,50.00,Monday
250,-0.2340390454323921
251,37831177.24162096
336,0.0
385,18.78357102435903
386,24.711349942841345
387,-0.9333668214598835
388,0.0
425,0.0
450,0.0
451,0.0
452,-1.5639694613761055
453,0.0
490,0.0
515,0.0
516,0.0
542,0.0
592,4708315.671727969
632,32863992.88779662
686,1.0
687,1.0
688,2.0
2,21, 1,21, 0, 5,50.00,60.00,Monday
250,-0.23399696417591087
251,37832482.479402736
336,0.0
385,18.78357102435903
386,24.711349942841345
387,-0.934300878512915
388,0.0
425,0.0
450,0.0
451,0.0
452,-1.5519920181379891
453,0.0
490,0.0
515,0.0
516,0.0
542,0.0
592,4695451.530758674
632,32878162.18770465
686,1.0
687,1.0
688,2.0
2,21, 1,21, 0, 6, 0.00,10.00,Monday
250,-0.23395308520502348
251,37833787.24777143
336,0.0
385,18.78357102435903
386,24.711349942841345
387,-0.9353689137946978
388,0.0
425,0.0
450,0.0
451,0.0
452,-1.5410001811625333
453,0.0
490,0.0
515,0.0
516,0.0
542,0.0
592,4695264.08225586
632,32879655.37376901
686,1.0
687,1.0
688,2.0
2,21, 1,21, 0, 6,10.00,20.00,Monday
250,-0.23392117914406904
251,37833829.40845781
336,0.0
385,18.78357102435903
386,24.711349942841345
387,-0.9366544286302448
388,0.0
425,0.0
450,0.0
451,0.0
452,-1.5318073119720308
453,0.0
490,0.0
515,0.0
516,0.0
542,0.0
592,4695076.569900009
632,32879878.59724357
686,1.0
687,1.0
688,2.0
2,21, 1,21, 0, 6,20.00,30.00,Monday
250,-0.233889607700303
251,37833844.74567333
336,0.0
385,18.78357102435903
386,24.711349942841345
387,-0.9381518447576735
388,0.0
425,0.0
450,0.0
451,0.0
452,-1.5247396050937772
453,0.0
490,0.0
515,0.0
516,0.0
542,0.0
592,4694888.993658494
632,32880081.3304625
686,1.0
687,1.0
688,2.0
2,21, 1,21, 0, 6,30.00,40.00,Monday
250,-0.23385755913679804
251,37833869.55482065
336,0.0
385,18.78357102435903
386,24.711349942841345
387,-0.9398191682169443
388,0.0
425,0.0
450,0.0
451,0.0
452,-1.5195905815289126
453,0.0
490,0.0
515,0.0
516,0.0
542,0.0
592,4694701.353498662
632,32880294.036805432
686,1.0
687,1.0
688,2.0
2,21, 1,21, 0, 6,40.00,50.00,Monday
250,-0.2338251942561749
251,37833892.346452296
336,0.0
385,18.78357102435903
386,24.711349942841345
387,-0.9416244614561754
388,0.0
425,0.0
450,0.0
451,0.0
452,-1.5159105652776141
453,0.0
490,0.0
515,0.0
516,0.0
542,0.0
592,4694513.649387832
632,32880504.70296148
686,1.0
687,1.0
688,2.0
2,21, 1,21, 0, 6,50.00,60.00,Monday
250,-0.23379245134016394
251,37833914.78096408
336,0.0
385,18.78357102435903
386,24.711349942841345
387,-0.9435505627886625
388,0.0
425,0.0
450,0.0
451,0.0
452,-1.5132792743480454
453,0.0
490,0.0
515,0.0
516,0.0
542,0.0
592,4694325.88129331
632,32880715.109228376
686,1.0
687,1.0
688,2.0
2,21, 1,21, 0, 7, 0.00,10.00,Monday
250,-0.23463068868513676
251,37834406.44290403
336,0.0
385,18.78357102435903
386,24.711349942841345
387,-0.9480203308262308
388,0.0
425,0.0
450,0.0
451,0.0
452,-1.5165639562249078
453,0.0
490,0.0
515,0.0
516,0.0
542,0.0
592,4723573.583255435
632,32851489.884424265
686,1.0
687,1.0
688,2.0
2,21, 1,21, 0, 7,10.00,20.00,Monday
250,-0.23460458428368558
251,37831506.380746745
336,0.0
385,18.78357102435903
386,24.711349942841345
387,-0.9572076018701029
388,0.0
425,0.0
450,0.0
451,0.0
452,-1.5352372447432099
453,0.0
490,0.0
515,0.0
516,0.0
542,0.0
592,4752837.186047653
632,32819791.827128448
686,1.0
687,1.0
688,2.0
2,21, 1,21, 0, 7,20.00,30.00,Monday
250,-0.2345518741425489
251,37828528.15885142
336,0.0
385,18.78357102435903
386,24.711349942841345
387,-0.9713528570789595
388,0.0
425,0.0
450,0.0
451,0.0
452,-1.5746701091005981
453,0.0
490,0.0
515,0.0
516,0.0
542,0.0
592,4782116.702651945
632,32787548.417459052
686,1.0
687,1.0
688,2.0
2,21, 1,21, 0, 7,30.00,40.00,Monday
250,-0.23450559404457724
251,37825574.20359056
336,0.0
385,18.78357102435903
386,24.711349942841345
387,-0.98950067129163
388,0.0
425,0.0
450,0.0
451,0.0
452,-1.632481440532441
453,0.0
490,0.0
515,0.0
516,0.0
542,0.0
592,4811412.146064443
632,32755295.55361622
686,1.0
687,1.0
688,2.0
2,21, 1,21, 0, 7,40.00,50.00,Monday
250,-0.23445719195597967
251,37822613.23177406
336,0.0
385,18.78357102435903
386,24.711349942841345
387,-1.0105719756289506
388,0.0
425,0.0
450,0.0
451,0.0
452,-1.7024165026324554
453,0.0
490,0.0
515,0.0
516,0.0
542,0.0
592,4840723.52929546
632,32723024.33936777
686,1.0
687,1.0
688,2.0
2,21, 1,21, 0, 7,50.00,60.00,Monday
250,-0.23440798204813268
251,37819649.85269172
336,0.0
385,18.78357102435903
386,24.711349942841345
387,-1.0338195855150762
388,0.0
425,0.0
450,0.0
451,0.0
452,-1.7787812059797437
453,0.0
490,0.0
515,0.0
516,0.0
542,0.0
592,4870050.865369484
632,32690734.057179954
686,1.0
687,1.0
688,2.0
2,21, 1,21, 0, 8, 0.00,10.00,Monday
250,-0.034048453187720214
251,37708830.72851994
336,0.0
385,18.78357102435903
386,24.711349942841345
387,-1.029927649236875
388,0.0
425,0.0
450,0.0
451,0.0
452,-1.837735426066267
453,0.0
490,0.0
515,0.0
516,0.0
542,0.0
592,4889730.300311493
632,32668089.71945137
686,1.0
687,1.0
688,2.0
2,21, 1,21, 0, 8,10.00,20.00,Monday
250,0.16644520260237922
251,37603169.098740354
336,0.0
385,18.78357102435903
386,24.711349942841345
387,-0.9883708503722058
388,0.0
425,0.0
450,0.0
451,0.0
452,-1.8289088305455352
453,0.0
490,0.0
515,0.0
516,0.0
542,0.0
592,4909380.719869503
632,32542856.467236124
686,1.0
687,1.0
688,2.0
2,21, 1,21, 0, 8,20.00,30.00,Monday
250,0.3651266488733641
251,37498593.42518874
336,0.0
385,18.78357102435903
386,24.711349942841345
387,-0.917354396224568
388,0.0
425,0.0
450,0.0
451,0.0
452,-1.7215207926086329
453,0.0
490,0.0
515,0.0
516,0.0
542,0.0
592,4929009.6156952735
632,32417682.950679768
686,1.0
687,1.0
688,2.0
2,21, 1,21, 0, 8,30.00,40.00,Monday
250,0.5643293310879978
251,37393696.15219696
336,0.0
385,18.78357102435903
386,24.711349942841345
387,-0.8270404327555059
388,0.0
425,0.0
450,0.0
451,0.0
452,-1.5259739069921254
453,0.0
490,0.0
515,0.0
516,0.0
542,0.0
592,4952863.6467726575
632,32289219.144446615
686,1.0
687,1.0
688,2.0
2,21, 1,21, 0, 8,40.00,50.00,Monday
250,0.763610924011028
251,37288352.57295063
336,0.0
385,18.78357102435903
386,24.711349942841345
387,-0.7254061060986418
388,0.0
425,0.0
450,0.0
451,0.0
452,-1.2503797339807152
453,0.0
490,0.0
515,0.0
516,0.0
542,0.0
592,4977062.298687914
632,32159725.099954158
686,1.0
687,1.0
688,2.0
2,21, 1,21, 0, 8,50.00,60.00,Monday
250,0.9635453630725657
251,37183586.32166798
336,0.0
385,18.78357102435903
386,24.711349942841345
387,-0.629507530832181
388,0.0
425,0.0
450,0.0
451,0.0
452,-0.9373668401945355
453,0.0
490,0.0
515,0.0
516,0.0
542,0.0
592,5001395.306277511
632,31977828.701787695
686,1.0
687,1.0
688,2.0
2,21, 1,21, 0, 9, 0.00,10.00,Monday
250,1.2291455136656482
251,37044491.78534813
336,0.0
385,18.78357102435903
386,24.711349942841345
387,-0.4911046397460827
388,0.0
425,0.0
450,0.0
451,0.0
452,-0.45791667777063993
453,0.0
490,0.0
515,0.0
516,0.0
542,0.0
592,5029363.153609448
632,31827471.277014412
686,1.0
687,1.0
688,2.0
2,21, 1,21, 0, 9,10.00,20.00,Monday
250,1.494628406474424
251,36904512.63616413
336,0.0
385,18.78357102435903
386,24.711349942841345
387,-0.3403033541725152
388,0.0
425,0.0
450,0.0
451,0.0
452,0.06631024596943608
453,0.0
490,0.0
515,0.0
516,0.0
542,0.0
592,5057356.862312016
632,31659470.287918944
686,1.0
687,1.0
688,2.0
2,21, 1,21, 0, 9,20.00,30.00,Monday
250,1.7602364742546526
251,36764461.043248475
336,0.0
385,18.78357102435903
386,24.711349942841345
387,-0.18039967114217714
388,0.0
425,0.0
450,0.0
451,0.0
452,0.6310025401438155
453,0.0
490,0.0
515,0.0
516,0.0
542,0.0
592,5085392.284952975
632,31491417.46193613
686,1.0
687,1.0
688,2.0
2,21, 1,21, 0, 9,30.00,40.00,Monday
250,2.0257960149262706
251,36624433.68827891
336,0.0
385,18.78357102435903
386,24.711349942841345
387,-0.010657602715775321
388,0.0
425,0.0
450,0.0
451,0.0
452,1.225631932643624
453,0.0
490,0.0
515,0.0
516,0.0
542,0.0
592,5113485.892141593
632,31323284.94660244
686,1.0
687,1.0
688,2.0
2,21, 1,21, 0, 9,40.00,50.00,Monday
250,2.2915985254982054
251,36483289.254327476
336,0.0
385,18.783571024359045
386,24.711349942841366
387,0.13450640577315098
388,0.0
425,0.0
450,0.0
451,0.0
452,1.7273717946014862
453,0.0
490,0.0
515,0.0
516,0.0
542,0.0
592,5141654.529350725
632,31130503.089577273
686,1.0000000000000009
687,1.0000000000000009
688,2.0000000000000018
2,21, 1,21, 0, 9,50.00,60.00,Monday
250,2.557535044740005
251,36342521.4177304
336,0.0
385,18.78357102435903
386,24.711349942841345
387,0.2866589513258339
388,0.0
425,0.0
450,0.0
451,0.0
452,2.267906935846373
453,0.0
490,0.0
515,0.0
516,0.0
542,0.0
592,5169915.672059793
632,30986278.17906
686,1.0
687,1.0
688,2.0
2,21, 1,21, 0,10, 0.00,10.00,Monday
250,3.0202557030525092
251,36097009.90786514
336,0.0
385,18.78357102435903
386,24.711349942841345
387,0.4771315451645492
388,0.0
425,0.0
450,0.0
451,0.0
452,2.8272504331118844
453,0.0
490,0.0
515,0.0
516,0.0
542,0.0
592,5241404.10703412
632,30679907.880888283
686,1.0
687,1.0
688,2.0
2,21, 1,21, 0,10,10.00,20.00,Monday
250,3.483985948814182
251,35851571.28930624
336,0.0
385,18.78357102435903
386,24.711349942841345
387,0.7681778293904146
388,0.0
425,0.0
450,0.0
451,0.0
452,3.582148569549582
453,0.0
490,0.0
515,0.0
516,0.0
542,0.0
592,5315291.857316207
632,30359722.997242317
686,1.0
687,1.0
688,2.0
2,21, 1,21, 0,10,20.00,30.00,Monday
250,3.9480172196164833
251,35604704.95404133
336,0.0
385,18.783571024359023
386,24.711349942841334
387,1.0485627503212998
388,0.0
425,0.0
450,0.0
451,0.0
452,4.271124775708981
453,0.0
490,0.0
515,0.0
516,0.0
542,0.0
592,5391793.298050374
632,30036451.75237159
686,0.9999999999999996
687,0.9999999999999996
688,1.9999999999999991
2,21, 1,21, 0,10,30.00,40.00,Monday
250,4.4122254095796185
251,35357609.72646408
336,0.0
385,18.783571024359038
386,24.711349942841355
387,1.3303257106618063
388,0.0
425,0.0
450,0.0
451,0.0
452,4.972951013800211
453,0.0
490,0.0
515,0.0
516,0.0
542,0.0
592,5471132.199313744
632,29710093.88631592
686,1.0000000000000004
687,1.0000000000000004
688,2.000000000000001
2,21, 1,21, 0,10,40.00,50.00,Monday
250,4.876677881596767
251,35110242.26366339
336,0.0
385,18.783571024359045
386,24.711349942841366
387,1.6204602994488133
388,0.0
425,0.0
450,0.0
451,0.0
452,5.737026828333719
453,0.0
490,0.0
515,0.0
516,0.0
542,0.0
592,5553542.3757593315
632,29380406.897044122
686,1.0000000000000009
687,1.0000000000000009
688,2.0000000000000018
2,21, 1,21, 0,10,50.00,60.00,Monday
250,5.3411443304413275
251,34862719.94361405
336,0.0
385,18.783571024359045
386,24.711349942841366
387,1.9206807826313286
388,0.0
425,0.0
450,0.0
451,0.0
452,6.566092254297067
453,0.0
490,0.0
515,0.0
516,0.0
542,0.0
592,5639267.778995938
632,29047210.64931804
686,1.0000000000000009
687,1.0000000000000009
688,2.0000000000000018
2,21, 1,21, 0,11, 0.00,10.00,Monday
250,5.624653460613768
251,34711855.980881795
336,0.0
385,18.78357102435903
386,24.711349942841345
387,2.207186589330374
388,0.0
425,0.0
450,0.0
451,0.0
452,7.42131437075324
453,0.0
490,0.0
515,0.0
516,0.0
542,0.0
592,5689519.861596227
632,28813826.067249835
686,1.0
687,1.0
688,2.0
2,21, 1,21, 0,11,10.00,20.00,Monday
250,5.907387233190656
251,34561349.6718678
336,0.0
385,18.78357102435903
386,24.711349942841345
387,2.4769541172320686
388,0.0
425,0.0
450,0.0
451,0.0
452,8.271840436898515
453,0.0
490,0.0
515,0.0
516,0.0
542,0.0
592,5740969.350869594
632,28611744.637402847
686,1.0
687,1.0
688,2.0
2,21, 1,21, 0,11,20.00,30.00,Monday
250,6.1901798198909574
251,34410762.67403896
336,0.0
385,18.783571024359023
386,24.711349942841334
387,2.749112910066841
388,0.0
425,0.0
450,0.0
451,0.0
452,9.118451338847455
453,0.0
490,0.0
515,0.0
516,0.0
542,0.0
592,5793671.0952822175
632,28408482.953880556
686,0.9999999999999996
687,0.9999999999999996
688,1.9999999999999991
2,21, 1,21, 0,11,30.00,40.00,Monday
250,6.472689256405573
251,34260275.42824136
336,0.0
385,18.783571024359038
386,24.711349942841355
387,3.0264465056549628
388,0.0
425,0.0
450,0.0
451,0.0
452,9.940315485792784
453,0.0
490,0.0
515,0.0
516,0.0
542,0.0
592,5847681.4279665835
632,28203951.86613495
686,1.0000000000000004
687,1.0000000000000004
688,2.000000000000001
2,21, 1,21, 0,11,40.00,50.00,Monday
250,6.755075963591553
251,34109800.45885638
336,0.0
385,18.783571024359045
386,24.711349942841366
387,3.305553380299644
388,0.0
425,0.0
450,0.0
451,0.0
452,10.685865027440007
453,0.0
490,0.0
515,0.0
516,0.0
542,0.0
592,5903058.082199926
632,27998096.073844023
686,1.0000000000000009
687,1.0000000000000009
688,2.0000000000000018
2,21, 1,21, 0,11,50.00,60.00,Monday
250,7.037296802152952
251,33959359.55887018
336,0.0
385,18.783571024359045
386,24.711349942841366
387,3.5825809690181627
388,0.0
425,0.0
450,0.0
451,0.0
452,11.321651414398065
453,0.0
490,0.0
515,0.0
516,0.0
542,0.0
592,5959860.237244541
632,27790841.57688216
686,1.0000000000000009
687,1.0000000000000009
688,2.0000000000000018
2,21, 1,21, 0,12, 0.00,10.00,Monday
250,7.3039566068502
251,33817238.53717323
336,0.0
385,18.78357102435903
386,24.711349942841345
387,3.822581733270921
388,0.0
425,0.0
450,0.0
451,0.0
452,11.820779245784951
453,0.0
490,0.0
515,0.0
516,0.0
542,0.0
592,5991096.197635708
632,27640068.03195644
686,1.0
687,1.0
688,2.0
2,21, 1,21, 0,12,10.00,20.00,Monday
250,7.568949434790019
251,33679491.9213078
336,0.0
385,18.78357102435903
386,24.711349942841345
387,4.114972583751644
388,0.0
425,0.0
450,0.0
451,0.0
452,12.384769491620919
453,0.0
490,0.0
515,0.0
516,0.0
542,0.0
592,7572016.881221027
632,25919542.01880706
686,1.0
687,1.0
688,2.0
2,21, 1,21, 0,12,20.00,30.00,Monday
250,7.8347808979182405
251,33539579.05849746
336,0.0
385,18.78357102435903
386,24.711349942841345
387,4.384093174120906
388,0.0
425,0.0
450,0.0
451,0.0
452,12.899958291895384
453,0.0
490,0.0
515,0.0
516,0.0
542,0.0
592,7609409.155487607
632,25742451.13553547
686,1.0
687,1.0
688,2.0
2,21, 1,21, 0,12,30.00,40.00,Monday
250,8.100504100919366
251,33399726.1042709
336,0.0
385,18.78357102435903
386,24.711349942841345
387,4.642909550275366
388,0.0
425,0.0
450,0.0
451,0.0
452,13.391633545981751
453,0.0
490,0.0
515,0.0
516,0.0
542,0.0
592,7646583.592010486
632,25565394.44832785
686,1.0
687,1.0
688,2.0
2,21, 1,21, 0,12,40.00,50.00,Monday
250,8.366190250051499
251,33259892.808974795
336,0.0
385,18.78357102435903
386,24.711349942841345
387,4.897338685917932
388,0.0
425,0.0
450,0.0
451,0.0
452,13.833582744451524
453,0.0
490,0.0
515,0.0
516,0.0
542,0.0
592,7683540.190789655
632,25388594.71520167
686,1.0
687,1.0
688,2.0
2,21, 1,21, 0,12,50.00,60.00,Monday
250,8.631864825482078
251,33120064.9683188
336,0.0
385,18.78357102435903
386,24.711349942841345
387,5.1462881434652346
388,0.0
425,0.0
450,0.0
451,0.0
452,14.201376455318288
453,0.0
490,0.0
515,0.0
516,0.0
542,0.0
592,7720278.951825121
632,25212025.489577994
686,1.0
687,1.0
688,2.0
2,21, 1,21, 0,13, 0.00,10.00,Monday
250,8.81474108496273
251,33021474.74116443
336,0.0
385,18.78357102435903
386,24.711349942841345
387,5.378678456764652
388,0.0
425,0.0
450,0.0
451,0.0
452,14.492628987199227
453,0.0
490,0.0
515,0.0
516,0.0
542,0.0
592,7745410.487127085
632,25113445.310813874
686,1.0
687,1.0
688,2.0
2,21, 1,21, 0,13,10.00,20.00,Monday
250,8.99713597563084
251,32927077.14366275
336,0.0
385,18.78357102435903
386,24.711349942841345
387,5.59746925475091
388,0.0
425,0.0
450,0.0
451,0.0
452,14.721883840873007
453,0.0
490,0.0
515,0.0
516,0.0
542,0.0
592,7770439.060057996
632,24996196.633271053
686,1.0
687,1.0
688,2.0
2,21, 1,21, 0,13,20.00,30.00,Monday
250,9.180170651112897
251,32832457.065350294
336,0.0
385,18.78357102435903
386,24.711349942841345
387,5.802374626749849
388,0.0
425,0.0
450,0.0
451,0.0
452,14.905059702136084
453,0.0
490,0.0
515,0.0
516,0.0
542,0.0
592,7795364.670617863
632,24877008.841628097
686,1.0
687,1.0
688,2.0
2,21, 1,21, 0,13,30.00,40.00,Monday
250,9.363006491676103
251,32737973.457514685
336,0.0
385,18.78357102435903
386,24.711349942841345
387,5.99741427046497
388,0.0
425,0.0
450,0.0
451,0.0
452,15.053930143297979
453,0.0
490,0.0
515,0.0
516,0.0
542,0.0
592,7820187.318806678
632,24757607.96336901
686,1.0
687,1.0
688,2.0
2,21, 1,21, 0,13,40.00,50.00,Monday
250,9.545849887087945
251,32643519.343220606
336,0.0
385,18.78357102435903
386,24.711349942841345
387,6.186338358119073
388,0.0
425,0.0
450,0.0
451,0.0
452,15.173251978134092
453,0.0
490,0.0
515,0.0
516,0.0
542,0.0
592,7844907.0046244515
632,24638451.136216953
686,1.0
687,1.0
688,2.0
2,21, 1,21, 0,13,50.00,60.00,Monday
250,9.728683305392108
251,32549103.748934165
336,0.0
385,18.78357102435903
386,24.711349942841345
387,6.370447162331276
388,0.0
425,0.0
450,0.0
451,0.0
452,15.266662329582765
453,0.0
490,0.0
515,0.0
516,0.0
542,0.0
592,7869523.72807117
632,24519426.50325025
686,1.0
687,1.0
688,2.0
2,21, 1,21, 0,14, 0.00,10.00,Monday
250,9.92857935765346
251,32445505.61086508
336,0.0
385,18.78357102435903
386,24.711349942841345
387,6.552579319668026
388,0.0
425,0.0
450,0.0
451,0.0
452,15.322762802783586
453,0.0
490,0.0
515,0.0
516,0.0
542,0.0
592,7896260.907308882
632,24398320.23191509
686,1.0
687,1.0
688,2.0
2,21, 1,21, 0,14,10.00,20.00,Monday
250,10.128007442397799
251,32341765.77516321
336,0.0
385,18.78357102435903
386,24.711349942841345
387,6.732866443725805
388,0.0
425,0.0
450,0.0
451,0.0
452,15.323234276899399
453,0.0
490,0.0
515,0.0
516,0.0
542,0.0
592,7922875.552815756
632,24267726.232437525
686,1.0
687,1.0
688,2.0
2,21, 1,21, 0,14,20.00,30.00,Monday
250,10.327286425470277
251,32238117.62444889
336,0.0
385,18.78357102435903
386,24.711349942841345
387,6.909151091908501
388,0.0
425,0.0
450,0.0
451,0.0
452,15.267609531150423
453,0.0
490,0.0
515,0.0
516,0.0
542,0.0
592,7949367.664591796
632,24137518.781868163
686,1.0
687,1.0
688,2.0
2,21, 1,21, 0,14,30.00,40.00,Monday
250,10.526468291578375
251,32134547.465083335
336,0.0
385,18.78357102435903
386,24.711349942841345
387,7.075481589633199
388,0.0
425,0.0
450,0.0
451,0.0
452,15.14536361202456
453,0.0
490,0.0
515,0.0
516,0.0
542,0.0
592,7975737.242637001
632,24007540.099467017
686,1.0
687,1.0
688,2.0
2,21, 1,21, 0,14,40.00,50.00,Monday
250,10.725563021126472
251,32031046.22485956
336,0.0
385,18.78357102435903
386,24.711349942841345
387,7.228164265382576
388,0.0
425,0.0
450,0.0
451,0.0
452,14.936775927249434
453,0.0
490,0.0
515,0.0
516,0.0
542,0.0
592,8001984.286951375
632,23877758.414179347
686,1.0
687,1.0
688,2.0
2,21, 1,21, 0,14,50.00,60.00,Monday
250,10.9245976152585
251,31927599.901320584
336,0.0
385,18.78357102435903
386,24.711349942841345
387,7.367489149966411
388,0.0
425,0.0
450,0.0
451,0.0
452,14.644886520401037
453,0.0
490,0.0
515,0.0
516,0.0
542,0.0
592,8028108.797534915
632,23748168.927922554
686,1.0
687,1.0
688,2.0
2,21, 1,21, 0,15, 0.00,10.00,Monday
250,11.19003746873502
251,31789015.67757697
336,0.0
385,18.78357102435903
386,24.711349942841345
387,7.488459117372781
388,0.0
425,0.0
450,0.0
451,0.0
452,14.349544503201646
453,0.0
490,0.0
515,0.0
516,0.0