Program Version,EnergyPlus, Version 24.2.0-94a887817b, YMD=2025.02.04 17:10
1,5,Environment Title[],Latitude[deg],Longitude[deg],Time Zone[],Elevation[m]
2,8,Day of Simulation[],Month[],Day of Month[],DST Indicator[1=yes 0=no],Hour[],StartMinute[],EndMinute[],DayType
3,5,Cumulative Day of Simulation[],Month[],Day of Month[],DST Indicator[1=yes 0=no],DayType  ! When Daily Report Variables Requested
4,2,Cumulative Days of Simulation[],Month[]  ! When Monthly Report Variables Requested
5,1,Cumulative Days of Simulation[] ! When Run Period Report Variables Requested
6,1,Calendar Year of Simulation[] ! When Annual Report Variables Requested
250,1,LIVING ZONE,Zone Air Temperature [C] !TimeStep,REPORTSCH
251,1,LIVING ZONE,Zone Air System Sensible Heating Energy [J] !TimeStep,REPORTSCH
336,1,LIVING ZONE,Zone Air System Sensible Cooling Energy [J] !TimeStep,REPORTSCH
385,1,LIVING ZONE,Zone Thermostat Heating Setpoint Temperature [C] !TimeStep,REPORTSCH
386,1,LIVING ZONE,Zone Thermostat Cooling Setpoint Temperature [C] !TimeStep,REPORTSCH
387,1,GARAGE ZONE,Zone Air Temperature [C] !TimeStep,REPORTSCH
388,1,GARAGE ZONE,Zone Air System Sensible Heating Energy [J] !TimeStep,REPORTSCH
425,1,GARAGE ZONE,Zone Air System Sensible Cooling Energy [J] !TimeStep,REPORTSCH
450,1,GARAGE ZONE,Zone Thermostat Heating Setpoint Temperature [C] !TimeStep,REPORTSCH
451,1,GARAGE ZONE,Zone Thermostat Cooling Setpoint Temperature [C] !TimeStep,REPORTSCH
452,1,ATTIC ZONE,Zone Air Temperature [C] !TimeStep,REPORTSCH
453,1,ATTIC ZONE,Zone Air System Sensible Heating Energy [J] !TimeStep,REPORTSCH
490,1,ATTIC ZONE,Zone Air System Sensible Cooling Energy [J] !TimeStep,REPORTSCH
515,1,ATTIC ZONE,Zone Thermostat Heating Setpoint Temperature [C] !TimeStep,REPORTSCH
516,1,ATTIC ZONE,Zone Thermostat Cooling Setpoint Temperature [C] !TimeStep,REPORTSCH
542,1,ACDXCOIL 1,Cooling Coil Total Cooling Energy [J] !TimeStep,REPORTSCH
592,1,HEAT PUMP DX HEATING COIL 1,Heating Coil Heating Energy [J] !TimeStep,REPORTSCH
632,1,SUPP HEATING COIL 1,Heating Coil Heating Energy [J] !TimeStep,REPORTSCH
686,1,TWOSPEED HEAT PUMP 1,Unitary System DX Coil Cycling Ratio [] !TimeStep,REPORTSCH
687,1,TWOSPEED HEAT PUMP 1,Unitary System DX Coil Speed Ratio [] !TimeStep,REPORTSCH
688,1,TWOSPEED HEAT PUMP 1,Unitary System DX Coil Speed Level [] !TimeStep,REPORTSCH
End of Data Dictionary
1,YEARSIMULATION,  41.98, -87.92,  -6.00, 201.00
2,21, 1,21, 0, 1, 0.00,10.00,Sunday
250,20.982846765523767
251,4881063.664240401
336,0.0
385,20.696666666666665
386,25.03
387,0.5829411809432257
388,0.0
425,0.0
450,0.0
451,0.0
452,-1.6664369273453075
453,0.0
490,0.0
515,0.0
516,0.0
542,0.0
592,2155604.0229467303
632,2645544.3549261186
686,0.4815544915633263
687,0.33333333333333326
688,0.8333333333333333
2,21, 1,21, 0, 1,10.00,20.00,Sunday
250,21.926063981419603
251,7040912.574045716
336,0.0
385,22.03
386,25.03
387,0.5562604637629353
388,0.0
425,0.0
450,0.0
451,0.0
452,-1.6559157119166095
453,0.0
490,0.0
515,0.0
516,0.0
542,0.0
592,4861850.160552332
632,2193892.2336551575
686,1.0
687,1.0
688,2.0
2,21, 1,21, 0, 1,20.00,30.00,Sunday
250,22.02295638311708
251,6319168.384402209
336,0.0
385,22.03
386,25.03
387,0.525753368034004
388,0.0
425,0.0
450,0.0
451,0.0
452,-1.6457016771187105
453,0.0
490,0.0
515,0.0
516,0.0
542,0.0
592,4847192.080805285
632,1225525.3883896517
686,1.0
687,1.0
688,2.0
2,21, 1,21, 0, 1,30.00,40.00,Sunday
250,20.97730763637481
251,4941727.839995427
336,0.0
385,20.69666666666665
386,25.02999999999998
387,0.5023968717222105
388,0.0
425,0.0
450,0.0
451,0.0
452,-1.6406219597519478
453,0.0
490,0.0
515,0.0
516,0.0
542,0.0
592,2164441.352078572
632,2694987.5799181513
686,0.4899586837476102
687,0.33333333333333287
688,0.9999999999999989
2,21, 1,21, 0, 1,40.00,50.00,Sunday
250,21.925703203568908
251,7103333.804822879
336,0.0
385,22.03
386,25.03
387,0.47809290415469075
388,0.0
425,0.0
450,0.0
451,0.0
452,-1.6370998500037865
453,0.0
490,0.0
515,0.0
516,0.0
542,0.0
592,4814367.830000035
632,2305277.2404533
686,1.0
687,1.0
688,2.0
2,21, 1,21, 0, 1,50.00,60.00,Sunday
250,22.02295102055067
251,6372714.300227701
336,0.0
385,22.03
386,25.03
387,0.4495013126321411
388,0.0
425,0.0
450,0.0
451,0.0
452,-1.634745467050319
453,0.0
490,0.0
515,0.0
516,0.0
542,0.0
592,4799713.677000598
632,1326581.9212854148
686,1.0
687,1.0
688,2.0
2,21, 1,21, 0, 2, 0.00,10.00,Sunday
250,20.97545682501365
251,4983985.0468152985
336,0.0
385,20.696666666666665
386,25.03
387,0.4270735575051243
388,0.0
425,0.0
450,0.0
451,0.0
452,-1.635402245710274
453,0.0
490,0.0
515,0.0
516,0.0
542,0.0
592,2176944.5788728287
632,2722197.9506958057
686,0.4975369268943419
687,0.33333333333333326
688,1.0
2,21, 1,21, 0, 2,10.00,20.00,Sunday
250,21.925636671232027
251,7135495.942189667
336,0.0
385,22.03
386,25.03
387,0.4033704008900251
388,0.0
425,0.0
450,0.0
451,0.0
452,-1.6392826433393901
453,0.0
490,0.0
515,0.0
516,0.0
542,0.0
592,4798543.221346068
632,2353780.053097183
686,1.0
687,1.0
688,2.0
2,21, 1,21, 0, 2,20.00,30.00,Sunday
250,22.022955771081776
251,6389264.342093392
336,0.0
385,22.03
386,25.03
387,0.3750812327702813
388,0.0
425,0.0
450,0.0
451,0.0
452,-1.647702481945251
453,0.0
490,0.0
515,0.0
516,0.0
542,0.0
592,4799713.667009988
632,1343132.06456851
686,1.0
687,1.0
688,2.0
2,21, 1,21, 0, 2,30.00,40.00,Sunday
250,20.974768682171664
251,4998921.989449011
336,0.0
385,20.69666666666665
386,25.02999999999998
387,0.3525860026684514
388,0.0
425,0.0
450,0.0
451,0.0
452,-1.658273358747459
453,0.0
490,0.0
515,0.0
516,0.0
542,0.0
592,2185223.872847879
632,2728165.364172611
686,0.49988879708958356
687,0.33333333333333287
688,0.9999999999999989
2,21, 1,21, 0, 2,40.00,50.00,Sunday
250,21.925646009745464
251,7151321.452316348
336,0.0
385,22.03
386,25.03
387,0.3285324106684502
388,0.0
425,0.0
450,0.0
451,0.0
452,-1.6722541868867806
453,0.0
490,0.0
515,0.0
516,0.0
542,0.0
592,4798541.826437008
632,2369809.3456900623
686,1.0
687,1.0
688,2.0
2,21, 1,21, 0, 2,50.00,60.00,Sunday
250,22.022962948456655
251,6402300.130182664
336,0.0
385,22.03
386,25.03
387,0.29959762576728555
388,0.0
425,0.0
450,0.0
451,0.0
452,-1.6912636535972994
453,0.0
490,0.0
515,0.0
516,0.0
542,0.0
592,4799713.66802742
632,1356161.677039811
686,1.0
687,1.0
688,2.0
2,21, 1,21, 0, 3, 0.00,10.00,Sunday
250,20.973752744961246
251,5020904.62456619
336,0.0
385,20.696666666666665
386,25.03
387,0.2771111186220613
388,0.0
425,0.0
450,0.0
451,0.0
452,-1.7061650565021758
453,0.0
490,0.0
515,0.0
516,0.0
542,0.0
592,2197421.321500693
632,2736935.1869077086
686,0.5033534835745203
687,0.33333333333333326
688,1.0
2,21, 1,21, 0, 3,10.00,20.00,Sunday
250,21.92564571341031
251,7185160.435704064
336,0.0
385,22.03
386,25.03
387,0.2538513796947983
388,0.0
425,0.0
450,0.0
451,0.0
452,-1.7182132821244718
453,0.0
490,0.0
515,0.0
516,0.0
542,0.0
592,4798539.798381021
632,2403937.073610327
686,1.0
687,1.0
688,2.0
2,21, 1,21, 0, 3,20.00,30.00,Sunday
250,22.0229742728861
251,6444095.188779329
336,0.0
385,22.03
386,25.03
387,0.22693196360506926
388,0.0
425,0.0
450,0.0
451,0.0
452,-1.7259795621021743
453,0.0
490,0.0
515,0.0
516,0.0
542,0.0
592,4799713.672971069
632,1397951.5045695351
686,1.0
687,1.0
688,2.0
2,21, 1,21, 0, 3,30.00,40.00,Sunday
250,20.97184340739558
251,5061557.134335946
336,0.0
385,20.69666666666665
386,25.02999999999998
387,0.20680963641782885
388,0.0
425,0.0
450,0.0
451,0.0
452,-1.725623115442169
453,0.0
490,0.0
515,0.0
516,0.0
542,0.0
592,2220033.3008879954
632,2753413.1729084733
686,0.5078327879682631
687,0.3387217444431001
688,1.1666666666666659
2,21, 1,21, 0, 3,40.00,50.00,Sunday
250,21.925565449043418
251,7227098.425092098
336,0.0
385,22.03
386,25.03
387,0.1863636779762717
388,0.0
425,0.0
450,0.0
451,0.0
452,-1.7215790568902072
453,0.0
490,0.0
515,0.0
516,0.0
542,0.0
592,4798535.964311421
632,2446397.593813828
686,1.0
687,1.0
688,2.0
2,21, 1,21, 0, 3,50.00,60.00,Sunday
250,22.022980163121748
251,6482594.138494082
336,0.0
385,22.03
386,25.03
387,0.16297229208100492
388,0.0
425,0.0
450,0.0
451,0.0
452,-1.7131314522161505
453,0.0
490,0.0
515,0.0
516,0.0
542,0.0
592,4799713.669911618
632,1436453.7298114873
686,1.0
687,1.0
688,2.0
2,21, 1,21, 0, 4, 0.00,10.00,Sunday
250,20.966993586834967
251,5162149.18374783
336,0.0
385,20.696666666666665
386,25.03
387,0.14108855199668469
388,0.0
425,0.0
450,0.0
451,0.0
452,-1.7054688465332115
453,0.0
490,0.0
515,0.0
516,0.0
542,0.0
592,2274692.4757379927
632,2796579.264498668
686,0.513225468171545
687,0.36854406032243275
688,1.1666666666666667
2,21, 1,21, 0, 4,10.00,20.00,Sunday
250,21.925335584430066
251,7392912.726338561
336,0.0
385,22.03
386,25.03
387,0.11455838378530649
388,0.0
425,0.0
450,0.0
451,0.0
452,-1.6987250353858965
453,0.0
490,0.0
515,0.0
516,0.0
542,0.0
592,4789679.503658339
632,2622371.4062493746
686,1.0
687,1.0
688,2.0
2,21, 1,21, 0, 4,20.00,30.00,Sunday
250,22.023000336846266
251,6707511.43546035
336,0.0
385,22.03
386,25.03
387,0.07985928780378308
388,0.0
425,0.0
450,0.0
451,0.0
452,-1.6941166886770516
453,0.0
490,0.0
515,0.0
516,0.0
542,0.0
592,4785748.964340586
632,1675353.346633282
686,1.0
687,1.0
688,2.0
2,21, 1,21, 0, 4,30.00,40.00,Sunday
250,20.9559214904291
251,5390910.132064008
336,0.0
385,20.69666666666665
386,25.02999999999998
387,0.050603718337535845
388,0.0
425,0.0
450,0.0
451,0.0
452,-1.695645104187332
453,0.0
490,0.0
515,0.0
516,0.0
542,0.0
592,2397559.4045663616
632,2896497.328179916
686,0.5255056406013153
687,0.43694095062403393
688,1.1666666666666659
2,21, 1,21, 0, 4,40.00,50.00,Sunday
250,21.31573422284932
251,5324274.549397339
336,0.0
385,21.36333333333335
386,25.030000000000022
387,0.01940661954236238
388,0.0
425,0.0
450,0.0
451,0.0
452,-1.7020610082962055
453,0.0
490,0.0
515,0.0
516,0.0
542,0.0
592,3246563.367248566
632,2074596.0287997802
686,0.6848278449532337
687,0.6666666666666672
688,1.6666666666666679
2,21, 1,21, 0, 4,50.00,60.00,Sunday
250,21.55202879177632
251,6724926.620906064
336,0.0
385,22.03
386,25.03
387,-0.020558662791038903
388,0.0
425,0.0
450,0.0
451,0.0
452,-1.7134327004687309
453,0.0
490,0.0
515,0.0
516,0.0
542,0.0
592,4766135.58830213
632,2512356.7564916005
686,1.0
687,1.0
688,2.0
2,21, 1,21, 0, 5, 0.00,10.00,Sunday
250,21.984708968686704
251,7783402.62341131
336,0.0
385,22.03
386,25.03
387,-0.04902889935776847
388,0.0
425,0.0
450,0.0
451,0.0
452,-1.7219004520631636
453,0.0
490,0.0
515,0.0
516,0.0
542,0.0
592,4764449.786959732
632,2885298.7118714494
686,1.0
687,1.0
688,2.0
2,21, 1,21, 0, 5,10.00,20.00,Sunday
250,20.9446672255805
251,5585829.958702776
336,0.0
385,20.696666666666665
386,25.03
387,-0.06455918043797967
388,0.0
425,0.0
450,0.0
451,0.0
452,-1.7236260341161587
453,0.0
490,0.0
515,0.0
516,0.0
542,0.0
592,2501263.8514463403
632,2983524.534822464
686,0.5364982930034191
687,0.49780354616879013
688,1.1666666666666665
2,21, 1,21, 0, 5,20.00,30.00,Sunday
250,21.3163396122163
251,5387477.8276869655
336,0.0
385,21.363333333333326
386,25.02999999999999
387,-0.07683444341045266
388,0.0
425,0.0
450,0.0
451,0.0
452,-1.717968794542588
453,0.0
490,0.0
515,0.0
516,0.0
542,0.0
592,3245035.0598235647
632,2136466.0230133156
686,0.689252154365527
687,0.6666666666666664
688,1.666666666666666
2,21, 1,21, 0, 5,30.00,40.00,Sunday
250,21.55360652902445
251,6664341.000374408
336,0.0
385,22.029999999999994
386,25.029999999999994
387,-0.08795204502753848
388,0.0
425,0.0
450,0.0
451,0.0
452,-1.7022174152285976
453,0.0
490,0.0
515,0.0
516,0.0
542,0.0
592,4737661.731402077
632,2479431.6880828133
686,0.9999999999999997
687,0.9999999999999997
688,1.9999999999999993
2,21, 1,21, 0, 5,40.00,50.00,Sunday
250,21.98486895614133
251,7705208.654100284
336,0.0
385,22.03
386,25.03
387,-0.09486086640370721
388,0.0
425,0.0
450,0.0
451,0.0
452,-1.680295427188041
453,0.0
490,0.0
515,0.0
516,0.0
542,0.0
592,4736023.232914042
632,2835121.9283170784
686,1.0
687,1.0
688,2.0
2,21, 1,21, 0, 5,50.00,60.00,Sunday
250,20.94918092004531
251,5495085.210914135
336,0.0
385,20.696666666666637
386,25.029999999999962
387,-0.09778062091981803
388,0.0
425,0.0
450,0.0
451,0.0
452,-1.654421258632896
453,0.0
490,0.0
515,0.0
516,0.0
542,0.0
592,2440227.3443843233
632,2955336.439334023
686,0.5319530721694342
687,0.4744837607345761
688,1.166666666666665
2,21, 1,21, 0, 6, 0.00,10.00,Sunday
250,21.316219900938844
251,5370475.176397571
336,0.0
385,21.363333333333337
386,25.03
387,-0.10730230337014432
388,0.0
425,0.0
450,0.0
451,0.0
452,-1.629497661168134
453,0.0
490,0.0
515,0.0
516,0.0
542,0.0
592,3221236.083850089
632,2144211.4222929995
686,0.6876755752496628
687,0.6666666666666666
688,1.6666666666666665
2,21, 1,21, 0, 6,10.00,20.00,Sunday
250,21.554172088367274
251,6732302.37313351
336,0.0
385,22.03
386,25.03
387,-0.12616208202918183
388,0.0
425,0.0
450,0.0
451,0.0
452,-1.6091067199810105
453,0.0
490,0.0
515,0.0
516,0.0
542,0.0
592,4714357.029924509
632,2571698.2943139933
686,1.0
687,1.0
688,2.0
2,21, 1,21, 0, 6,20.00,30.00,Sunday
250,21.984996770721907
251,7847752.808535232
336,0.0
385,22.03
386,25.03
387,-0.1485854136243226
388,0.0
425,0.0
450,0.0
451,0.0
452,-1.60517235086256
453,0.0
490,0.0
515,0.0
516,0.0
542,0.0
592,4716474.804500945
632,2997089.919859793
686,1.0
687,1.0
688,2.0
2,21, 1,21, 0, 6,30.00,40.00,Sunday
250,20.937867506683514
251,5716201.476885725
336,0.0
385,20.69666666666665
386,25.02999999999998
387,-0.172372374275574
388,0.0
425,0.0
450,0.0
451,0.0
452,-1.616183684876541
453,0.0
490,0.0
515,0.0
516,0.0
542,0.0
592,2504030.2309690975
632,3112939.4552370254
686,0.5434942803458688
687,0.49999999999999967
688,1.1666666666666659
2,21, 1,21, 0, 6,40.00,50.00,Sunday
250,21.32020452360866
251,5608182.465624599
336,0.0
385,21.36333333333335
386,25.030000000000022
387,-0.20033512797525366
388,0.0
425,0.0
450,0.0
451,0.0
452,-1.6366020369296121
453,0.0
490,0.0
515,0.0
516,0.0
542,0.0
592,3275948.4920074632
632,2308375.662646828
686,0.7068447558143062
687,0.6666666666666672
688,1.6666666666666679
2,21, 1,21, 0, 6,50.00,60.00,Sunday
250,21.559071209697354
251,6943850.745349111
336,0.0
385,22.03
386,25.03
387,-0.23736837195611954
388,0.0
425,0.0
450,0.0
451,0.0
452,-1.6694012938530687
453,0.0
490,0.0
515,0.0
516,0.0
542,0.0
592,4699406.525874996
632,2793693.5699271015
686,1.0
687,1.0
688,2.0
2,21, 1,21, 0, 7, 0.00,10.00,Sunday
250,21.985541334304422
251,8028866.419838193
336,0.0
385,22.03
386,25.03
387,-0.27594996186042686
388,0.0
425,0.0
450,0.0
451,0.0
452,-1.71689962466992
453,0.0
490,0.0
515,0.0
516,0.0
542,0.0
592,4725564.875484442
632,3167837.7866238216
686,1.0
687,1.0
688,2.0
2,21, 1,21, 0, 7,10.00,20.00,Sunday
250,20.930201216983335
251,5861550.20832908
336,0.0
385,20.696666666666665
386,25.03
387,-0.3172818446272814
388,0.0
425,0.0
450,0.0
451,0.0
452,-1.7951991689200377
453,0.0
490,0.0
515,0.0
516,0.0
542,0.0
592,2546881.3534117364
632,3217942.098388909
686,0.5505008780902323
687,0.5
688,1.1666666666666665
2,21, 1,21, 0, 7,20.00,30.00,Sunday
250,21.321971198264034
251,5726843.643079097
336,0.0
385,21.363333333333326
386,25.02999999999999
387,-0.36861836640885026
388,0.0
425,0.0
450,0.0
451,0.0
452,-1.9150807338667915
453,0.0
490,0.0
515,0.0
516,0.0
542,0.0
592,3349157.502267257
632,2345295.064622103
686,0.7160297160333593
687,0.6666666666666664
688,1.666666666666666
2,21, 1,21, 0, 7,30.00,40.00,Sunday
250,21.56094189623541
251,7010469.606111599
336,0.0
385,22.029999999999994
386,25.029999999999994
387,-0.4397699325331384
388,0.0
425,0.0
450,0.0
451,0.0
452,-2.0970053045965593
453,0.0
490,0.0
515,0.0
516,0.0
542,0.0
592,4784955.019662737
632,2772271.6806414486
686,0.9999999999999997
687,0.9999999999999997
688,1.9999999999999993
2,21, 1,21, 0, 7,40.00,50.00,Sunday
250,21.985731089884545
251,8099938.076771372
336,0.0
385,22.03
386,25.03
387,-0.5103457254666831
388,0.0
425,0.0
450,0.0
451,0.0
452,-2.293729848440452
453,0.0
490,0.0
515,0.0
516,0.0
542,0.0
592,4807326.608781878
632,3156637.244403388
686,1.0
687,1.0
688,2.0
2,21, 1,21, 0, 7,50.00,60.00,Sunday
250,20.926352963594734
251,5933436.6784885535
336,0.0
385,20.696666666666637
386,25.029999999999962
387,-0.5782265720905706
388,0.0
425,0.0
450,0.0
451,0.0
452,-2.499186659161064
453,0.0
490,0.0
515,0.0
516,0.0
542,0.0
592,2599649.053195811
632,3238433.8999478165
686,0.5533092470894319
687,0.49999999999999933
688,1.166666666666665
2,21, 1,21, 0, 8, 0.00,10.00,Sunday
250,21.322967695676404
251,5797197.781122482
336,0.0
385,21.363333333333337
386,25.03
387,-0.6473867566235139
388,0.0
425,0.0
450,0.0
451,0.0
452,-2.7208016316516117
453,0.0
490,0.0
515,0.0
516,0.0
542,0.0
592,3415590.3903525
632,2344432.3952928674
686,0.7211081177954306
687,0.6666666666666666
688,1.6666666666666665
2,21, 1,21, 0, 8,10.00,20.00,Sunday
250,21.562266026701703
251,7012624.498115758
336,0.0
385,22.03
386,25.03
387,-0.7193341491040711
388,0.0
425,0.0
450,0.0
451,0.0
452,-2.901324980211876
453,0.0
490,0.0
515,0.0
516,0.0
542,0.0
592,4845321.768989481
632,2712707.137875547
686,1.0
687,1.0
688,2.0
2,21, 1,21, 0, 8,20.00,30.00,Sunday
250,21.985843457350676
251,8061463.111983485
336,0.0
385,22.03
386,25.03
387,-0.7686094487770532
388,0.0
425,0.0
450,0.0
451,0.0
452,-2.9280475198426315
453,0.0
490,0.0
515,0.0
516,0.0
542,0.0
592,4857897.81580624
632,3067210.2092753258
686,1.0
687,1.0
688,2.0
2,21, 1,21, 0, 8,30.00,40.00,Sunday
250,20.932272686285685
251,5820918.961270705
336,0.0
385,20.69666666666665
386,25.02999999999998
387,-0.7940746074694054
388,0.0
425,0.0
450,0.0
451,0.0
452,-2.8197360853828157
453,0.0
490,0.0
515,0.0
516,0.0
542,0.0
592,2601518.9178906865
632,3122174.116768185
686,0.5474228227581429
687,0.49999999999999967
688,1.1666666666666659
2,21, 1,21, 0, 8,40.00,50.00,Sunday
250,21.319491963657118
251,5594601.591339585
336,0.0
385,21.36333333333335
386,25.030000000000022
387,-0.8073644358575922
388,0.0
425,0.0
450,0.0
451,0.0
452,-2.6057701607476442
453,0.0
490,0.0
515,0.0
516,0.0
542,0.0
592,3388316.3952706973
632,2185313.793753427
686,0.70500289279944
687,0.6666666666666672
688,1.6666666666666679
2,21, 1,21, 0, 8,50.00,60.00,Sunday
250,21.960904532616645
251,7602043.75989729
336,0.0
385,22.03
386,25.03
387,-0.8047936733563685
388,0.0
425,0.0
450,0.0
451,0.0
452,-2.2850507633334955
453,0.0
490,0.0
515,0.0
516,0.0
542,0.0
592,4889584.8427801225
632,2639413.1871480234
686,1.0
687,1.0
688,2.0
2,21, 1,21, 0, 9, 0.00,10.00,Sunday
250,20.938720813873445
251,5676162.403078349
336,0.0
385,20.696666666666665
386,25.03
387,-0.7799659437981089
388,0.0
425,0.0
450,0.0
451,0.0
452,-1.8927556057348462
453,0.0
490,0.0
515,0.0
516,0.0
542,0.0
592,2596448.9705176414
632,2980612.9064321537
686,0.5403165397954703
687,0.5
688,1.1666666666666667
2,21, 1,21, 0, 9,10.00,20.00,Sunday
250,21.316085522279536
251,5390857.772857774
336,0.0
385,21.363333333333333
386,25.03
387,-0.736015267441247
388,0.0
425,0.0
450,0.0
451,0.0
452,-1.4080382715574036
453,0.0
490,0.0
515,0.0
516,0.0
542,0.0
592,3363924.795057912
632,2021632.9044545512
686,0.6895054632010321
687,0.6666666666666667
688,1.6666666666666667
2,21, 1,21, 0, 9,20.00,30.00,Sunday
250,21.34700207046822
251,6772678.147726367
336,0.0
385,21.363333333333326
386,25.02999999999999
387,-0.6582156163647588
388,0.0
425,0.0
450,0.0
451,0.0
452,-0.6996559670328579
453,0.0
490,0.0
515,0.0
516,0.0
542,0.0
592,2824815.383526691
632,3848463.05897128
686,0.6614033309976582
687,0.3333333333333332
688,1.3333333333333328
2,21, 1,21, 0, 9,30.00,40.00,Sunday
250,21.34800493454091
251,6732181.933812251
336,0.0
385,21.363333333333344
386,25.030000000000012
387,-0.5731895477976496
388,0.0
425,0.0
450,0.0
451,0.0
452,-0.05053868560485997
453,0.0
490,0.0
515,0.0
516,0.0
542,0.0
592,2842168.5528232306
632,3786658.6095116953
686,0.6633606807444395
687,0.3333333333333332
688,1.3333333333333335
2,21, 1,21, 0, 9,40.00,50.00,Sunday
250,21.34762961137091
251,6708622.467786276
336,0.0
385,21.36333333333335
386,25.030000000000022
387,-0.493312490989492
388,0.0
425,0.0
450,0.0
451,0.0
452,0.564619416473147
453,0.0
490,0.0
515,0.0
516,0.0
542,0.0
592,2833097.1511734775
632,3774633.6721747955
686,0.657976885644225
687,0.3333333333333336
688,1.3333333333333344
2,21, 1,21, 0, 9,50.00,60.00,Sunday
250,21.963299842137154
251,7397692.032511203
336,0.0
385,22.03
386,25.03
387,-0.4221224945608274
388,0.0
425,0.0
450,0.0
451,0.0
452,1.0705213068069124
453,0.0
490,0.0
515,0.0
516,0.0
542,0.0
592,4993154.795298025
632,2324048.172063396
686,1.0
687,1.0
688,2.0
2,21, 1,21, 0,10, 0.00,10.00,Sunday
250,20.952205724881082
251,5400212.387319394
336,0.0
385,20.696666666666665
386,25.03
387,-0.35029923495301296
388,0.0
425,0.0
450,0.0
451,0.0
452,1.5324439015442755
453,0.0
490,0.0
515,0.0
516,0.0
542,0.0
592,2490825.747121733
632,2817009.3530529407
686,0.5251631165829667
687,0.41545302030688047
688,1.1666666666666667
2,21, 1,21, 0,10,10.00,20.00,Sunday
250,21.31108448057721
251,5079464.201878674
336,0.0
385,21.363333333333333
386,25.03
387,-0.26431079234897226
388,0.0
425,0.0
450,0.0
451,0.0
452,2.039842793415585
453,0.0
490,0.0
515,0.0
516,0.0
542,0.0
592,3373687.5820702687
632,1723033.6566455737
686,0.666845430612673
687,0.6666666666666667
688,1.6666666666666667
2,21, 1,21, 0,10,20.00,30.00,Sunday
250,21.341356555761035
251,6465895.53857526
336,0.0
385,21.363333333333326
386,25.02999999999999
387,-0.12983566202832036
388,0.0
425,0.0
450,0.0
451,0.0
452,2.7293094647686718
453,0.0
490,0.0
515,0.0
516,0.0
542,0.0
592,2682763.5042074365
632,3716888.603124612
686,0.5992055024601745
687,0.3333333333333332
688,1.3333333333333328
2,21, 1,21, 0,10,30.00,40.00,Sunday
250,21.341564100708105
251,6383799.259364895
336,0.0
385,21.363333333333344
386,25.030000000000012
387,0.000968994042892888
388,0.0
425,0.0
450,0.0
451,0.0
452,3.359860868382057
453,0.0
490,0.0
515,0.0
516,0.0
542,0.0
592,2680056.3433638755
632,3638037.8176158103
686,0.5937666389883139
687,0.3333333333333332
688,1.3333333333333335
2,21, 1,21, 0,10,40.00,50.00,Sunday
250,21.339812492218726
251,6280660.599763671
336,0.0
385,21.36333333333335
386,25.030000000000022
387,0.13911147572693744
388,0.0
425,0.0
450,0.0
451,0.0
452,4.036408969966235
453,0.0
490,0.0
515,0.0
516,0.0
542,0.0
592,2627792.9915041127
632,3597382.898351844
686,0.5751956575981428
687,0.3333333333333336
688,1.3333333333333344
2,21, 1,21, 0,10,50.00,60.00,Sunday
250,21.33797142498385
251,6175317.168024567
336,0.0
385,21.36333333333335
386,25.030000000000022
387,0.2950365781698424
388,0.0
425,0.0
450,0.0
451,0.0
452,4.7938818906793035
453,0.0
490,0.0
515,0.0
516,0.0
542,0.0
592,2572459.480738722
632,3557944.257738704
686,0.5560504755386315
687,0.3333333333333336
688,1.3333333333333344
2,21, 1,21, 0,11, 0.00,10.00,Sunday
250,21.33615887964663
251,6071110.913603263
336,0.0
385,21.363333333333337
386,25.03
387,0.46595100148033525
388,0.0
425,0.0
450,0.0
451,0.0
452,5.615722243456809
453,0.0
490,0.0
515,0.0
516,0.0
542,0.0
592,2512566.2509041596
632,3523908.8847859353
686,0.5378267913508545
687,0.3333333333333333
688,1.3333333333333335
2,21, 1,21, 0,11,10.00,20.00,Sunday
250,21.33431421920937
251,5964079.3152866205
336,0.0
385,21.363333333333333
386,25.03
387,0.6483017010254986
388,0.0
425,0.0
450,0.0
451,0.0
452,6.482830360033665
453,0.0
490,0.0
515,0.0
516,0.0
542,0.0
592,2451272.7872386663
632,3488582.4732238892
686,0.5193641047091029
687,0.33333333333333337
688,1.3333333333333333
2,21, 1,21, 0,11,20.00,30.00,Sunday
250,21.160662197610883
251,5090623.931054569
336,0.0
385,21.03
386,25.03
387,0.7990940153939445
388,0.0
425,0.0
450,0.0
451,0.0
452,7.255241548305985
453,0.0
490,0.0
515,0.0
516,0.0
542,0.0
592,3827941.1161090415
632,1098550.5085027115
686,0.75
687,0.6742721132314421
688,1.5
2,21, 1,21, 0,11,30.00,40.00,Sunday
250,21.11296930851961
251,5687223.308503517
336,0.0
385,21.03
386,25.03
387,1.0328962583407038
388,0.0
425,0.0
450,0.0
451,0.0
452,8.280368099940196
453,0.0
490,0.0
515,0.0
516,0.0
542,0.0
592,3010685.670278716
632,2586331.90867486
686,0.5985670723441945
687,0.5
688,1.25
2,21, 1,21, 0,11,40.00,50.00,Sunday
250,21.11626906470954
251,5514444.828910947
336,0.0
385,21.03
386,25.03
387,1.262353945371522
388,0.0
425,0.0
450,0.0
451,0.0
452,9.15329537270407
453,0.0
490,0.0
515,0.0
516,0.0
542,0.0
592,3020229.6797803817
632,2407985.451227021
686,0.5982900876231029
687,0.5
688,1.25
2,21, 1,21, 0,11,50.00,60.00,Sunday
250,21.38894075016364
251,4358350.23556748
336,0.0
385,21.36333333333335
386,25.030000000000022
387,1.4405520505137843
388,0.0
425,0.0
450,0.0
451,0.0
452,9.802597431851291
453,0.0
490,0.0
515,0.0
516,0.0
542,0.0
592,3333308.8167385357
632,1018892.4003141834
686,0.6666666666666672
687,0.5260677869840128
688,1.3333333333333344
2,21, 1,21, 0,12, 0.00,10.00,Sunday
250,21.017234240430547
251,4421757.404224061
336,0.0
385,20.830000000000002
386,25.03
387,1.6175483169494593
388,0.0
425,0.0
450,0.0
451,0.0
452,10.36813793665503
453,0.0
490,0.0
515,0.0
516,0.0
542,0.0
592,2312617.294969477
632,2153380.610355146
686,0.44896831025131234
687,0.4
688,1.0
2,21, 1,21, 0,12,10.00,20.00,Sunday
250,21.290336430542414
251,5952086.387316212
336,0.0
385,21.363333333333333
386,25.03
387,1.8049252504359143
388,0.0
425,0.0
450,0.0
451,0.0
452,10.860624225372126
453,0.0
490,0.0
515,0.0
516,0.0
542,0.0
592,3405691.9390862053
632,2630747.936634584
686,0.7541699984404944
687,0.33333333333333337
688,1.3333333333333333
2,21, 1,21, 0,12,20.00,30.00,Sunday
250,21.44560437772762
251,4365884.80901997
336,0.0
385,21.363333333333326
386,25.02999999999999
387,2.0589945644943017
388,0.0
425,0.0
450,0.0
451,0.0
452,11.359307809099493
453,0.0
490,0.0
515,0.0
516,0.0
542,0.0
592,3551160.7502646307
632,772588.3049253662
686,0.6666666666666664
687,0.6666666666666664
688,1.3333333333333328
2,21, 1,21, 0,12,30.00,40.00,Sunday
250,21.04027071273084
251,4241646.062825461
336,0.0
385,20.829999999999995
386,25.029999999999994
387,2.2039074489743307
388,0.0
425,0.0
450,0.0
451,0.0
452,11.571788072517833
453,0.0
490,0.0
515,0.0
516,0.0
542,0.0
592,2238875.3800151134
632,2043257.7728365806
686,0.4344911628250415
687,0.3806756204530566
688,0.9999999999999993
2,21, 1,21, 0,12,40.00,50.00,Sunday
250,21.288916914580923
251,5790254.576650446
336,0.0
385,21.36333333333335
386,25.030000000000022
387,2.3404017459785127
388,0.0
425,0.0
450,0.0
451,0.0
452,11.670989789888162
453,0.0
490,0.0
515,0.0
516,0.0
542,0.0
592,3302367.250107966
632,2581141.5746698803
686,0.724077174772618
687,0.3333333333333336
688,1.3333333333333344
2,21, 1,21, 0,12,50.00,60.00,Sunday
250,21.453931589339888
251,4284557.467330455
336,0.0
385,21.36333333333335
386,25.030000000000022
387,2.51185153941079
388,0.0
425,0.0
450,0.0
451,0.0
452,11.668595377050847
453,0.0
490,0.0
515,0.0
516,0.0
542,0.0
592,3565932.1117558316
632,676690.9657524542
686,0.6666666666666672
687,0.6666666666666672
688,1.3333333333333344
2,21, 1,21, 0,13, 0.00,10.00,Sunday
250,21.05042450899825
251,4138571.875436005
336,0.0
385,20.830000000000002
386,25.03
387,2.602866974347086
388,0.0
425,0.0
450,0.0
451,0.0
452,11.577037169822646
453,0.0
490,0.0
515,0.0
516,0.0
542,0.0
592,2154490.3410667353
632,2026620.654195703
686,0.42608099837652047
687,0.34085618499921505
688,1.0
2,21, 1,21, 0,13,10.00,20.00,Sunday
250,21.287339383387437
251,5617878.569332393
336,0.0
385,21.363333333333333
386,25.03
387,2.6875653756028686
388,0.0
425,0.0
450,0.0
451,0.0
452,11.484943961025458
453,0.0
490,0.0
515,0.0
516,0.0
542,0.0
592,3189479.4139256985
632,2531453.798708782
686,0.6951730154603178
687,0.33333333333333337
688,1.3333333333333333
2,21, 1,21, 0,13,20.00,30.00,Sunday
250,21.010593770248743
251,5237166.916081492
336,0.0
385,21.03
386,25.03
387,2.766399595834928
388,0.0
425,0.0
450,0.0
451,0.0
452,11.421027027657363
453,0.0
490,0.0
515,0.0
516,0.0
542,0.0
592,3165733.784204103
632,2148127.259667767
686,0.6284367041300808
687,0.5
688,1.25
2,21, 1,21, 0,13,30.00,40.00,Sunday
250,21.287663439676734
251,5540991.387844719
336,0.0
385,21.36333333333335
386,25.030000000000022
387,2.8440322674645713
388,0.0
425,0.0
450,0.0
451,0.0
452,11.381967819256522
453,0.0
490,0.0
515,0.0
516,0.0
542,0.0
592,3148305.473493099
632,2502138.359145693
686,0.685729830631667
687,0.3333333333333336
688,1.3333333333333344
2,21, 1,21, 0,13,40.00,50.00,Sunday
250,21.02281294707148
251,5036750.608806483
336,0.0
385,21.03
386,25.03
387,2.918606582139724
388,0.0
425,0.0
450,0.0
451,0.0
452,11.360361467557038
453,0.0
490,0.0
515,0.0
516,0.0
542,0.0
592,3103186.332552041
632,2006201.1973175593
686,0.6134558665333819
687,0.5
688,1.25
2,21, 1,21, 0,13,50.00,60.00,Sunday
250,21.28597631662993
251,5356976.282813695
336,0.0
385,21.36333333333335
386,25.030000000000022
387,2.993086494699438
388,0.0
425,0.0
450,0.0
451,0.0
452,11.34616245804406
453,0.0
490,0.0
515,0.0
516,0.0
542,0.0
592,3022047.094407225
632,2455453.8510199944
686,0.654433899939832
687,0.3333333333333336
688,1.3333333333333344
2,21, 1,21, 0,14, 0.00,10.00,Sunday
250,21.02846888129119
251,4923587.734664513
336,0.0
385,21.03
386,25.03
387,3.066531078585002
388,0.0
425,0.0
450,0.0
451,0.0
452,11.3036866014806
453,0.0
490,0.0
515,0.0
516,0.0
542,0.0
592,3073776.767337211
632,1920806.0950871098
686,0.6047407208805712
687,0.5
688,1.25
2,21, 1,21, 0,14,10.00,20.00,Sunday
250,21.285059295741615
251,5267001.349073775
336,0.0
385,21.363333333333333
386,25.03
387,3.1390292911488586
388,0.0
425,0.0
450,0.0
451,0.0
452,11.198636632914829
453,0.0
490,0.0
515,0.0
516,0.0
542,0.0
592,2969442.7073267475
632,2424094.2370000333
686,0.6374795812244911
687,0.33333333333333337
688,1.3333333333333333
2,21, 1,21, 0,14,20.00,30.00,Sunday
250,21.032764082789885
251,4844674.903136817
336,0.0
385,21.03
386,25.03
387,3.2050424711695102
388,0.0
425,0.0
450,0.0
451,0.0
452,11.030282115704397
453,0.0
490,0.0
515,0.0
516,0.0
542,0.0
592,3062256.2480502627
632,1852164.546752993
686,0.5984698225218232
687,0.5
688,1.25
2,21, 1,21, 0,14,30.00,40.00,Sunday
250,21.2843894533352
251,5204784.4774064375
336,0.0
385,21.36333333333335
386,25.030000000000022
387,3.2602009869338446
388,0.0
425,0.0
450,0.0
451,0.0
452,10.773388727137473
453,0.0
490,0.0
515,0.0
516,0.0
542,0.0
592,2935336.3874157774
632,2400237.4626804306
686,0.6254457327110081
687,0.3333333333333336
688,1.3333333333333344
2,21, 1,21, 0,14,40.00,50.00,Sunday
250,21.03348907983501
251,4825449.164752055