Program Version,EnergyPlus, Version 24.1.0-9d7789a3ac, YMD=2025.04.05 15:39
1,5,Environment Title[],Latitude[deg],Longitude[deg],Time Zone[],Elevation[m]
2,8,Day of Simulation[],Month[],Day of Month[],DST Indicator[1=yes 0=no],Hour[],StartMinute[],EndMinute[],DayType
3,5,Cumulative Day of Simulation[],Month[],Day of Month[],DST Indicator[1=yes 0=no],DayType  ! When Daily Meters Requested
4,2,Cumulative Days of Simulation[],Month[]  ! When Monthly Meters Requested
5,1,Cumulative Days of Simulation[] ! When Run Period Meters Requested
6,1,Calendar Year of Simulation[] ! When Annual Meters Requested
11,9,Electricity:Facility [J] !Monthly [Value,Min,Day,Hour,Minute,Max,Day,Hour,Minute]
23,9,Electricity:Building [J] !Monthly [Value,Min,Day,Hour,Minute,Max,Day,Hour,Minute]
59,9,InteriorLights:Electricity [J] !Monthly [Value,Min,Day,Hour,Minute,Max,Day,Hour,Minute]
521,9,Electricity:HVAC [J] !Monthly [Value,Min,Day,Hour,Minute,Max,Day,Hour,Minute]
637,9,NaturalGas:Facility [J] !Monthly [Value,Min,Day,Hour,Minute,Max,Day,Hour,Minute]
649,9,NaturalGas:HVAC [J] !Monthly [Value,Min,Day,Hour,Minute,Max,Day,Hour,Minute]
13,11,Electricity:Facility [J] !RunPeriod [Value,Min,Month,Day,Hour,Minute,Max,Month,Day,Hour,Minute]
25,11,Electricity:Building [J] !RunPeriod [Value,Min,Month,Day,Hour,Minute,Max,Month,Day,Hour,Minute]
61,11,InteriorLights:Electricity [J] !RunPeriod [Value,Min,Month,Day,Hour,Minute,Max,Month,Day,Hour,Minute]
523,11,Electricity:HVAC [J] !RunPeriod [Value,Min,Month,Day,Hour,Minute,Max,Month,Day,Hour,Minute]
639,11,NaturalGas:Facility [J] !RunPeriod [Value,Min,Month,Day,Hour,Minute,Max,Month,Day,Hour,Minute]
651,11,NaturalGas:HVAC [J] !RunPeriod [Value,Min,Month,Day,Hour,Minute,Max,Month,Day,Hour,Minute]
End of Data Dictionary
1,RUN PERIOD 1,  41.98, -87.92,  -6.00, 201.00
4,31, 1
11,8152594213.659712,236904.4355917076,11,19,20,3347198.91995516,14,13,30
23,1800813904.8971438,110740.9323100708,11,20,50,969113.7750373145,30,13,60
59,872958947.6486998,26993.16473867465, 1, 1,10,539863.294773493, 1, 8,10
521,6351780308.762582,0.0,11,13,30,2464493.6492818757,27,21,10
637,14113587899.822895,0.0, 1,10,60,18753532.578056302,31, 7,50
649,14113587899.822895,0.0, 1,10,60,18753532.578056302,31, 7,50
4,59, 2
11,6673768008.23634,229514.5039806597,14,19,60,3349889.942960095, 4,14,40
23,1590480035.899312,99999999999999.0,11,20,50,-99999999999999.0,30,13,60
59,763150753.4917842,99999999999999.0, 1, 1,10,-99999999999999.0, 1, 8,10
521,5083287972.337016,99999999999999.0,11,13,30,2467189.6548915664, 5, 7,50
637,11554427812.483469,99999999999999.0, 1,10,60,19378011.623732053, 3, 8,30
649,11554427812.483469,99999999999999.0, 1,10,60,19378011.623732053, 3, 8,30
4,90, 3
11,6566593529.791112,96448.34033483511,31,16,60,-99999999999999.0, 4,14,40
23,1677266316.1000855,96448.34033483511,31,16,60,980747.5305731073,18, 9,60
59,807527516.3221568,99999999999999.0, 1, 1,10,-99999999999999.0, 1, 8,10
521,4889327213.691045,99999999999999.0,11,13,30,-99999999999999.0, 5, 7,50
637,8203694201.475921,99999999999999.0, 1,10,60,-99999999999999.0, 3, 8,30
649,8203694201.475921,99999999999999.0, 1,10,60,-99999999999999.0, 3, 8,30
4,120, 4
11,3997613901.544036,26993.16473867465, 5, 2,40,-99999999999999.0, 4,14,40
23,1592263112.2342117,26993.16473867465, 5, 1,60,-99999999999999.0,18, 9,60
59,836356216.2630605,99999999999999.0, 1, 1,10,-99999999999999.0, 1, 8,10
521,2405350789.3098164,99999999999999.0,11,13,30,-99999999999999.0, 5, 7,50
637,3125931382.904582,99999999999999.0, 1,10,60,-99999999999999.0, 3, 8,30
649,3125931382.904582,99999999999999.0, 1,10,60,-99999999999999.0, 3, 8,30
4,151, 5
11,3112488747.018968,99999999999999.0, 5, 2,40,-99999999999999.0, 4,14,40
23,1555651981.8027065,99999999999999.0, 5, 1,60,-99999999999999.0,18, 9,60
59,872958947.6486955,99999999999999.0, 1, 1,10,-99999999999999.0, 1, 8,10
521,1556836765.2162535,99999999999999.0,11,13,30,-99999999999999.0, 5, 7,50
637,667393637.9711287,99999999999999.0, 1,10,60,-99999999999999.0, 3, 8,30
649,667393637.9711287,99999999999999.0, 1,10,60,-99999999999999.0, 3, 8,30
4,181, 6
11,3119176759.3486013,99999999999999.0, 5, 2,40,-99999999999999.0, 4,14,40
23,1298987057.8061428,99999999999999.0, 5, 1,60,-99999999999999.0,18, 9,60
59,770924784.936516,99999999999999.0, 1, 1,10,-99999999999999.0, 1, 8,10
521,1820189701.5424275,99999999999999.0,11,13,30,-99999999999999.0, 5, 7,50
637,28001937.3270888,99999999999999.0, 1,10,60,-99999999999999.0, 3, 8,30
649,28001937.3270888,99999999999999.0, 1,10,60,-99999999999999.0, 3, 8,30
4,212, 7
11,3969685815.651755,99999999999999.0, 5, 2,40,-99999999999999.0, 4,14,40
23,1377272831.7430549,99999999999999.0, 5, 1,60,-99999999999999.0,18, 9,60
59,872958947.6487004,99999999999999.0, 1, 1,10,-99999999999999.0, 1, 8,10
521,2592412983.9086614,99999999999999.0,11,13,30,-99999999999999.0, 5, 7,50
637,0.0,99999999999999.0, 1,10,60,-99999999999999.0, 3, 8,30
649,0.0,99999999999999.0, 1,10,60,-99999999999999.0, 3, 8,30
4,243, 8
11,3506318114.4188457,99999999999999.0, 5, 2,40,-99999999999999.0, 4,14,40
23,1356532900.7642279,99999999999999.0, 5, 1,60,-99999999999999.0,18, 9,60
59,840243231.9854257,99999999999999.0, 1, 1,10,-99999999999999.0, 1, 8,10
521,2149785213.6545815,99999999999999.0,11,13,30,-99999999999999.0, 5, 7,50
637,4931648.638451576,99999999999999.0, 1,10,60,-99999999999999.0, 3, 8,30
649,4931648.638451576,99999999999999.0, 1,10,60,-99999999999999.0, 3, 8,30
4,273, 9
11,2801940791.9584413,99999999999999.0, 5, 2,40,-99999999999999.0, 4,14,40
23,1377563633.308496,99999999999999.0, 5, 1,60,-99999999999999.0,18, 9,60
59,803640500.5997887,99999999999999.0, 1, 1,10,-99999999999999.0, 1, 8,10
521,1424377158.6499367,99999999999999.0,11,13,30,-99999999999999.0, 5, 7,50
637,35689281.367174506,99999999999999.0, 1,10,60,-99999999999999.0, 3, 8,30
649,35689281.367174506,99999999999999.0, 1,10,60,-99999999999999.0, 3, 8,30
4,304,10
11,3226955779.508714,99999999999999.0, 5, 2,40,-99999999999999.0, 4,14,40
23,1614646270.36235,99999999999999.0, 5, 1,60,-99999999999999.0,18, 9,60
59,872958947.6486998,99999999999999.0, 1, 1,10,-99999999999999.0, 1, 8,10
521,1612309509.1463623,99999999999999.0,11,13,30,-99999999999999.0, 5, 7,50
637,1505191951.4202654,99999999999999.0, 1,10,60,-99999999999999.0, 3, 8,30
649,1505191951.4202654,99999999999999.0, 1,10,60,-99999999999999.0, 3, 8,30
4,334,11
11,5420564052.320228,99999999999999.0, 5, 2,40,-99999999999999.0, 4,14,40
23,1609063110.1632838,99999999999999.0, 5, 1,60,-99999999999999.0,18, 9,60
59,803640500.5997905,99999999999999.0, 1, 1,10,-99999999999999.0, 1, 8,10
521,3811500942.1569133,99999999999999.0,11,13,30,-99999999999999.0, 5, 7,50
637,7001020013.374392,99999999999999.0, 1,10,60,-99999999999999.0, 3, 8,30
649,7001020013.374392,99999999999999.0, 1,10,60,-99999999999999.0, 3, 8,30
4,365,12
11,6842009149.816194,99999999999999.0, 5, 2,40,-99999999999999.0, 4,14,40
23,1699039779.1083746,99999999999999.0, 5, 1,60,-99999999999999.0,18, 9,60
59,840243231.9854286,99999999999999.0, 1, 1,10,-99999999999999.0, 1, 8,10
521,5142969370.70782,99999999999999.0,11,13,30,-99999999999999.0, 5, 7,50
637,8561221369.835562,99999999999999.0, 1,10,60,-99999999999999.0, 3, 8,30
649,8561221369.835562,99999999999999.0, 1,10,60,-99999999999999.0, 3, 8,30
5,365
13,57389708863.272934,26993.16473867465, 4, 5, 2,40,3349889.942960095, 2, 4,14,40
25,18549580934.19439,26993.16473867465, 4, 5, 1,60,980747.5305731073, 3,18, 9,60
61,9957562526.77949,26993.16473867465, 1, 1, 1,10,539863.294773493, 1, 1, 8,10
523,38840127929.08349,0.0, 1,11,13,30,2467189.6548915664, 2, 5, 7,50
639,54801091136.620995,0.0, 1, 1,10,60,19378011.623732053, 2, 3, 8,30
651,54801091136.620995,0.0, 1, 1,10,60,19378011.623732053, 2, 3, 8,30
End of Data
 Number of Records Written=          78
