Program Version,EnergyPlus, Version 24.2.0-94a887817b, YMD=2025.02.04 17:10
1,5,Environment Title[],Latitude[deg],Longitude[deg],Time Zone[],Elevation[m]
2,8,Day of Simulation[],Month[],Day of Month[],DST Indicator[1=yes 0=no],Hour[],StartMinute[],EndMinute[],DayType
3,5,Cumulative Day of Simulation[],Month[],Day of Month[],DST Indicator[1=yes 0=no],DayType  ! When Daily Meters Requested
4,2,Cumulative Days of Simulation[],Month[]  ! When Monthly Meters Requested
5,1,Cumulative Days of Simulation[] ! When Run Period Meters Requested
6,1,Calendar Year of Simulation[] ! When Annual Meters Requested
11,9,Electricity:Facility [J] !Monthly [Value,Min,Day,Hour,Minute,Max,Day,Hour,Minute]
23,9,Electricity:Building [J] !Monthly [Value,Min,Day,Hour,Minute,Max,Day,Hour,Minute]
59,9,InteriorLights:Electricity [J] !Monthly [Value,Min,Day,Hour,Minute,Max,Day,Hour,Minute]
521,9,Electricity:HVAC [J] !Monthly [Value,Min,Day,Hour,Minute,Max,Day,Hour,Minute]
637,9,NaturalGas:Facility [J] !Monthly [Value,Min,Day,Hour,Minute,Max,Day,Hour,Minute]
649,9,NaturalGas:HVAC [J] !Monthly [Value,Min,Day,Hour,Minute,Max,Day,Hour,Minute]
13,11,Electricity:Facility [J] !RunPeriod [Value,Min,Month,Day,Hour,Minute,Max,Month,Day,Hour,Minute]
25,11,Electricity:Building [J] !RunPeriod [Value,Min,Month,Day,Hour,Minute,Max,Month,Day,Hour,Minute]
61,11,InteriorLights:Electricity [J] !RunPeriod [Value,Min,Month,Day,Hour,Minute,Max,Month,Day,Hour,Minute]
523,11,Electricity:HVAC [J] !RunPeriod [Value,Min,Month,Day,Hour,Minute,Max,Month,Day,Hour,Minute]
639,11,NaturalGas:Facility [J] !RunPeriod [Value,Min,Month,Day,Hour,Minute,Max,Month,Day,Hour,Minute]
651,11,NaturalGas:HVAC [J] !RunPeriod [Value,Min,Month,Day,Hour,Minute,Max,Month,Day,Hour,Minute]
End of Data Dictionary
1,YEARSIMULATION,  41.98, -87.92,  -6.00, 201.00
4,31, 1
11,8045059129.881923,225041.63878047784,11,19,40,3444588.871610851,26,14,60
23,1825246583.7085595,101328.90483393805,11,20,50,1012570.8813758808,30,13,50
59,897606248.5718837,27755.295255777633, 1, 1,10,555105.9051155526, 1, 8,10
521,6219812546.173383,0.0,11,13,40,2493031.5898407386,27,20,60
637,14102291217.04235,0.0, 1, 9,60,18985289.913811345,31, 7,60
649,14102291217.04235,0.0, 1, 9,60,18985289.913811345,31, 7,60
4,59, 2
11,6558472430.323409,170248.02342202247,14,19,50,-99999999999999.0,26,14,60
23,1609663653.414491,99999999999999.0,11,20,50,-99999999999999.0,30,13,50
59,784697707.4713703,99999999999999.0, 1, 1,10,-99999999999999.0, 1, 8,10
521,4948808776.908893,99999999999999.0,11,13,40,2496789.833178921, 5, 7,60
637,11546585145.049273,99999999999999.0, 1, 9,60,19477377.823974818, 3, 7,60
649,11546585145.049273,99999999999999.0, 1, 9,60,19477377.823974818, 3, 7,60
4,90, 3
11,6384271366.045391,27755.295255777633,31,14,60,-99999999999999.0,26,14,60
23,1748789041.4683313,27755.295255777633,31,14,60,-99999999999999.0,30,13,50
59,863966830.7218786,99999999999999.0, 1, 1,10,-99999999999999.0, 1, 8,10
521,4635482324.577082,99999999999999.0,11,13,40,-99999999999999.0, 5, 7,60
637,8382810578.895684,99999999999999.0, 1, 9,60,-99999999999999.0, 3, 7,60
649,8382810578.895684,99999999999999.0, 1, 9,60,-99999999999999.0, 3, 7,60
4,120, 4
11,3846004742.708989,99999999999999.0,31,14,60,-99999999999999.0,26,14,60
23,1575639899.7821603,99999999999999.0,31,14,60,-99999999999999.0,30,13,50
59,826330650.35504,99999999999999.0, 1, 1,10,-99999999999999.0, 1, 8,10
521,2270364842.926818,99999999999999.0,11,13,40,-99999999999999.0, 5, 7,60
637,3166913462.0345554,99999999999999.0, 1, 9,60,-99999999999999.0, 3, 7,60
649,3166913462.0345554,99999999999999.0, 1, 9,60,-99999999999999.0, 3, 7,60
4,151, 5
11,3029161728.111051,99999999999999.0,31,14,60,-99999999999999.0,26,14,60
23,1606255905.638875,99999999999999.0,31,14,60,-99999999999999.0,30,13,50
59,897606248.5718837,99999999999999.0, 1, 1,10,-99999999999999.0, 1, 8,10
521,1422905822.4721913,99999999999999.0,11,13,40,-99999999999999.0, 5, 7,60
637,623342775.4931316,99999999999999.0, 1, 9,60,-99999999999999.0, 3, 7,60
649,623342775.4931316,99999999999999.0, 1, 9,60,-99999999999999.0, 3, 7,60
4,181, 6
11,3149535014.653739,99999999999999.0,31,14,60,-99999999999999.0,26,14,60
23,1403031769.9981043,99999999999999.0,31,14,60,-99999999999999.0,30,13,50
59,826330650.3550408,99999999999999.0, 1, 1,10,-99999999999999.0, 1, 8,10
521,1746503244.6556015,99999999999999.0,11,13,40,-99999999999999.0, 5, 7,60
637,25076937.085682545,99999999999999.0, 1, 9,60,-99999999999999.0, 3, 7,60
649,25076937.085682545,99999999999999.0, 1, 9,60,-99999999999999.0, 3, 7,60
4,212, 7
11,3953070435.589069,99999999999999.0,31,14,60,-99999999999999.0,26,14,60
23,1395213468.183392,99999999999999.0,31,14,60,-99999999999999.0,30,13,50
59,863966830.7218779,99999999999999.0, 1, 1,10,-99999999999999.0, 1, 8,10
521,2557856967.4056664,99999999999999.0,11,13,40,-99999999999999.0, 5, 7,60
637,0.0,99999999999999.0, 1, 9,60,-99999999999999.0, 3, 7,60
649,0.0,99999999999999.0, 1, 9,60,-99999999999999.0, 3, 7,60
4,243, 8
11,3601005408.0694766,99999999999999.0,31,14,60,-99999999999999.0,26,14,60
23,1471460415.4127119,99999999999999.0,31,14,60,-99999999999999.0,30,13,50
59,897606248.5718843,99999999999999.0, 1, 1,10,-99999999999999.0, 1, 8,10
521,2129544992.6567633,99999999999999.0,11,13,40,-99999999999999.0, 5, 7,60
637,2611125.8410287127,99999999999999.0, 1, 9,60,-99999999999999.0, 3, 7,60
649,2611125.8410287127,99999999999999.0, 1, 9,60,-99999999999999.0, 3, 7,60
4,273, 9
11,2690199215.6690254,99999999999999.0,31,14,60,-99999999999999.0,26,14,60
23,1378067324.0850024,99999999999999.0,31,14,60,-99999999999999.0,30,13,50
59,792691232.5050343,99999999999999.0, 1, 1,10,-99999999999999.0, 1, 8,10
521,1312131891.5840132,99999999999999.0,11,13,40,-99999999999999.0, 5, 7,60
637,28747160.391506225,99999999999999.0, 1, 9,60,-99999999999999.0, 3, 7,60
649,28747160.391506225,99999999999999.0, 1, 9,60,-99999999999999.0, 3, 7,60
4,304,10
11,3193148907.019229,99999999999999.0,31,14,60,-99999999999999.0,26,14,60
23,1658453231.92872,99999999999999.0,31,14,60,-99999999999999.0,30,13,50
59,897606248.5718837,99999999999999.0, 1, 1,10,-99999999999999.0, 1, 8,10
521,1534695675.090515,99999999999999.0,11,13,40,-99999999999999.0, 5, 7,60
637,1470036700.715215,99999999999999.0, 1, 9,60,-99999999999999.0, 3, 7,60
649,1470036700.715215,99999999999999.0, 1, 9,60,-99999999999999.0, 3, 7,60
4,334,11
11,5349173242.921663,99999999999999.0,31,14,60,-99999999999999.0,26,14,60
23,1687028475.9815717,99999999999999.0,31,14,60,-99999999999999.0,30,13,50
59,859970068.2050463,99999999999999.0, 1, 1,10,-99999999999999.0, 1, 8,10
521,3662144766.9400973,99999999999999.0,11,13,40,-99999999999999.0, 5, 7,60
637,6865672005.541285,99999999999999.0, 1, 9,60,-99999999999999.0, 3, 7,60
649,6865672005.541285,99999999999999.0, 1, 9,60,-99999999999999.0, 3, 7,60
4,365,12
11,6626913949.841627,99999999999999.0,31,14,60,-99999999999999.0,26,14,60
23,1672120294.2024376,99999999999999.0,31,14,60,-99999999999999.0,30,13,50
59,830327412.8718723,99999999999999.0, 1, 1,10,-99999999999999.0, 1, 8,10
521,4954793655.639199,99999999999999.0,11,13,40,-99999999999999.0, 5, 7,60
637,8871669914.782976,99999999999999.0, 1, 9,60,-99999999999999.0, 3, 7,60
649,8871669914.782976,99999999999999.0, 1, 9,60,-99999999999999.0, 3, 7,60
5,365
13,56426015570.835815,27755.295255777633, 3,31,14,60,3444588.871610851, 1,26,14,60
25,19030970063.803158,27755.295255777633, 3,31,14,60,1012570.8813758808, 1,30,13,50
61,10238706377.486794,27755.295255777633, 1, 1, 1,10,555105.9051155526, 1, 1, 8,10
523,37395045507.03026,0.0, 1,11,13,40,2496789.833178921, 2, 5, 7,60
639,55085757022.873055,0.0, 1, 1, 9,60,19477377.823974818, 2, 3, 7,60
651,55085757022.873055,0.0, 1, 1, 9,60,19477377.823974818, 2, 3, 7,60
End of Data
 Number of Records Written=          78
