Program Version,EnergyPlus, Version 24.2.0-94a887817b, YMD=2025.02.12 11:47
1,5,Environment Title[],Latitude[deg],Longitude[deg],Time Zone[],Elevation[m]
2,8,Day of Simulation[],Month[],Day of Month[],DST Indicator[1=yes 0=no],Hour[],StartMinute[],EndMinute[],DayType
3,5,Cumulative Day of Simulation[],Month[],Day of Month[],DST Indicator[1=yes 0=no],DayType  ! When Daily Report Variables Requested
4,2,Cumulative Days of Simulation[],Month[]  ! When Monthly Report Variables Requested
5,1,Cumulative Days of Simulation[] ! When Run Period Report Variables Requested
6,1,Calendar Year of Simulation[] ! When Annual Report Variables Requested
250,1,LIVING ZONE,Zone Air Temperature [C] !TimeStep,REPORTSCH
251,1,LIVING ZONE,Zone Air System Sensible Heating Energy [J] !TimeStep,REPORTSCH
336,1,LIVING ZONE,Zone Air System Sensible Cooling Energy [J] !TimeStep,REPORTSCH
385,1,LIVING ZONE,Zone Thermostat Heating Setpoint Temperature [C] !TimeStep,REPORTSCH
386,1,LIVING ZONE,Zone Thermostat Cooling Setpoint Temperature [C] !TimeStep,REPORTSCH
387,1,GARAGE ZONE,Zone Air Temperature [C] !TimeStep,REPORTSCH
388,1,GARAGE ZONE,Zone Air System Sensible Heating Energy [J] !TimeStep,REPORTSCH
425,1,GARAGE ZONE,Zone Air System Sensible Cooling Energy [J] !TimeStep,REPORTSCH
450,1,GARAGE ZONE,Zone Thermostat Heating Setpoint Temperature [C] !TimeStep,REPORTSCH
451,1,GARAGE ZONE,Zone Thermostat Cooling Setpoint Temperature [C] !TimeStep,REPORTSCH
452,1,ATTIC ZONE,Zone Air Temperature [C] !TimeStep,REPORTSCH
453,1,ATTIC ZONE,Zone Air System Sensible Heating Energy [J] !TimeStep,REPORTSCH
490,1,ATTIC ZONE,Zone Air System Sensible Cooling Energy [J] !TimeStep,REPORTSCH
515,1,ATTIC ZONE,Zone Thermostat Heating Setpoint Temperature [C] !TimeStep,REPORTSCH
516,1,ATTIC ZONE,Zone Thermostat Cooling Setpoint Temperature [C] !TimeStep,REPORTSCH
542,1,ACDXCOIL 1,Cooling Coil Total Cooling Energy [J] !TimeStep,REPORTSCH
592,1,HEAT PUMP DX HEATING COIL 1,Heating Coil Heating Energy [J] !TimeStep,REPORTSCH
632,1,SUPP HEATING COIL 1,Heating Coil Heating Energy [J] !TimeStep,REPORTSCH
686,1,TWOSPEED HEAT PUMP 1,Unitary System DX Coil Cycling Ratio [] !TimeStep,REPORTSCH
687,1,TWOSPEED HEAT PUMP 1,Unitary System DX Coil Speed Ratio [] !TimeStep,REPORTSCH
688,1,TWOSPEED HEAT PUMP 1,Unitary System DX Coil Speed Level [] !TimeStep,REPORTSCH
End of Data Dictionary
1,RUN PERIOD 1,  41.98, -87.92,  -6.00, 201.00
2,21, 1,21, 0, 1, 0.00,10.00,Monday
250,24.88612677223312
251,8483704.701358648
336,0.0
385,24.93
386,28.02
387,0.6603913160608256
388,0.0
425,0.0
450,0.0
451,0.0
452,-1.5830588137509358
453,0.0
490,0.0
515,0.0
516,0.0
542,0.0
592,4876118.623349024
632,3469872.426648041
686,1.0
687,1.0
688,2.0
2,21, 1,21, 0, 1,10.00,20.00,Monday
250,23.80145650833706
251,6338857.461490582
336,0.0
385,23.596666666666664
386,28.019999999999996
387,0.6362182493499502
388,0.0
425,0.0
450,0.0
451,0.0
452,-1.5734736378257799
453,0.0
490,0.0
515,0.0
516,0.0
542,0.0
592,2699077.5138235115
632,3552568.623045464
686,0.5766179623804351
687,0.5
688,1.1666666666666665
2,21, 1,21, 0, 1,20.00,30.00,Monday
250,24.230227314928065
251,6227321.976678747
336,0.0
385,24.263333333333325
386,28.01999999999999
387,0.6111896796791587
388,0.0
425,0.0
450,0.0
451,0.0
452,-1.5652564575904395
453,0.0
490,0.0
515,0.0
516,0.0
542,0.0
592,3555311.330959551
632,2598517.887692042
686,0.7598385118416611
687,0.6666666666666664
688,1.666666666666666
2,21, 1,21, 0, 1,30.00,40.00,Monday
250,24.468024527753858
251,7425382.907635666
336,0.0
385,24.929999999999993
386,28.01999999999999
387,0.5815262258534855
388,0.0
425,0.0
450,0.0
451,0.0
452,-1.5578100930799408
453,0.0
490,0.0
515,0.0
516,0.0
542,0.0
592,4830150.351248741
632,3129843.4650574657
686,0.9999999999999997
687,0.9999999999999997
688,1.9999999999999993
2,21, 1,21, 0, 1,40.00,50.00,Monday
250,24.886220606061247
251,8548075.535224285
336,0.0
385,24.93
386,28.02
387,0.555558070903627
388,0.0
425,0.0
450,0.0
451,0.0
452,-1.5535708848312786
453,0.0
490,0.0
515,0.0
516,0.0
542,0.0
592,4812841.120457529
632,3597408.2214057236
686,1.0
687,1.0
688,2.0
2,21, 1,21, 0, 1,50.00,60.00,Monday
250,23.79818482689184
251,6402781.481363146
336,0.0
385,23.596666666666636
386,28.019999999999964
387,0.5337774905732405
388,0.0
425,0.0
450,0.0
451,0.0
452,-1.5521602333631268
453,0.0
490,0.0
515,0.0
516,0.0
542,0.0
592,2678072.200170894
632,3638452.7711959397
686,0.5807009078828433
687,0.49999999999999933
688,1.166666666666665
2,21, 1,21, 0, 2, 0.00,10.00,Monday
250,24.231208705043837
251,6283353.696897553
336,0.0
385,24.263333333333332
386,28.020000000000003
387,0.5105850194420039
388,0.0
425,0.0
450,0.0
451,0.0
452,-1.5526576635187592
453,0.0
490,0.0
515,0.0
516,0.0
542,0.0
592,3537826.45990569
632,2667464.87122702
686,0.764848440428168
687,0.6666666666666666
688,1.6666666666666665
2,21, 1,21, 0, 2,10.00,20.00,Monday
250,24.469339053794684
251,7462868.757891814
336,0.0
385,24.93
386,28.02
387,0.4824158939175838
388,0.0
425,0.0
450,0.0
451,0.0
452,-1.5563930416021554
453,0.0
490,0.0
515,0.0
516,0.0
542,0.0
592,4798498.300007611
632,3198093.5824736077
686,1.0
687,1.0
688,2.0
2,21, 1,21, 0, 2,20.00,30.00,Monday
250,24.886360697405536
251,8572125.549321176
336,0.0
385,24.93
386,28.02
387,0.4572525678674634
388,0.0
425,0.0
450,0.0
451,0.0
452,-1.5636271628521234
453,0.0
490,0.0
515,0.0
516,0.0
542,0.0
592,4797025.27600521
632,3636955.578578976
686,1.0
687,1.0
688,2.0
2,21, 1,21, 0, 2,30.00,40.00,Monday
250,23.79775566607217
251,6411252.97009142
336,0.0
385,23.59666666666665
386,28.019999999999985
387,0.43561642263788614
388,0.0
425,0.0
450,0.0
451,0.0
452,-1.574100470858551
453,0.0
490,0.0
515,0.0
516,0.0
542,0.0
592,2679609.6046487754
632,3645534.3100342415
686,0.581145090579862
687,0.49999999999999967
688,1.1666666666666659
2,21, 1,21, 0, 2,40.00,50.00,Monday
250,24.231310017565843
251,6291543.163147212
336,0.0
385,24.26333333333335
386,28.02000000000002
387,0.4121925079340515
388,0.0
425,0.0
450,0.0
451,0.0
452,-1.5879179348358174
453,0.0
490,0.0
515,0.0
516,0.0
542,0.0
592,3539608.179332401
632,2673437.250757811
686,0.765363235680879
687,0.6666666666666672
688,1.6666666666666679
2,21, 1,21, 0, 2,50.00,60.00,Monday
250,24.469635072357068
251,7470342.857167781
336,0.0
385,24.93
386,28.02
387,0.3833616076639926
388,0.0
425,0.0
450,0.0
451,0.0
452,-1.606658647922979
453,0.0
490,0.0
515,0.0
516,0.0
542,0.0
592,4798497.530764352
632,3205648.6085312176
686,1.0
687,1.0
688,2.0
2,21, 1,21, 0, 3, 0.00,10.00,Monday
250,24.88640004262129
251,8590137.494861426
336,0.0
385,24.93
386,28.02
387,0.357989215936933
388,0.0
425,0.0
450,0.0
451,0.0
452,-1.6228662345920717
453,0.0
490,0.0
515,0.0
516,0.0
542,0.0
592,4797025.27600521
632,3654904.4105389426
686,1.0
687,1.0
688,2.0
2,21, 1,21, 0, 3,10.00,20.00,Monday
250,23.796294168937564
251,6439099.188721934
336,0.0
385,23.596666666666664
386,28.019999999999996
387,0.3370307185453356
388,0.0
425,0.0
450,0.0
451,0.0
452,-1.633030609082518
453,0.0
490,0.0
515,0.0
516,0.0
542,0.0
592,2684510.63229444
632,3668969.469767744
686,0.5825611058020886
687,0.5
688,1.1666666666666665
2,21, 1,21, 0, 3,20.00,30.00,Monday
250,24.2319665904905
251,6333150.654340043
336,0.0
385,24.263333333333325
386,28.01999999999999
387,0.3152248708926436
388,0.0
425,0.0
450,0.0
451,0.0
452,-1.6386616759032644
453,0.0
490,0.0
515,0.0
516,0.0
542,0.0
592,3550702.3135946197
632,2700916.951338795
686,0.7685686829390157
687,0.6666666666666664
688,1.666666666666666
2,21, 1,21, 0, 3,30.00,40.00,Monday
250,24.47070137807935
251,7521490.626818228
336,0.0
385,24.929999999999993
386,28.01999999999999
387,0.28950857858957807
388,0.0
425,0.0
450,0.0
451,0.0
452,-1.6394440029277773
453,0.0
490,0.0
515,0.0
516,0.0
542,0.0
592,4798491.576756799
632,3256304.2418871745
686,0.9999999999999997
687,0.9999999999999997
688,1.9999999999999993
2,21, 1,21, 0, 3,40.00,50.00,Monday
250,24.88653218548002
251,8640172.546960928
336,0.0
385,24.93
386,28.02
387,0.2676676175539584
388,0.0
425,0.0
450,0.0
451,0.0
452,-1.6354079683739604
453,0.0
490,0.0
515,0.0
516,0.0
542,0.0
592,4797025.27600521
632,3704670.7801129576
686,1.0
687,1.0
688,2.0
2,21, 1,21, 0, 3,50.00,60.00,Monday
250,23.793790050374557
251,6486767.082526808
336,0.0
385,23.596666666666636
386,28.019999999999964
387,0.25019421240255185
388,0.0
425,0.0
450,0.0
451,0.0
452,-1.6279929028893003
453,0.0
490,0.0
515,0.0
516,0.0
542,0.0
592,2692861.271857755
632,3709123.99658526
686,0.5849737962122286
687,0.49999999999999933
688,1.166666666666665
2,21, 1,21, 0, 4, 0.00,10.00,Monday
250,24.234099789939194
251,6457363.351475312
336,0.0
385,24.263333333333332
386,28.020000000000003
387,0.2278785967402478
388,0.0
425,0.0
450,0.0
451,0.0
452,-1.6197534059084058
453,0.0
490,0.0
515,0.0
516,0.0
542,0.0
592,3581817.4504110743
632,2784116.289417918
686,0.7786603327948824
687,0.6666666666666666
688,1.6666666666666665
2,21, 1,21, 0, 4,10.00,20.00,Monday
250,24.47361865880689
251,7706279.6580196
336,0.0
385,24.93
386,28.02
387,0.1966878996952607
388,0.0
425,0.0
450,0.0
451,0.0
452,-1.6112831482336765
453,0.0
490,0.0
515,0.0
516,0.0
542,0.0
592,4788776.530592789
632,3448861.6086721476
686,1.0
687,1.0
688,2.0
2,21, 1,21, 0, 4,20.00,30.00,Monday
250,24.88692643939374
251,8896151.133363917
336,0.0
385,24.93
386,28.02
387,0.16602487666714988
388,0.0
425,0.0
450,0.0
451,0.0
452,-1.6075160635962022
453,0.0
490,0.0
515,0.0
516,0.0
542,0.0
592,4781920.349114438
632,3975005.9441907853
686,1.0
687,1.0
688,2.0
2,21, 1,21, 0, 4,30.00,40.00,Monday
250,23.776541700229913
251,6813095.8328655185
336,0.0
385,23.59666666666665
386,28.019999999999985
387,0.1375370680180553
388,0.0
425,0.0
450,0.0
451,0.0
452,-1.6096354878414292
453,0.0
490,0.0
515,0.0
516,0.0
542,0.0
592,2739237.1261937357
632,3994834.4832487553
686,0.6019073920315444
687,0.49999999999999967
688,1.1666666666666659
2,21, 1,21, 0, 4,40.00,50.00,Monday
250,24.23967756889174
251,6811044.956600259
336,0.0
385,24.26333333333335
386,28.02000000000002
387,0.10572338434948388
388,0.0
425,0.0
450,0.0
451,0.0
452,-1.6165117609796595
453,0.0
490,0.0
515,0.0
516,0.0
542,0.0
592,3665983.375172934
632,3027110.643525539
686,0.8079329168497522
687,0.6666666666666672
688,1.6666666666666679
2,21, 1,21, 0, 4,50.00,60.00,Monday
250,24.48034099234801
251,8025281.8547828
336,0.0
385,24.93
386,28.02
387,0.06515446662644374
388,0.0
425,0.0
450,0.0
451,0.0
452,-1.6282937170437985
453,0.0
490,0.0
515,0.0
516,0.0
542,0.0
592,4767457.680845739
632,3782644.1299941214
686,1.0
687,1.0
688,2.0
2,21, 1,21, 0, 5, 0.00,10.00,Monday
250,24.887667956801508
251,9107735.991014913
336,0.0
385,24.93
386,28.02
387,0.0367032899894852
388,0.0
425,0.0
450,0.0
451,0.0
452,-1.636808506724094
453,0.0
490,0.0
515,0.0
516,0.0
542,0.0
592,4759821.308645792
632,4206930.52176733
686,1.0
687,1.0
688,2.0
2,21, 1,21, 0, 5,10.00,20.00,Monday
250,23.77159444718399
251,6907637.955140287
336,0.0
385,23.596666666666664
386,28.019999999999996
387,0.02151947462487184
388,0.0
425,0.0
450,0.0
451,0.0
452,-1.6381243423475251
453,0.0
490,0.0
515,0.0
516,0.0
542,0.0
592,2744312.530669204
632,4085902.94091342
686,0.6072011907733308
687,0.5
688,1.1666666666666665
2,21, 1,21, 0, 5,20.00,30.00,Monday
250,24.23913327015044
251,6791155.958732779
336,0.0
385,24.263333333333325
386,28.01999999999999
387,0.009739252241981293
388,0.0
425,0.0
450,0.0
451,0.0
452,-1.63169846144371
453,0.0
490,0.0
515,0.0
516,0.0
542,0.0
592,3643084.8529260433
632,3032469.33704325
686,0.806450873556356
687,0.6666666666666664
688,1.666666666666666
2,21, 1,21, 0, 5,30.00,40.00,Monday
250,24.479763684442073
251,7885049.862686119
336,0.0
385,24.929999999999993
386,28.01999999999999
387,-0.0006478238795701294
388,0.0
425,0.0
450,0.0
451,0.0
452,-1.6147972182470482
453,0.0
490,0.0
515,0.0
516,0.0
542,0.0
592,4742084.120372619
632,3667995.1567772366
686,0.9999999999999997
687,0.9999999999999997
688,1.9999999999999993
2,21, 1,21, 0, 5,40.00,50.00,Monday
250,24.887577063671255
251,8967601.51221368
336,0.0
385,24.93
386,28.02
387,-0.0067938362204508895
388,0.0
425,0.0
450,0.0
451,0.0
452,-1.5917172302802847
453,0.0
490,0.0
515,0.0
516,0.0
542,0.0
592,4733209.018464266
632,4093557.6430696677
686,1.0
687,1.0
688,2.0
2,21, 1,21, 0, 5,50.00,60.00,Monday
250,23.7791654635005
251,6764792.642808918
336,0.0
385,23.596666666666636
386,28.019999999999964
387,-0.009229207051558146
388,0.0
425,0.0
450,0.0
451,0.0
452,-1.5647325943072399
453,0.0
490,0.0
515,0.0
516,0.0
542,0.0
592,2705415.050634177
632,3979308.6000670963
686,0.6004333257183135
687,0.49999999999999933
688,1.166666666666665
2,21, 1,21, 0, 6, 0.00,10.00,Monday
250,24.23854178461425
251,6731130.016821298
336,0.0
385,24.263333333333332
386,28.020000000000003
387,-0.018332010768309943
388,0.0
425,0.0
450,0.0
451,0.0
452,-1.5387564823193882
453,0.0
490,0.0
515,0.0
516,0.0
542,0.0
592,3608445.229487112
632,3010202.015189113
686,0.8020054557712621
687,0.6666666666666666
688,1.6666666666666665
2,21, 1,21, 0, 6,10.00,20.00,Monday
250,24.479359764328336
251,7925805.161355008
336,0.0
385,24.93
386,28.02
387,-0.036619507733262585
388,0.0
425,0.0
450,0.0
451,0.0
452,-1.5174603011560328
453,0.0
490,0.0
515,0.0
516,0.0
542,0.0
592,4718775.272531847
632,3733471.37265984
686,1.0
687,1.0
688,2.0
2,21, 1,21, 0, 6,20.00,30.00,Monday
250,24.88758481770769
251,9093423.61897944
336,0.0
385,24.93
386,28.02
387,-0.058504972775959715
388,0.0
425,0.0
450,0.0
451,0.0
452,-1.513004654650651
453,0.0
490,0.0
515,0.0
516,0.0
542,0.0
592,4712787.238344823
632,4239927.360705893
686,1.0
687,1.0
688,2.0
2,21, 1,21, 0, 6,30.00,40.00,Monday
250,23.767767094906052
251,6980129.191186044
336,0.0
385,23.59666666666665
386,28.019999999999985
387,-0.0818381141360977
388,0.0
425,0.0
450,0.0
451,0.0
452,-1.5237385955186538
453,0.0
490,0.0
515,0.0
516,0.0
542,0.0
592,2734056.285494252
632,4169821.611634868
686,0.6119309362722778
687,0.49999999999999967
688,1.1666666666666659
2,21, 1,21, 0, 6,40.00,50.00,Monday
250,24.242291047372458
251,6964765.717776384
336,0.0
385,24.26333333333335
386,28.02000000000002
387,-0.10931487541579293
388,0.0
425,0.0
450,0.0
451,0.0
452,-1.543895826418254
453,0.0
490,0.0
515,0.0
516,0.0
542,0.0
592,3661716.8887114883
632,3172665.0030785142
686,0.8220047636616375
687,0.6666666666666672
688,1.6666666666666679
2,21, 1,21, 0, 6,50.00,60.00,Monday
250,24.483606580278586
251,8134363.7757328
336,0.0
385,24.93
386,28.02
387,-0.14572769091507856
388,0.0
425,0.0
450,0.0
451,0.0
452,-1.5763335393564903
453,0.0
490,0.0
515,0.0
516,0.0
542,0.0
592,4700587.925056944
632,3955700.453828791
686,1.0
687,1.0
688,2.0
2,21, 1,21, 0, 7, 0.00,10.00,Monday
250,24.888045018536204
251,9300965.928170322
336,0.0
385,24.93
386,28.02
387,-0.18382973207943
388,0.0
425,0.0
450,0.0
451,0.0
452,-1.6237387270069932
453,0.0
490,0.0
515,0.0
516,0.0
542,0.0
592,4720142.751070037
632,4439004.892942182
686,1.0
687,1.0
688,2.0
2,21, 1,21, 0, 7,10.00,20.00,Monday
250,23.758920452865297
251,7146948.262784762
336,0.0
385,23.596666666666664
386,28.019999999999996
387,-0.2248042727665305
388,0.0
425,0.0
450,0.0
451,0.0
452,-1.7023473741273356
453,0.0
490,0.0
515,0.0
516,0.0
542,0.0
592,2779449.1138251973
632,4294374.220345699
686,0.619790298347989
687,0.5
688,1.1666666666666665
2,21, 1,21, 0, 7,20.00,30.00,Monday
250,24.24420569428011
251,7113979.7823702
336,0.0
385,24.263333333333325
386,28.01999999999999
387,-0.275639977714648
388,0.0
425,0.0
450,0.0
451,0.0
452,-1.8226150377449262
453,0.0
490,0.0
515,0.0
516,0.0
542,0.0
592,3743890.194679748
632,3230367.720157185
686,0.8330721976012216
687,0.6666666666666664
688,1.666666666666666
2,21, 1,21, 0, 7,30.00,40.00,Monday
250,24.485403944451424
251,8224812.182731075
336,0.0
385,24.929999999999993
386,28.01999999999999
387,-0.34643257524961596
388,0.0
425,0.0
450,0.0
451,0.0
452,-2.0043718530962815
453,0.0
490,0.0
515,0.0
516,0.0
542,0.0
592,4783408.572995515
632,3960312.635947976
686,0.9999999999999997
687,0.9999999999999997
688,1.9999999999999993
2,21, 1,21, 0, 7,40.00,50.00,Monday
250,24.888221641060014
251,9356213.249838501
336,0.0
385,24.93
386,28.02
387,-0.4169720567222471
388,0.0
425,0.0
450,0.0
451,0.0
452,-2.2009090079924682
453,0.0
490,0.0
515,0.0
516,0.0
542,0.0
592,4800253.518875453
632,4413627.17078766
686,1.0
687,1.0
688,2.0
2,21, 1,21, 0, 7,50.00,60.00,Monday
250,23.75585437298726
251,7203494.553071938
336,0.0
385,23.596666666666636
386,28.019999999999964
387,-0.4849043387779498
388,0.0
425,0.0
450,0.0
451,0.0
452,-2.4065045884639735
453,0.0
490,0.0
515,0.0
516,0.0
542,0.0
592,2828507.8530548564
632,4303145.2565533165
686,0.6209228406908232
687,0.49999999999999933
688,1.166666666666665
2,21, 1,21, 0, 8, 0.00,10.00,Monday
250,24.238182380942487
251,6808302.986370102
336,0.0
385,24.263333333333332
386,28.020000000000003
387,-0.5541281819152115
388,0.0
425,0.0
450,0.0
451,0.0
452,-2.628000829287203
453,0.0
490,0.0
515,0.0
516,0.0
542,0.0
592,3700297.292964955
632,2996355.0938883573
686,0.8052614380541089
687,0.6666666666666666
688,1.6666666666666665
2,21, 1,21, 0, 8,10.00,20.00,Monday
250,24.480831557114858
251,7846391.031405018
336,0.0
385,24.93
386,28.02
387,-0.6260752459774133
388,0.0
425,0.0
450,0.0
451,0.0
452,-2.8065361173245282
453,0.0
490,0.0
515,0.0
516,0.0
542,0.0
592,4842471.9416638585
632,3529624.088434533
686,1.0
687,1.0
688,2.0
2,21, 1,21, 0, 8,20.00,30.00,Monday
250,24.887733512986937
251,8934802.694817228
336,0.0
385,24.93
386,28.02
387,-0.6751850595318221
388,0.0
425,0.0
450,0.0
451,0.0
452,-2.8311567090947714
453,0.0
490,0.0
515,0.0
516,0.0
542,0.0
592,4850353.090971849
632,3943270.1974848513
686,1.0
687,1.0
688,2.0
2,21, 1,21, 0, 8,30.00,40.00,Monday
250,23.782959906302167
251,6691123.11491631
336,0.0
385,23.59666666666665
386,28.019999999999985
387,-0.7003222994051804
388,0.0
425,0.0
450,0.0
451,0.0
452,-2.7208177418294257
453,0.0
490,0.0
515,0.0
516,0.0
542,0.0
592,2761862.793407514
632,3848167.1061552903
686,0.5947934734287706
687,0.49999999999999967
688,1.1666666666666659
2,21, 1,21, 0, 8,40.00,50.00,Monday
250,24.234440782718558
251,6523295.62227694
336,0.0
385,24.26333333333335
386,28.02000000000002
387,-0.7131297562291526
388,0.0
425,0.0
450,0.0
451,0.0
452,-2.5040768084098994
453,0.0
490,0.0
515,0.0
516,0.0
542,0.0
592,3652064.5873187915
632,2777961.2610078896
686,0.7822733466923342
687,0.6666666666666672
688,1.6666666666666679
2,21, 1,21, 0, 8,50.00,60.00,Monday
250,24.8627204963258
251,8438844.135701098
336,0.0
385,24.93
386,28.02
387,-0.7099078263632808
388,0.0
425,0.0
450,0.0
451,0.0
452,-2.1792891607309164
453,0.0
490,0.0
515,0.0
516,0.0
542,0.0
592,4881868.245072941
632,3480103.4463545354
686,1.0
687,1.0
688,2.0
2,21, 1,21, 0, 9, 0.00,10.00,Monday
250,23.80438911587921
251,6265872.120171273
336,0.0
385,23.596666666666664
386,28.020000000000003
387,-0.6843494571449127
388,0.0
425,0.0
450,0.0
451,0.0
452,-1.7871051470896162
453,0.0
490,0.0
515,0.0
516,0.0
542,0.0
592,2709382.2464881074
632,3468364.5243061264
686,0.5736633204212689
687,0.5
688,1.1666666666666667
2,21, 1,21, 0, 9,10.00,20.00,Monday
250,24.22607450438958
251,6004817.393021574
336,0.0
385,24.263333333333332
386,28.02
387,-0.6394510063289847
388,0.0
425,0.0
450,0.0
451,0.0
452,-1.3017280181517183
453,0.0
490,0.0
515,0.0
516,0.0
542,0.0
592,3537982.873848553
632,2413189.7070554555
686,0.7402879349562085
687,0.6666666666666667
688,1.6666666666666667
2,21, 1,21, 0, 9,20.00,30.00,Monday
250,24.257885244238196
251,7322072.945547743
336,0.0
385,24.263333333333325
386,28.01999999999999
387,-0.5597987254294802
388,0.0
425,0.0
450,0.0
451,0.0
452,-0.5946157836882799
453,0.0
490,0.0
515,0.0
516,0.0
542,0.0
592,3211865.925097161
632,3948254.5518511017
686,0.775066047574077
687,0.3333333333333332
688,1.3333333333333328
2,21, 1,21, 0, 9,30.00,40.00,Monday
250,24.25879101200101
251,7272998.185730438
336,0.0
385,24.263333333333343
386,28.02000000000001
387,-0.47273738814317157
388,0.0
425,0.0
450,0.0
451,0.0
452,0.05275749092433617
453,0.0
490,0.0
515,0.0
516,0.0
542,0.0
592,3222284.733205181
632,3885563.3747342634
686,0.7746036876861697
687,0.3333333333333332
688,1.3333333333333335
2,21, 1,21, 0, 9,40.00,50.00,Monday
250,24.258293813211374
251,7242787.871227755
336,0.0
385,24.26333333333335
386,28.02000000000002
387,-0.39225552184069185
388,0.0
425,0.0
450,0.0
451,0.0
452,0.6663139596625907
453,0.0
490,0.0
515,0.0
516,0.0
542,0.0
592,3209110.141383691
632,3871855.5029620635
686,0.7675223729520532
687,0.3333333333333336
688,1.3333333333333344
2,21, 1,21, 0, 9,50.00,60.00,Monday
250,24.864579784559808
251,7928717.482649758
336,0.0
385,24.93
386,28.02
387,-0.3207564428810189
388,0.0
425,0.0
450,0.0
451,0.0
452,1.1720630751366334
453,0.0
490,0.0
515,0.0
516,0.0
542,0.0
592,4987886.41021877
632,2857645.132278808
686,1.0
687,1.0
688,2.0
2,21, 1,21, 0,10, 0.00,10.00,Monday
250,23.821702270134313
251,5940267.032539406
336,0.0
385,23.596666666666664
386,28.020000000000003
387,-0.24853226573526452
388,0.0
425,0.0
450,0.0
451,0.0
452,1.6345676434418077
453,0.0
490,0.0
515,0.0
516,0.0
542,0.0
592,2713389.805332401
632,3133262.9839885123
686,0.5560070220187002
687,0.5
688,1.1666666666666667
2,21, 1,21, 0,10,10.00,20.00,Monday
250,24.220270118795522
251,5644513.396245385
336,0.0
385,24.263333333333332
386,28.02
387,-0.16195319805920425
388,0.0
425,0.0
450,0.0
451,0.0
452,2.142587378531321
453,0.0
490,0.0
515,0.0
516,0.0
542,0.0
592,3535848.0336419097
632,2081625.0706013914
686,0.7123383316635192
687,0.6666666666666667
688,1.6666666666666667
2,21, 1,21, 0,10,20.00,30.00,Monday
250,24.25128392705631
251,6973774.77668668
336,0.0
385,24.263333333333325
386,28.01999999999999
387,-0.026637095789168095
388,0.0
425,0.0
450,0.0
451,0.0
452,2.8308197768644643
453,0.0
490,0.0
515,0.0
516,0.0
542,0.0
592,3043489.9679980846
632,3806602.053998376
686,0.7013398243778486
687,0.3333333333333332
688,1.3333333333333328
2,21, 1,21, 0,10,30.00,40.00,Monday
250,24.251395875979213
251,6883549.0909992
336,0.0
385,24.263333333333343
386,28.02000000000001
387,0.10514493887838712
388,0.0
425,0.0
450,0.0
451,0.0
452,3.460367285154086
453,0.0
490,0.0
515,0.0
516,0.0
542,0.0
592,3034390.7662313776
632,3726779.3886799496
686,0.6934615597330978
687,0.3333333333333332
688,1.3333333333333335
2,21, 1,21, 0,10,40.00,50.00,Monday
250,24.249492485722065
251,6772793.495591477
336,0.0
385,24.26333333333335
386,28.02000000000002
387,0.24595372841348434
388,0.0
425,0.0
450,0.0
451,0.0
452,4.136277123437767
453,0.0
490,0.0
515,0.0
516,0.0
542,0.0
592,2977074.11592061
632,3684448.2540748473
686,0.6726878677089432
687,0.3333333333333336
688,1.3333333333333344
2,21, 1,21, 0,10,50.00,60.00,Monday
250,24.247512442739
251,6660594.7363319015
336,0.0
385,24.26333333333335
386,28.02000000000002
387,0.40449666173655174
388,0.0
425,0.0
450,0.0
451,0.0
452,4.892859198162396
453,0.0
490,0.0
515,0.0
516,0.0
542,0.0
592,2917190.783862284
632,3643555.5218868502
686,0.651494103924409
687,0.3333333333333336
688,1.3333333333333344
2,21, 1,21, 0,11, 0.00,10.00,Monday
250,24.245591601722186
251,6550019.587796034
336,0.0
385,24.263333333333332
386,28.020000000000003
387,0.5746207226469224
388,0.0
425,0.0
450,0.0
451,0.0
452,5.713590295289221
453,0.0
490,0.0
515,0.0
516,0.0
542,0.0
592,2852991.621220922
632,3608136.260119156
686,0.6315790380398538
687,0.3333333333333333
688,1.3333333333333335
2,21, 1,21, 0,11,10.00,20.00,Monday
250,24.243645770610243
251,6436933.023317798
336,0.0
385,24.263333333333332
386,28.02
387,0.7560561897127231
388,0.0
425,0.0
450,0.0
451,0.0
452,6.579616953401697
453,0.0
490,0.0
515,0.0
516,0.0
542,0.0
592,2787645.3630210757
632,3571462.1999316937
686,0.6115006168355425
687,0.33333333333333337
688,1.3333333333333333
2,21, 1,21, 0,11,20.00,30.00,Monday
250,24.03102184295596
251,5579366.903505724
336,0.0
385,23.93
386,28.02
387,0.9063732034718011
388,0.0
425,0.0
450,0.0
451,0.0
452,7.35269892940657
453,0.0
490,0.0
515,0.0
516,0.0
542,0.0
592,3932668.092438121
632,1491097.467927337
686,0.75
687,0.75
688,1.5
2,21, 1,21, 0,11,30.00,40.00,Monday
250,23.98240117417835
251,6103676.694121068
336,0.0
385,23.93
386,28.02
387,1.138932972374666
388,0.0
425,0.0
450,0.0
451,0.0
452,8.376321088081344
453,0.0
490,0.0
515,0.0
516,0.0
542,0.0
592,3146991.862790539
632,2876499.015257419
686,0.6361735594614375
687,0.5
688,1.25
2,21, 1,21, 0,11,40.00,50.00,Monday
250,23.985755561424206
251,5931227.290262645
336,0.0
385,23.93
386,28.02
387,1.3670126026626652
388,0.0
425,0.0
450,0.0
451,0.0
452,9.248496126752322
453,0.0
490,0.0
515,0.0
516,0.0
542,0.0
592,3156215.1727990434
632,2698981.419754603
686,0.6356921528854337
687,0.5
688,1.25
2,21, 1,21, 0,11,50.00,60.00,Monday
250,24.242478058251944
251,4674465.836415994
336,0.0
385,24.26333333333335
386,28.02000000000002
387,1.5443736976821447
388,0.0
425,0.0
450,0.0
451,0.0
452,9.897026174009136
453,0.0
490,0.0
515,0.0
516,0.0
542,0.0
592,3476128.922294111
632,1193593.4470596116
686,0.6666666666666672
687,0.6285854151057458
688,1.3333333333333344
2,21, 1,21, 0,12, 0.00,10.00,Monday
250,23.872601438543917
251,4752173.3154180935
336,0.0
385,23.730000000000004
386,28.02
387,1.721496196192671
388,0.0
425,0.0
450,0.0
451,0.0
452,10.462597076202664
453,0.0
490,0.0
515,0.0
516,0.0
542,0.0
592,2420943.522508634
632,2384003.281932578
686,0.4779225171383908
687,0.4
688,1.0
2,21, 1,21, 0,12,10.00,20.00,Monday
250,24.193832647114128
251,6410600.470066315
336,0.0
385,24.263333333333332
386,28.02
387,1.908931620091824
388,0.0
425,0.0
450,0.0
451,0.0
452,10.95489944394943
453,0.0
490,0.0
515,0.0
516,0.0
542,0.0
592,3754644.7329965876
632,2708953.2981371735
686,0.8517555843738078
687,0.33333333333333337
688,1.3333333333333333
2,21, 1,21, 0,12,20.00,30.00,Monday
250,24.300482838862422
251,4690269.951289481
336,0.0
385,24.263333333333325
386,28.01999999999999
387,2.1629343895464173
388,0.0
425,0.0
450,0.0
451,0.0
452,11.452157468299353
453,0.0
490,0.0
515,0.0
516,0.0
542,0.0
592,3547445.3555280194
632,1100108.1520978361
686,0.6666666666666664
687,0.6666666666666664
688,1.3333333333333328
2,21, 1,21, 0,12,30.00,40.00,Monday
250,23.89534148503172
251,4572662.643260228
336,0.0
385,23.729999999999997
386,28.01999999999999
387,2.3077303437888874
388,0.0
425,0.0
450,0.0
451,0.0
452,11.663182911975225
453,0.0
490,0.0
515,0.0
516,0.0
542,0.0
592,2374659.823498956
632,2245403.0206018086
686,0.46324376620395025
687,0.3999999999999997
688,0.9999999999999993
2,21, 1,21, 0,12,40.00,50.00,Monday
250,24.19277751941825
251,6250557.744532636
336,0.0
385,24.26333333333335
386,28.02000000000002
387,2.444134760517603
388,0.0
425,0.0
450,0.0
451,0.0
452,11.762530485467483
453,0.0
490,0.0
515,0.0
516,0.0
542,0.0
592,3652871.4557603654
632,2658787.9033522406
686,0.8211802541587809
687,0.3333333333333336
688,1.3333333333333344
2,21, 1,21, 0,12,50.00,60.00,Monday
250,24.308518894626353
251,4610949.252671692
336,0.0
385,24.26333333333335
386,28.02000000000002
387,2.61535367685649
388,0.0
425,0.0
450,0.0
451,0.0
452,11.759854958319554
453,0.0
490,0.0
515,0.0
516,0.0
542,0.0
592,3562201.741799793
632,1006176.4326548825
686,0.6666666666666672
687,0.6666666666666672
688,1.3333333333333344
2,21, 1,21, 0,13, 0.00,10.00,Monday
250,23.901833874196583
251,4507675.670957878
336,0.0
385,23.730000000000004
386,28.02
387,2.706345612606558
388,0.0
425,0.0
450,0.0
451,0.0
452,11.66804149255082
453,0.0
490,0.0
515,0.0
516,0.0
542,0.0
592,2357958.251298646
632,2195965.4094621376
686,0.4576276108986096
687,0.4
688,1.0
2,21, 1,21, 0,13,10.00,20.00,Monday
250,24.19145925761077
251,6122068.949764837
336,0.0
385,24.263333333333332
386,28.02
387,2.7911219056347942
388,0.0
425,0.0
450,0.0
451,0.0
452,11.57589956960417
453,0.0
490,0.0
515,0.0
516,0.0
542,0.0
592,3570827.227639383
632,2618578.747590887
686,0.7998373472557299
687,0.33333333333333337
688,1.3333333333333333
2,21, 1,21, 0,13,20.00,30.00,Monday
250,24.32297541716842
251,4485135.310585372
336,0.0
385,24.263333333333325
386,28.01999999999999
387,2.9001703805313532
388,0.0
425,0.0
450,0.0
451,0.0
452,11.488517608644663
453,0.0
490,0.0
515,0.0
516,0.0
542,0.0
592,3554691.3010860654
632,888100.0410793407
686,0.6666666666666664
687,0.6666666666666664
688,1.3333333333333328
2,21, 1,21, 0,13,30.00,40.00,Monday
250,23.920271037819482
251,4336215.830555216
336,0.0
385,23.729999999999997
386,28.01999999999999
387,2.9659787626696095
388,0.0
425,0.0
450,0.0
451,0.0
452,11.461225681520824
453,0.0
490,0.0
515,0.0
516,0.0
542,0.0
592,2303049.133325726
632,2076125.1723324838
686,0.4446231979329631
687,0.3999999999999997
688,0.9999999999999993
2,21, 1,21, 0,13,40.00,50.00,Monday
250,24.18967479006443
251,5903478.093412157
336,0.0
385,24.26333333333335
386,28.02000000000002
387,3.033866474418433
388,0.0
425,0.0
450,0.0
451,0.0
452,11.444895426630225
453,0.0
490,0.0
515,0.0
516,0.0
542,0.0
592,3417500.7891295534
632,2565697.01076248
686,0.7617918229345407
687,0.3333333333333336
688,1.3333333333333344
2,21, 1,21, 0,13,50.00,60.00,Monday
250,24.340436695563685
251,4338786.281290729
336,0.0
385,24.26333333333335
386,28.02000000000002
387,3.1270583165519468
388,0.0
425,0.0
450,0.0
451,0.0
452,11.430387770317955
453,0.0
490,0.0
515,0.0
516,0.0
542,0.0
592,3547173.065614733
632,749500.5098359354
686,0.6666666666666672
687,0.6666666666666672
688,1.3333333333333344
2,21, 1,21, 0,14, 0.00,10.00,Monday
250,23.93796217453574
251,4195900.031600344
336,0.0
385,23.730000000000004
386,28.02
387,3.1890243335440664
388,0.0
425,0.0
450,0.0
451,0.0
452,11.389971273872193
453,0.0
490,0.0
515,0.0
516,0.0
542,0.0
592,2240632.6439588317
632,1996086.9386108392
686,0.4351029122343284
687,0.38139308475848377
688,1.0
2,21, 1,21, 0,14,10.00,20.00,Monday
250,24.187965455404004
251,5714326.771983119
336,0.0
385,24.263333333333332
386,28.02
387,3.253034105925116
388,0.0
425,0.0
450,0.0
451,0.0
452,11.285823874506102
453,0.0
490,0.0
515,0.0
516,0.0
542,0.0
592,3292905.978286107
632,2513399.5323283025
686,0.7257397898897899
687,0.33333333333333337
688,1.3333333333333333
2,21, 1,21, 0,14,20.00,30.00,Monday
250,24.35328888247875
251,4235578.995307611
336,0.0
385,24.263333333333325
386,28.01999999999999
387,3.3373913258465655
388,0.0
425,0.0
450,0.0
451,0.0
452,11.08500550520443
453,0.0
490,0.0