Program Version,EnergyPlus, Version 24.1.0-9d7789a3ac, YMD=2025.04.05 15:39
1,5,Environment Title[],Latitude[deg],Longitude[deg],Time Zone[],Elevation[m]
2,8,Day of Simulation[],Month[],Day of Month[],DST Indicator[1=yes 0=no],Hour[],StartMinute[],EndMinute[],DayType
3,5,Cumulative Day of Simulation[],Month[],Day of Month[],DST Indicator[1=yes 0=no],DayType  ! When Daily Report Variables Requested
4,2,Cumulative Days of Simulation[],Month[]  ! When Monthly Report Variables Requested
5,1,Cumulative Days of Simulation[] ! When Run Period Report Variables Requested
6,1,Calendar Year of Simulation[] ! When Annual Report Variables Requested
250,1,LIVING ZONE,Zone Air Temperature [C] !TimeStep,REPORTSCH
251,1,LIVING ZONE,Zone Air System Sensible Heating Energy [J] !TimeStep,REPORTSCH
336,1,LIVING ZONE,Zone Air System Sensible Cooling Energy [J] !TimeStep,REPORTSCH
385,1,LIVING ZONE,Zone Thermostat Heating Setpoint Temperature [C] !TimeStep,REPORTSCH
386,1,LIVING ZONE,Zone Thermostat Cooling Setpoint Temperature [C] !TimeStep,REPORTSCH
387,1,GARAGE ZONE,Zone Air Temperature [C] !TimeStep,REPORTSCH
388,1,GARAGE ZONE,Zone Air System Sensible Heating Energy [J] !TimeStep,REPORTSCH
425,1,GARAGE ZONE,Zone Air System Sensible Cooling Energy [J] !TimeStep,REPORTSCH
450,1,GARAGE ZONE,Zone Thermostat Heating Setpoint Temperature [C] !TimeStep,REPORTSCH
451,1,GARAGE ZONE,Zone Thermostat Cooling Setpoint Temperature [C] !TimeStep,REPORTSCH
452,1,ATTIC ZONE,Zone Air Temperature [C] !TimeStep,REPORTSCH
453,1,ATTIC ZONE,Zone Air System Sensible Heating Energy [J] !TimeStep,REPORTSCH
490,1,ATTIC ZONE,Zone Air System Sensible Cooling Energy [J] !TimeStep,REPORTSCH
515,1,ATTIC ZONE,Zone Thermostat Heating Setpoint Temperature [C] !TimeStep,REPORTSCH
516,1,ATTIC ZONE,Zone Thermostat Cooling Setpoint Temperature [C] !TimeStep,REPORTSCH
542,1,ACDXCOIL 1,Cooling Coil Total Cooling Energy [J] !TimeStep,REPORTSCH
592,1,HEAT PUMP DX HEATING COIL 1,Heating Coil Heating Energy [J] !TimeStep,REPORTSCH
632,1,SUPP HEATING COIL 1,Heating Coil Heating Energy [J] !TimeStep,REPORTSCH
686,1,TWOSPEED HEAT PUMP 1,Unitary System DX Coil Cycling Ratio [] !TimeStep,REPORTSCH
687,1,TWOSPEED HEAT PUMP 1,Unitary System DX Coil Speed Ratio [] !TimeStep,REPORTSCH
688,1,TWOSPEED HEAT PUMP 1,Unitary System DX Coil Speed Level [] !TimeStep
End of Data Dictionary
1,RUN PERIOD 1,  41.98, -87.92,  -6.00, 201.00
2,21, 1,21, 0, 1, 0.00,10.00,Monday
250,22.337052308835162
251,6528014.007103684
336,0.0
385,22.3
386,25.22
387,0.6174791701129443
388,0.0
425,0.0
450,0.0
451,0.0
452,-1.6318130600555043
453,0.0
490,0.0
515,0.0
516,0.0
542,0.0
592,3317903.7250307514
632,3173493.7123105563
686,0.7490164502576243
687,0.5
688,1.25
2,21, 1,21, 0, 1,10.00,20.00,Monday
250,22.336089227374714
251,6527984.96302355
336,0.0
385,22.3
386,25.22
387,0.5899186576883502
388,0.0
425,0.0
450,0.0
451,0.0
452,-1.6196193449696956
453,0.0
490,0.0
515,0.0
516,0.0
542,0.0
592,3312689.1213540668
632,3177869.88532924
686,0.75
687,0.5015565260185102
688,1.5
2,21, 1,21, 0, 1,20.00,30.00,Monday
250,22.335062454023777
251,6546557.13714099
336,0.0
385,22.3
386,25.22
387,0.5634934753105916
388,0.0
425,0.0
450,0.0
451,0.0
452,-1.6107377783586783
453,0.0
490,0.0
515,0.0
516,0.0
542,0.0
592,3310065.083299755
632,3199040.215025376
686,0.75
687,0.5076455060719222
688,1.5
2,21, 1,21, 0, 1,30.00,40.00,Monday
250,22.333984389008407
251,6565392.398351419
336,0.0
385,22.3
386,25.22
387,0.5377780638377477
388,0.0
425,0.0
450,0.0
451,0.0
452,-1.6049821381994667
453,0.0
490,0.0
515,0.0
516,0.0
542,0.0
592,3307588.1692287675
632,3220363.121948925
686,0.75
687,0.513883869835352
688,1.5
2,21, 1,21, 0, 1,40.00,50.00,Monday
250,22.332907950163108
251,6584403.740173413
336,0.0
385,22.3
386,25.22
387,0.5124916626003075
388,0.0
425,0.0
450,0.0
451,0.0
452,-1.6016344935991715
453,0.0
490,0.0
515,0.0
516,0.0
542,0.0
592,3305146.9742977945
632,3241813.8966855146
686,0.75
687,0.52018935560307
688,1.5
2,21, 1,21, 0, 1,50.00,60.00,Monday
250,22.33183849667844
251,6603325.537223106
336,0.0
385,22.3
386,25.22
387,0.4874760399538438
388,0.0
425,0.0
450,0.0
451,0.0
452,-1.6000949532106632
453,0.0
490,0.0
515,0.0
516,0.0
542,0.0
592,3302675.3653313294
632,3263202.315939733
686,0.75
687,0.5265127751504006
688,1.5
2,21, 1,21, 0, 2, 0.00,10.00,Monday
250,22.331396915974338
251,6613100.789355483
336,0.0
385,22.3
386,25.22
387,0.46263402483023247
388,0.0
425,0.0
450,0.0
451,0.0
452,-1.6008941820090243
453,0.0
490,0.0
515,0.0
516,0.0
542,0.0
592,3305304.7501381906
632,3270463.5313357906
686,0.75
687,0.5284944638918677
688,1.5
2,21, 1,21, 0, 2,10.00,20.00,Monday
250,22.330978841581633
251,6620596.162607616
336,0.0
385,22.3
386,25.22
387,0.4378503472450524
388,0.0
425,0.0
450,0.0
451,0.0
452,-1.60538856857034
453,0.0
490,0.0
515,0.0
516,0.0
542,0.0
592,3307567.985839042
632,3275737.5670177946
686,0.75
687,0.5302002891577571
688,1.5
2,21, 1,21, 0, 2,20.00,30.00,Monday
250,22.330587932981413
251,6627682.150811848
336,0.0
385,22.3
386,25.22
387,0.41298674282737274
388,0.0
425,0.0
450,0.0
451,0.0
452,-1.6140411896899232
453,0.0
490,0.0
515,0.0
516,0.0
542,0.0
592,3309696.54759551
632,3280732.6146746036
686,0.75
687,0.5318046243203552
688,1.5
2,21, 1,21, 0, 2,30.00,40.00,Monday
250,22.330220945421946
251,6634350.909710084
336,0.0
385,22.3
386,25.22
387,0.38793562023368733
388,0.0
425,0.0
450,0.0
451,0.0
452,-1.6263479599431783
453,0.0
490,0.0
515,0.0
516,0.0
542,0.0
592,3311703.255902551
632,3285424.2882431047
686,0.75
687,0.5333171303028186
688,1.5
2,21, 1,21, 0, 2,40.00,50.00,Monday
250,22.329876438514496
251,6640628.250684671
336,0.0
385,22.3
386,25.22
387,0.3626428587273165
388,0.0
425,0.0
450,0.0
451,0.0
452,-1.6416628326127072
453,0.0
490,0.0
515,0.0
516,0.0
542,0.0
592,3313593.3442440936
632,3289836.499672898
686,0.75
687,0.5347417473357783
688,1.5
2,21, 1,21, 0, 2,50.00,60.00,Monday
250,22.329550100221148
251,6646574.227944941
336,0.0
385,22.3
386,25.22
387,0.3369832417734396
388,0.0
425,0.0
450,0.0
451,0.0
452,-1.6596852891236404
453,0.0
490,0.0
515,0.0
516,0.0
542,0.0
592,3315385.848155427
632,3294010.9235201245
686,0.75
687,0.5360928196814074
688,1.5
2,21, 1,21, 0, 3, 0.00,10.00,Monday
250,22.32864367108124
251,6660679.548715196
336,0.0
385,22.3
386,25.22
387,0.3114893198281086
388,0.0
425,0.0
450,0.0
451,0.0
452,-1.6774870811650417
453,0.0
490,0.0
515,0.0
516,0.0
542,0.0
592,3319883.7522852556
632,3303581.9847756196
686,0.75
687,0.5394830669315127
688,1.5
2,21, 1,21, 0, 3,10.00,20.00,Monday
250,22.327752476420148
251,6676365.827025532
336,0.0
385,22.3
386,25.22
387,0.28690892538234564
388,0.0
425,0.0
450,0.0
451,0.0
452,-1.6902060700019212
453,0.0
490,0.0
515,0.0
516,0.0
542,0.0
592,3324531.7124340176
632,3314657.049258063
686,0.75
687,0.5429863387457619
688,1.5
2,21, 1,21, 0, 3,20.00,30.00,Monday
250,22.326870928413474
251,6691807.715017801
336,0.0
385,22.3
386,25.22
387,0.26338978691276344
388,0.0
425,0.0
450,0.0
451,0.0
452,-1.6955616989558824
453,0.0
490,0.0
515,0.0
516,0.0
542,0.0
592,3329119.226479379
632,3325546.0059998827
686,0.75
687,0.5464440547685676
688,1.5
2,21, 1,21, 0, 3,30.00,40.00,Monday
250,22.32600391807136
251,6707018.997853488
336,0.0
385,22.3
386,25.22
387,0.24093996106311996
388,0.0
425,0.0
450,0.0
451,0.0
452,-1.6945604086380335
453,0.0
490,0.0
515,0.0
516,0.0
542,0.0
592,3333635.8185951686
632,3336274.2709771236
686,0.75
687,0.5498483157721832
688,1.5
2,21, 1,21, 0, 3,40.00,50.00,Monday
250,22.325154730499424
251,6721934.172469162
336,0.0
385,22.3
386,25.22
387,0.21958542983168047
388,0.0
425,0.0
450,0.0
451,0.0
452,-1.68919435997207
453,0.0
490,0.0
515,0.0
516,0.0
542,0.0
592,3338062.8545943517
632,3346794.947499388
686,0.75
687,0.5531850759480683
688,1.5
2,21, 1,21, 0, 3,50.00,60.00,Monday
250,22.324325026496247
251,6736517.392476754
336,0.0
385,22.3
386,25.22
387,0.1992963671571799
388,0.0
425,0.0
450,0.0
451,0.0
452,-1.680567823700726
453,0.0
490,0.0
515,0.0
516,0.0
542,0.0
592,3342390.2675756756
632,3357082.198003072
686,0.75
687,0.5564467470298728
688,1.5
2,21, 1,21, 0, 4, 0.00,10.00,Monday
250,22.320034322846
251,6799133.061720099
336,0.0
385,22.3
386,25.22
387,0.1757060389487904
388,0.0
425,0.0
450,0.0
451,0.0
452,-1.6712095730893104
453,0.0
490,0.0
515,0.0
516,0.0
542,0.0
592,3360312.8599022683
632,3401481.5420047715
686,0.75
687,0.5725560052565531
688,1.5
2,21, 1,21, 0, 4,10.00,20.00,Monday
250,22.315679688889283
251,6873364.51866483
336,0.0
385,22.3
386,25.22
387,0.14697428330331763
388,0.0
425,0.0
450,0.0
451,0.0
452,-1.6639982026787017
453,0.0
490,0.0
515,0.0
516,0.0
542,0.0
592,3379789.1678714114
632,3456379.917000515
686,0.75
687,0.5899115103815864
688,1.5
2,21, 1,21, 0, 4,20.00,30.00,Monday
250,22.31125774705021
251,6948469.433493222
336,0.0
385,22.3
386,25.22
387,0.11549631293979423
388,0.0
425,0.0
450,0.0
451,0.0
452,-1.660783067892535
453,0.0
490,0.0
515,0.0
516,0.0
542,0.0
592,3399509.28221795
632,3511906.6032786956
686,0.75
687,0.6075279466813354
688,1.5
2,21, 1,21, 0, 4,30.00,40.00,Monday
250,22.306798735130627
251,7024396.369617522
336,0.0
385,22.3
386,25.22
387,0.08244555861498314
388,0.0
425,0.0
450,0.0
451,0.0
452,-1.662795189193244
453,0.0
490,0.0
515,0.0
516,0.0
542,0.0
592,3419385.8039458916
632,3568094.911686393
686,0.75
687,0.6253409895200134
688,1.5
2,21, 1,21, 0, 4,40.00,50.00,Monday
250,22.30230993144789
251,7100934.571231918
336,0.0
385,22.3
386,25.22
387,0.048148839877537736
388,0.0
425,0.0
450,0.0
451,0.0
452,-1.6705776587403933
453,0.0
490,0.0
515,0.0
516,0.0
542,0.0
592,3439366.924744185
632,3624785.948488497
686,0.75
687,0.6433133156796151
688,1.5
2,21, 1,21, 0, 4,50.00,60.00,Monday
250,22.297790989615727
251,7178059.514823101
336,0.0
385,22.3
386,25.22
387,0.01238767477925364
388,0.0
425,0.0
450,0.0
451,0.0
452,-1.6826305260124492
453,0.0
490,0.0
515,0.0
516,0.0
542,0.0
592,3459448.4927581456
632,3681959.1050357334
686,0.75
687,0.6614434334781472
688,1.5
2,21, 1,21, 0, 5, 0.00,10.00,Monday
250,22.29917233142629
251,7173140.759317791
336,0.0
385,22.3
386,25.22
387,-0.01582022008259217
388,0.0
425,0.0
450,0.0
451,0.0
452,-1.6924865468972174
453,0.0
490,0.0
515,0.0
516,0.0
542,0.0
592,3452054.3022943493
632,3685068.211509488
686,0.75
687,0.6590252294737727
688,1.5
2,21, 1,21, 0, 5,10.00,20.00,Monday
250,22.300659288611897
251,7148598.772396854
336,0.0
385,22.3
386,25.22
387,-0.0327757511630478
388,0.0
425,0.0
450,0.0
451,0.0
452,-1.694680001576998
453,0.0
490,0.0
515,0.0
516,0.0
542,0.0
592,3441729.370091616
632,3670725.274727828
686,0.75
687,0.6546023408900858
688,1.5
2,21, 1,21, 0, 5,20.00,30.00,Monday
250,22.302246871954527
251,7122819.4051435925
336,0.0
385,22.3
386,25.22
387,-0.04385178426376175
388,0.0
425,0.0
450,0.0
451,0.0
452,-1.6870151099938515
453,0.0
490,0.0
515,0.0
516,0.0
542,0.0
592,3430725.817165127
632,3655825.335285034
686,0.75
687,0.6498690507318013
688,1.5
2,21, 1,21, 0, 5,30.00,40.00,Monday
250,22.30388238613068
251,7095929.285198316
336,0.0
385,22.3
386,25.22
387,-0.05157361723577934
388,0.0
425,0.0
450,0.0
451,0.0
452,-1.6695363021061502
453,0.0
490,0.0
515,0.0
516,0.0
542,0.0
592,3419197.7933006845
632,3640350.2190011977
686,0.75
687,0.6449417404801676
688,1.5
2,21, 1,21, 0, 5,40.00,50.00,Monday
250,22.305550865612393
251,7068341.572406921
336,0.0
385,22.3
386,25.22
387,-0.056590834915086624
388,0.0
425,0.0
450,0.0
451,0.0
452,-1.6439321288404454
453,0.0
490,0.0
515,0.0
516,0.0
542,0.0
592,3407250.8952775877
632,3624602.7267195545
686,0.75
687,0.6399009145335024
688,1.5
2,21, 1,21, 0, 5,50.00,60.00,Monday
250,22.30724627755537
251,7040210.836677171
336,0.0
385,22.3
386,25.22
387,-0.0590605556745951
388,0.0
425,0.0
450,0.0
451,0.0
452,-1.6122432395635384
453,0.0
490,0.0
515,0.0
516,0.0
542,0.0
592,3394926.2849085163
632,3608695.08254735
686,0.75
687,0.634778502045039
688,1.5
2,21, 1,21, 0, 6, 0.00,10.00,Monday
250,22.304428252542785
251,7074409.978455147
336,0.0
385,22.3
386,25.22
387,-0.06772416140155506
388,0.0
425,0.0
450,0.0
451,0.0
452,-1.5834159620490655
453,0.0
490,0.0
515,0.0
516,0.0
542,0.0
592,3405408.3308925964
632,3631945.491600912
686,0.75
687,0.6449833433994978
688,1.5
2,21, 1,21, 0, 6,10.00,20.00,Monday
250,22.301542035438725
251,7123434.439067494
336,0.0
385,22.3
386,25.22
387,-0.0863729949653979
388,0.0
425,0.0
450,0.0
451,0.0
452,-1.567176272595525
453,0.0
490,0.0
515,0.0
516,0.0
542,0.0
592,3417823.5120745585
632,3668673.943272067
686,0.75
687,0.6567489070730019
688,1.5
2,21, 1,21, 0, 6,20.00,30.00,Monday
250,22.298569600332257
251,7173445.261615245
336,0.0
385,22.3
386,25.22
387,-0.11053498679266821
388,0.0
425,0.0
450,0.0
451,0.0
452,-1.566114995712601
453,0.0
490,0.0
515,0.0
516,0.0
542,0.0
592,3430534.2229643296
632,3706090.0854398636
686,0.75
687,0.6688232744921845
688,1.5
2,21, 1,21, 0, 6,30.00,40.00,Monday
250,22.295561086337045
251,7224338.884110909
336,0.0
385,22.3
386,25.22
387,-0.13814172288128357
388,0.0
425,0.0
450,0.0
451,0.0
452,-1.578586593993522
453,0.0
490,0.0
515,0.0
516,0.0
542,0.0
592,3443411.2405797085
632,3744211.414725356
686,0.75
687,0.6811083414805407
688,1.5
2,21, 1,21, 0, 6,40.00,50.00,Monday
250,22.292524948667847
251,7275784.943426271
336,0.0
385,22.3
386,25.22
387,-0.16855919543162723
388,0.0
425,0.0
450,0.0
451,0.0
452,-1.6022518040285592
453,0.0
490,0.0
515,0.0
516,0.0
542,0.0
592,3456370.352740329
632,3782795.3241438074
686,0.75
687,0.6935406661662064
688,1.5
2,21, 1,21, 0, 6,50.00,60.00,Monday
250,22.28946855331599
251,7327654.4029468335
336,0.0
385,22.3
386,25.22
387,-0.20148663562979013
388,0.0
425,0.0
450,0.0
451,0.0
452,-1.6347847191303415
453,0.0
490,0.0
515,0.0
516,0.0
542,0.0
592,3469375.4871041747
632,3821750.1276103156
686,0.75
687,0.7060935500669794
688,1.5
2,21, 1,21, 0, 7, 0.00,10.00,Monday
250,22.286156205489725
251,7381659.882841384
336,0.0
385,22.3
386,25.22
387,-0.24026686456566232
388,0.0
425,0.0
450,0.0
451,0.0
452,-1.6860046553934582
453,0.0
490,0.0
515,0.0
516,0.0
542,0.0
592,3496263.9345831764
632,3849176.688640573
686,0.75
687,0.7143418710009078
688,1.5
2,21, 1,21, 0, 7,10.00,20.00,Monday
250,22.28514786599367
251,7405237.094719302
336,0.0
385,22.3
386,25.22
387,-0.2883946118337388
388,0.0
425,0.0
450,0.0
451,0.0
452,-1.7751904260299596
453,0.0
490,0.0
515,0.0
516,0.0
542,0.0
592,3512842.0846059965
632,3856679.5124040223
686,0.75
687,0.7150388907366808
688,1.5
2,21, 1,21, 0, 7,20.00,30.00,Monday
250,22.28421323425053
251,7420882.98585888
336,0.0
385,22.3
386,25.22
387,-0.3456616624825335
388,0.0
425,0.0
450,0.0
451,0.0
452,-1.9099032546078916
453,0.0
490,0.0
515,0.0
516,0.0
542,0.0
592,3527991.374100957
632,3857318.889319949
686,0.75
687,0.7149827535130692
688,1.5
2,21, 1,21, 0, 7,30.00,40.00,Monday
250,22.283329997948165
251,7435948.619336875
336,0.0
385,22.3
386,25.22
387,-0.4110146767189018
388,0.0
425,0.0
450,0.0
451,0.0
452,-2.085146698832683
453,0.0
490,0.0
515,0.0
516,0.0
542,0.0
592,3542659.1233592755
632,3857812.307095115
686,0.75
687,0.7148895439598825
688,1.5
2,21, 1,21, 0, 7,40.00,50.00,Monday
250,22.282461138139336
251,7450601.622519475
336,0.0
385,22.3
386,25.22
387,-0.48373890162377264
388,0.0
425,0.0
450,0.0
451,0.0
452,-2.2941500679361844
453,0.0
490,0.0
515,0.0
516,0.0
542,0.0
592,3556920.4705974627
632,3858307.249624935
686,0.75
687,0.7148120773013323
688,1.5
2,21, 1,21, 0, 7,50.00,60.00,Monday
250,22.28159919232747
251,7465083.9480674565
336,0.0
385,22.3
386,25.22
387,-0.5635982657050018
388,0.0
425,0.0
450,0.0
451,0.0
452,-2.5319383283371435
453,0.0
490,0.0
515,0.0
516,0.0
542,0.0
592,3570847.8242954826
632,3858961.845148718
686,0.75
687,0.7148002015976903
688,1.5
2,21, 1,21, 0, 8, 0.00,10.00,Monday
250,22.299008320575624
251,7231466.409299398
336,0.0
385,22.3
386,25.22
387,-0.6403955437122464
388,0.0
425,0.0
450,0.0
451,0.0
452,-2.7718575224031206
453,0.0
490,0.0
515,0.0
516,0.0
542,0.0
592,3499960.684013669
632,3697813.8579044836
686,0.75
687,0.6566060640880161
688,1.5
2,21, 1,21, 0, 8,10.00,20.00,Monday
250,22.302891717827084
251,7122676.8941437155
336,0.0
385,22.3
386,25.22
387,-0.7007323452000513
388,0.0
425,0.0
450,0.0
451,0.0
452,-2.918494739615377
453,0.0
490,0.0
515,0.0
516,0.0
542,0.0
592,3480406.4589407993
632,3606699.7108948873
686,0.75
687,0.6365650085507466
688,1.5
2,21, 1,21, 0, 8,20.00,30.00,Monday
250,22.30497917962601
251,7080212.087923786
336,0.0
385,22.3
386,25.22
387,-0.7444382530530038
388,0.0
425,0.0
450,0.0
451,0.0
452,-2.918665979327825
453,0.0
490,0.0
515,0.0
516,0.0
542,0.0
592,3473480.3103792155
632,3570882.461010082
686,0.75
687,0.6259020222010916
688,1.5
2,21, 1,21, 0, 8,30.00,40.00,Monday
250,22.30849501045836
251,7024395.001556139
336,0.0
385,22.3
386,25.22
387,-0.7729400866254142
388,0.0
425,0.0
450,0.0
451,0.0
452,-2.790381559450158
453,0.0
490,0.0
515,0.0
516,0.0
542,0.0
592,3461632.77708111
632,3526995.6703694183
686,0.75
687,0.6116677664036454
688,1.5
2,21, 1,21, 0, 8,40.00,50.00,Monday
250,22.31290776506681
251,6949536.2332206
336,0.0
385,22.3
386,25.22
387,-0.7832324574229901
388,0.0
425,0.0
450,0.0
451,0.0
452,-2.539478049933193
453,0.0
490,0.0
515,0.0
516,0.0
542,0.0
592,3444217.383775691
632,3469542.772495828
686,0.75
687,0.5934128435282038
688,1.5
2,21, 1,21, 0, 8,50.00,60.00,Monday
250,22.31806263111315
251,6861162.228947706
336,0.0
385,22.3
386,25.22
387,-0.772915003201887
388,0.0
425,0.0
450,0.0
451,0.0
452,-2.1756045837693234
453,0.0
490,0.0
515,0.0
516,0.0
542,0.0
592,3422822.8482115255
632,3402508.3671726547
686,0.75
687,0.5723255096325808
688,1.5
2,21, 1,21, 0, 9, 0.00,10.00,Monday
250,22.336392935007524
251,6592480.409567634
336,0.0
385,22.3
386,25.22
387,-0.7387915604871719
388,0.0
425,0.0
450,0.0
451,0.0
452,-1.7245353547374933
453,0.0
490,0.0
515,0.0
516,0.0
542,0.0
592,3346523.201969016
632,3211059.64971303
686,0.75
687,0.5077603020684476
688,1.5
2,21, 1,21, 0, 9,10.00,20.00,Monday
250,22.342000038739002
251,6457241.7440682165
336,0.0
385,22.3
386,25.22
387,-0.682164989163663
388,0.0
425,0.0
450,0.0
451,0.0
452,-1.1909513110908527
453,0.0
490,0.0
515,0.0
516,0.0
542,0.0
592,3321914.949215658
632,3098831.639177275
686,0.7426817155880907
687,0.5
688,1.25
2,21, 1,21, 0, 9,20.00,30.00,Monday
250,22.347588406212235
251,6364265.576410915
336,0.0
385,22.3
386,25.22
387,-0.608211571545376
388,0.0
425,0.0
450,0.0
451,0.0
452,-0.596680138603224
453,0.0
490,0.0
515,0.0
516,0.0
542,0.0
592,3302898.6685719267
632,3024874.868957968
686,0.7339782740531915
687,0.5
688,1.25
2,21, 1,21, 0, 9,30.00,40.00,Monday
250,22.352130988984378
251,6283972.631264699
336,0.0
385,22.3
386,25.22
387,-0.5229157727456648
388,0.0
425,0.0
450,0.0
451,0.0
452,0.02415468608117749
453,0.0
490,0.0
515,0.0
516,0.0
542,0.0
592,3288200.211331618
632,2959198.1692253067
686,0.7265267078844442
687,0.5
688,1.25
2,21, 1,21, 0, 9,40.00,50.00,Monday
250,22.356141209468205
251,6214636.89976068
336,0.0
385,22.3
386,25.22
387,-0.4419805703160743
388,0.0
425,0.0
450,0.0
451,0.0
452,0.6317900711061849
453,0.0
490,0.0
515,0.0
516,0.0
542,0.0
592,3276569.65696673
632,2901469.8522704453
686,0.7199643265086454
687,0.5
688,1.25
2,21, 1,21, 0, 9,50.00,60.00,Monday
250,22.358976658369233
251,6163283.87550614
336,0.0
385,22.3
386,25.22
387,-0.3584652667402194
388,0.0
425,0.0
450,0.0
451,0.0
452,1.202097571068217
453,0.0
490,0.0
515,0.0
516,0.0
542,0.0
592,3270632.630059451
632,2855961.5797772366
686,0.7150100319673159
687,0.5
688,1.25
2,21, 1,21, 0,10, 0.00,10.00,Monday
250,22.362744938580576
251,6096333.22614881
336,0.0
385,22.3
386,25.22
387,-0.2641397843573843
388,0.0
425,0.0
450,0.0
451,0.0
452,1.7427015520397615
453,0.0
490,0.0
515,0.0
516,0.0
542,0.0
592,3266430.97488098
632,2793442.6189999618
686,0.707823412732248
687,0.5
688,1.25
2,21, 1,21, 0,10,10.00,20.00,Monday
250,22.367039390330383
251,6023229.152105875
336,0.0
385,22.3
386,25.22
387,-0.16176288950569276
388,0.0
425,0.0
450,0.0
451,0.0
452,2.286153684297681
453,0.0
490,0.0
515,0.0
516,0.0
542,0.0
592,3261435.193215771
632,2725519.7268374404
686,0.700514581778312
687,0.5
688,1.25
2,21, 1,21, 0,10,20.00,30.00,Monday
250,22.37140193116253
251,5949601.464850276
336,0.0
385,22.3
386,25.22
387,-0.04954854990733374
388,0.0
425,0.0
450,0.0
451,0.0
452,2.851117321615201
453,0.0
490,0.0
515,0.0
516,0.0
542,0.0
592,3256523.2244352493
632,2656911.561773626
686,0.6933249028570336
687,0.5
688,1.25
2,21, 1,21, 0,10,30.00,40.00,Monday
250,22.376858965285123
251,5861123.44211185
336,0.0
385,22.3
386,25.22
387,0.0734725457489369
388,0.0
425,0.0
450,0.0
451,0.0
452,3.4527526698094833
453,0.0
490,0.0
515,0.0
516,0.0
542,0.0
592,3246792.6695783287
632,2578369.4634796563
686,0.6849262772252591
687,0.5
688,1.25
2,21, 1,21, 0,10,40.00,50.00,Monday
250,22.38385218396546
251,5748828.308733166
336,0.0
385,22.3
386,25.22
387,0.2130299435457837
388,0.0
425,0.0
450,0.0
451,0.0
452,4.121891792083522
453,0.0
490,0.0
515,0.0
516,0.0
542,0.0
592,3229980.8664885433
632,2483119.1111163045
686,0.6747343346428583
687,0.5
688,1.25
2,21, 1,21, 0,10,50.00,60.00,Monday
250,22.390708031364575
251,5630820.863089672
336,0.0
385,22.3
386,25.22
387,0.3716616787585097
388,0.0
425,0.0
450,0.0
451,0.0
452,4.873883150083722
453,0.0
490,0.0
515,0.0
516,0.0
542,0.0
592,3211652.050144241
632,2383490.9497010214
686,0.664268510951584
687,0.5
688,1.25
2,21, 1,21, 0,11, 0.00,10.00,Monday
250,22.397370713182823
251,5516313.168031389
336,0.0
385,22.3
386,25.22
387,0.542633380962545
388,0.0
425,0.0
450,0.0
451,0.0
452,5.6927614595416784
453,0.0
490,0.0
515,0.0
516,0.0
542,0.0
592,3186739.1566422423
632,2293889.4171810206
686,0.654590503811863
687,0.5
688,1.25
2,21, 1,21, 0,11,10.00,20.00,Monday
250,22.40396178499927
251,5402961.388050898
336,0.0
385,22.3
386,25.22
387,0.7252120512800354
388,0.0
425,0.0
450,0.0
451,0.0
452,6.5585211930731315
453,0.0
490,0.0
515,0.0
516,0.0
542,0.0
592,3161935.48878302
632,2205353.8847538354
686,0.645010114933138
687,0.5
688,1.25
2,21, 1,21, 0,11,20.00,30.00,Monday
250,22.411366890927333
251,5278909.817015264
336,0.0
385,22.3
386,25.22
387,0.9216556949318274
388,0.0
425,0.0
450,0.0
451,0.0
452,7.471196630593073
453,0.0
490,0.0
515,0.0
516,0.0
542,0.0
592,3133478.671967953
632,2109880.9459549487
686,0.6345325399665277
687,0.5
688,1.25
2,21, 1,21, 0,11,30.00,40.00,Monday
250,22.417062079582806
251,5170968.37015205
336,0.0
385,22.3
386,25.22
387,1.1315722943323288
388,0.0
425,0.0
450,0.0
451,0.0
452,8.391605736782434
453,0.0
490,0.0
515,0.0
516,0.0
542,0.0
592,3109805.4256490637
632,2025479.1446404527
686,0.6253877027000122
687,0.5
688,1.25
2,21, 1,21, 0,11,40.00,50.00,Monday
250,22.42185822806905
251,5083874.923264265
336,0.0
385,22.3
386,25.22
387,1.350232008701557
388,0.0
425,0.0
450,0.0
451,0.0
452,9.24359311189423
453,0.0
490,0.0
515,0.0
516,0.0
542,0.0
592,3092468.398692583
632,1955668.2610254392
686,0.6179691681355772
687,0.5
688,1.25
2,21, 1,21, 0,11,50.00,60.00,Monday
250,22.42550998022286
251,5013379.765376262
336,0.0
385,22.3
386,25.22
387,1.5707211855548262
388,0.0
425,0.0
450,0.0
451,0.0
452,9.99051835999613
453,0.0
490,0.0
515,0.0
516,0.0
542,0.0
592,3079695.464506897
632,1897878.1509647917
686,0.6117955014910604
687,0.5
688,1.25
2,21, 1,21, 0,12, 0.00,10.00,Monday
250,22.427156162093166
251,4974333.264833769
336,0.0
385,22.3
386,25.22
387,1.7863953410821662
388,0.0
425,0.0
450,0.0
451,0.0
452,10.620986204858152
453,0.0
490,0.0
515,0.0
516,0.0
542,0.0
592,3071518.4642507616
632,1866801.255723463
686,0.6085424445811248
687,0.5
688,1.25
2,21, 1,21, 0,12,10.00,20.00,Monday
250,22.428749409956684
251,4951922.370943432
336,0.0
385,22.3
386,25.22
387,1.9920526364921536
388,0.0
425,0.0
450,0.0
451,0.0
452,11.11705307017849
453,0.0
490,0.0
515,0.0
516,0.0
542,0.0
592,3069718.9378378233
632,1846147.994588448
686,0.6069611058956498
687,0.5
688,1.25
2,21, 1,21, 0,12,20.00,30.00,Monday
250,22.430275659022392
251,4931763.75041331
336,0.0
385,22.3
386,25.22
387,2.183179356798675
388,0.0
425,0.0
450,0.0
451,0.0
452,11.485423952315076
453,0.0
490,0.0
515,0.0
516,0.0
542,0.0
592,3050223.004581443
632,1847342.845912653
686,0.6057786116441638
687,0.48686760216687464
688,1.25
2,21, 1,21, 0,12,30.00,40.00,Monday
250,22.431299888460963
251,4909170.007202951
336,0.0
385,22.3
386,25.22
387,2.355011907172896
388,0.0
425,0.0
450,0.0
451,0.0
452,11.728090768189368
453,0.0
490,0.0
515,0.0
516,0.0
542,0.0
592,3029910.799197272
632,1846765.82451796
686,0.603936906309502
687,0.4749525466414414
688,1.25
2,21, 1,21, 0,12,40.00,50.00,Monday
250,22.432084879318833
251,4889183.753816506
336,0.0
385,22.3
386,25.22
387,2.5039950279453493
388,0.0
425,0.0
450,0.0
451,0.0
452,11.82136247113669
453,0.0
490,0.0
515,0.0
516,0.0
542,0.0
592,3015067.971192063
632,1842821.646435255
686,0.6020745007012622
687,0.46686552155350025
688,1.25
2,21, 1,21, 0,12,50.00,60.00,Monday
250,22.43279294942729
251,4868430.117739354
336,0.0
385,22.3
386,25.22
387,2.629242731408737
388,0.0
425,0.0
450,0.0
451,0.0
452,11.773701148829128
453,0.0
490,0.0
515,0.0
516,0.0
542,0.0
592,3002839.1481516943
632,1835156.6394768306
686,0.5999148275118984
687,0.4613732067143701
688,1.25
2,21, 1,21, 0,13, 0.00,10.00,Monday
250,22.433337521679967
251,4842439.776831117
336,0.0
385,22.3
386,25.22
387,2.7340065606347133
388,0.0
425,0.0
450,0.0
451,0.0
452,11.654258347152943
453,0.0
490,0.0
515,0.0
516,0.0
542,0.0
592,2989675.902132759
632,1822422.8211895255
686,0.5970395594151966
687,0.4613910385829335
688,1.25
2,21, 1,21, 0,13,10.00,20.00,Monday
250,22.436459421543432
251,4802831.396088753
336,0.0
385,22.3
386,25.22
387,2.8238973059328454
388,0.0
425,0.0
450,0.0
451,0.0
452,11.544030384478111
453,0.0
490,0.0
515,0.0
516,0.0
542,0.0
592,2956753.6016198075
632,1817994.7813958821
686,0.5942224031763376
687,0.447781637898823
688,1.25
2,21, 1,21, 0,13,20.00,30.00,Monday
250,22.439497556598138
251,4748277.44020233
336,0.0
385,22.3
386,25.22
387,2.904021002867137
388,0.0
425,0.0
450,0.0
451,0.0
452,11.47638949783374
453,0.0
490,0.0
515,0.0
516,0.0
542,0.0
592,2903895.9166729613
632,1819863.391488516
686,0.5902753729838097
687,0.42351555936001994
688,1.25
2,21, 1,21, 0,13,30.00,40.00,Monday
250,22.442427160453544
251,4694425.799955614
336,0.0
385,22.3
386,25.22
387,2.979338056515223
388,0.0
425,0.0
450,0.0
451,0.0
452,11.442378820485787
453,0.0
490,0.0
515,0.0
516,0.0
542,0.0
592,2851204.6679584477
632,1822302.2794933587
686,0.5863742255831588
687,0.3991967090848537
688,1.25
2,21, 1,21, 0,13,40.00,50.00,Monday
250,22.44532936709479
251,4640160.564904412
336,0.0
385,22.3
386,25.22
387,3.0529272375725767
388,0.0
425,0.0
450,0.0
451,0.0
452,11.425214324428373
453,0.0
490,0.0
515,0.0
516,0.0
542,0.0
592,2799355.669442833
632,1823410.81150165
686,0.5823465133903951
687,0.37573910295521584
688,1.25
2,21, 1,21, 0,13,50.00,60.00,Monday
250,22.448195018073857
251,4586054.045623511
336,0.0
385,22.3
386,25.22
387,3.1254161108554026
388,0.0
425,0.0
450,0.0
451,0.0
452,11.4139574534005
453,0.0
490,0.0
515,0.0
516,0.0
542,0.0
592,2747971.720745432
632,1824194.1939557819
686,0.5782957930128592
687,0.3526143425879875
688,1.25
2,21, 1,21, 0,14, 0.00,10.00,Monday
250,22.45213674914716
251,4517145.359160701
336,0.0
385,22.3
386,25.22
387,3.1981740698806753
388,0.0
425,0.0
450,0.0
451,0.0
452,11.372093782134359
453,0.0
490,0.0
515,0.0
516,0.0
542,0.0
592,2690793.109664051
632,1816961.947043519
686,0.5726969834399313
687,0.3239915175409087
688,1.25
2,21, 1,21, 0,14,10.00,20.00,Monday
250,22.4535543940698
251,4475589.101388596
336,0.0
385,22.3
386,25.22
387,3.2693410826326703
388,0.0
425,0.0
450,0.0
451,0.0
452,11.256018627317946
453,0.0
490,0.0
515,0.0
516,0.0
542,0.0
592,2647278.494749362
632,1822578.6093014528
686,0.5694745281557452
687,0.298602577494174
688,1.25
2,21, 1,21, 0,14,20.00,30.00,Monday
250,22.455188675035707
251,4444153.586761806
336,0.0
385,22.3
386,25.22
387,3.3343828823930823
388,0.0
425,0.0
450,0.0
451,0.0
452,11.064615431429221
453,0.0
490,0.0
515,0.0
516,0.0
542,0.0
592,2621042.685920928
632,1819789.2005689691
686,0.5669106571152995
687,0.2833623099512971
688,1.25
2,21, 1,21, 0,14,30.00,40.00,Monday
250,22.45574246595488
251,4427234.102202802
336,0.0
385,22.3
386,25.22
387,3.3857716965951212
388,0.0
425,0.0
450,0.0
451,0.0
452,10.782950406300747
453,0.0
490,0.0
515,0.0
516,0.0
542,0.0
592,2604036.396241071
632,1821680.9737007099
686,0.5656025107635454
687,0.27118008753385825
688,1.25
2,21, 1,21, 0,14,40.00,50.00,Monday
250,22.45575595259182
251,4421484.799419643
336,0.0
385,22.3
386,25.22
387,3.4173320651039862
388,0.0
425,0.0
450,0.0
451,0.0
452,10.376048692023168
453,0.0
490,0.0
515,0.0
516,0.0
542,0.0
592,2600585.2264132043
632,1820086.5005960795
686,0.5649845343983075
687,0.2664498865068894
688,1.25
2,21, 1,21, 0,14,50.00,60.00,Monday
250,22.455387439425763
251,4423343.84149654
336,0.0
385,22.3
386,25.22
387,3.4280467791501508
388,0.0
425,0.0
450,0.0
451,0.0
452,9.847866644670276
453,0.0
490,0.0
515,0.0
516,0.0
542,0.0
592,2605590.586054525
632,1816967.7458399425
686,0.5648733818061757
687,0.2661611594598579
688,1.25
2,21, 1,21, 0,15, 0.00,10.00,Monday
250,22.454128525139225
251,4437432.976515863
336,0.0
385,22.3
386,25.22
387,3.4158273119268907
388,0.0
425,0.0
450,0.0
451,0.0
452,9.23182746532129
453,0.0
490,0.0
515,0.0
516,0.0
542,0.0
592,2624005.927755644
632,1811939.927553696
686,0.5655490519469253
687,0.27035169806806164
688,1.25
2,21, 1,21, 0,15,10.00,20.00,Monday
250,22.453143715715534
251,4449371.197175838
336,0.0
385,22.3
386,25.22
387,3.3829095403069473
388,0.0
425,0.0
450,0.0
451,0.0
452,8.575328605846671
453,0.0
490,0.0
515,0.0
516,0.0
542,0.0
592,2647300.2684447593
632,1799312.5182108849
686,0.5657099017729204
687,0.2791462749305047
688,1.25
2,21, 1,21, 0,15,20.00,30.00,Monday
250,22.452107934629176
251,4460914.692480414
336,0.0
385,22.3
386,25.22
387,3.3351285076251354
388,0.0
425,0.0
450,0.0
451,0.0
452,7.9121165433952125
453,0.0
490,0.0
515,0.0
516,0.0
542,0.0
592,2669344.796870667
632,1787643.4465693613
686,0.5658631803899589
687,0.28705455321336815
688,1.25
2,21, 1,21, 0,15,30.00,40.00,Monday
250,22.452589003237357
251,4446118.875042421
336,0.0
385,22.3
386,25.22
387,3.280948470870031
388,0.0
425,0.0
450,0.0
451,0.0
452,7.262612872514975
453,0.0
490,0.0
515,0.0
516,0.0
542,0.0