Program Version,EnergyPlus, Version 24.2.0-94a887817b, YMD=2025.02.11 00:15
1,5,Environment Title[],Latitude[deg],Longitude[deg],Time Zone[],Elevation[m]
2,8,Day of Simulation[],Month[],Day of Month[],DST Indicator[1=yes 0=no],Hour[],StartMinute[],EndMinute[],DayType
3,5,Cumulative Day of Simulation[],Month[],Day of Month[],DST Indicator[1=yes 0=no],DayType  ! When Daily Meters Requested
4,2,Cumulative Days of Simulation[],Month[]  ! When Monthly Meters Requested
5,1,Cumulative Days of Simulation[] ! When Run Period Meters Requested
6,1,Calendar Year of Simulation[] ! When Annual Meters Requested
11,9,Electricity:Facility [J] !Monthly [Value,Min,Day,Hour,Minute,Max,Day,Hour,Minute]
23,9,Electricity:Building [J] !Monthly [Value,Min,Day,Hour,Minute,Max,Day,Hour,Minute]
59,9,InteriorLights:Electricity [J] !Monthly [Value,Min,Day,Hour,Minute,Max,Day,Hour,Minute]
521,9,Electricity:HVAC [J] !Monthly [Value,Min,Day,Hour,Minute,Max,Day,Hour,Minute]
637,9,NaturalGas:Facility [J] !Monthly [Value,Min,Day,Hour,Minute,Max,Day,Hour,Minute]
649,9,NaturalGas:HVAC [J] !Monthly [Value,Min,Day,Hour,Minute,Max,Day,Hour,Minute]
13,11,Electricity:Facility [J] !RunPeriod [Value,Min,Month,Day,Hour,Minute,Max,Month,Day,Hour,Minute]
25,11,Electricity:Building [J] !RunPeriod [Value,Min,Month,Day,Hour,Minute,Max,Month,Day,Hour,Minute]
61,11,InteriorLights:Electricity [J] !RunPeriod [Value,Min,Month,Day,Hour,Minute,Max,Month,Day,Hour,Minute]
523,11,Electricity:HVAC [J] !RunPeriod [Value,Min,Month,Day,Hour,Minute,Max,Month,Day,Hour,Minute]
639,11,NaturalGas:Facility [J] !RunPeriod [Value,Min,Month,Day,Hour,Minute,Max,Month,Day,Hour,Minute]
651,11,NaturalGas:HVAC [J] !RunPeriod [Value,Min,Month,Day,Hour,Minute,Max,Month,Day,Hour,Minute]
End of Data Dictionary
1,RUN PERIOD 1,  41.98, -87.92,  -6.00, 201.00
4,31, 1
11,8704647538.856731,345795.35945380456,11,19,10,3535605.981718751,14,13,20
23,1957731765.7043715,108273.17529810176,11,20,50,1084834.177354934,30,11,60
59,1062970175.4855751,32868.5892234274, 1, 1,10,657371.7844685479, 1, 8,10
521,6746915773.152363,0.0,11,13,30,2557647.8825767455,27,20,20
637,15249954790.479057,0.0, 1,10,20,19683358.72278478,31, 7,50
649,15249954790.479057,0.0, 1,10,20,19683358.72278478,31, 7,50
4,59, 2
11,7132253286.131726,254380.04031072542, 9,15,50,3540402.157884993, 4,14,50
23,1725952396.5481815,99999999999999.0,11,20,50,-99999999999999.0,30,11,60
59,929260754.5247052,99999999999999.0, 1, 1,10,-99999999999999.0, 1, 8,10
521,5406300889.583538,99999999999999.0,11,13,30,-99999999999999.0,27,20,20
637,12698620840.207138,99999999999999.0, 1,10,20,20376738.614416398, 3, 7,60
649,12698620840.207138,99999999999999.0, 1,10,20,20376738.614416398, 3, 7,60
4,90, 3
11,7019511850.931417,95093.35029123783,31,16,60,-99999999999999.0, 4,14,50
23,1820598103.945808,95093.35029123783,31,16,60,1094982.6738510276,18, 9,60
59,983296715.2080035,99999999999999.0, 1, 1,10,-99999999999999.0, 1, 8,10
521,5198913746.985601,99999999999999.0,11,13,30,-99999999999999.0,27,20,20
637,9154502398.953037,99999999999999.0, 1,10,20,-99999999999999.0, 3, 7,60
649,9154502398.953037,99999999999999.0, 1,10,20,-99999999999999.0, 3, 7,60
4,120, 4
11,4168702206.116083,32868.5892234274, 5, 3,40,-99999999999999.0, 4,14,50
23,1763259315.5361402,32868.5892234274, 5, 2,50,-99999999999999.0,18, 9,60
59,1018400368.4986116,99999999999999.0, 1, 1,10,-99999999999999.0, 1, 8,10
521,2405442890.579928,99999999999999.0,11,13,30,-99999999999999.0,27,20,20
637,3561205615.3768225,99999999999999.0, 1,10,20,-99999999999999.0, 3, 7,60
649,3561205615.3768225,99999999999999.0, 1,10,20,-99999999999999.0, 3, 7,60
4,151, 5
11,3050692013.852756,99999999999999.0, 5, 3,40,-99999999999999.0, 4,14,50
23,1757135904.5133655,99999999999999.0, 5, 2,50,-99999999999999.0,18, 9,60
59,1062970175.4855751,99999999999999.0, 1, 1,10,-99999999999999.0, 1, 8,10
521,1293556109.339429,99999999999999.0,11,13,30,-99999999999999.0,27,20,20
637,793514303.8907503,99999999999999.0, 1,10,20,-99999999999999.0, 3, 7,60
649,793514303.8907503,99999999999999.0, 1,10,20,-99999999999999.0, 3, 7,60
4,181, 6
11,2900371375.0442038,99999999999999.0, 5, 3,40,-99999999999999.0, 4,14,50
23,1496428428.0226362,99999999999999.0, 5, 2,50,-99999999999999.0,18, 9,60
59,938726908.2210305,99999999999999.0, 1, 1,10,-99999999999999.0, 1, 8,10
521,1403942947.0215707,99999999999999.0,11,13,30,-99999999999999.0,27,20,20
637,29918594.584733434,99999999999999.0, 1,10,20,-99999999999999.0, 3, 7,60
649,29918594.584733434,99999999999999.0, 1,10,20,-99999999999999.0, 3, 7,60
4,212, 7
11,3756821191.679969,99999999999999.0, 5, 3,40,-99999999999999.0, 4,14,50
23,1617372427.8897882,99999999999999.0, 5, 2,50,-99999999999999.0,18, 9,60
59,1062970175.4855751,99999999999999.0, 1, 1,10,-99999999999999.0, 1, 8,10
521,2139448763.7901855,99999999999999.0,11,13,30,-99999999999999.0,27,20,20
637,0.0,99999999999999.0, 1,10,20,-99999999999999.0, 3, 7,60
649,0.0,99999999999999.0, 1,10,20,-99999999999999.0, 3, 7,60
4,243, 8
11,3286740953.6203465,99999999999999.0, 5, 3,40,-99999999999999.0, 4,14,50
23,1592396157.0187404,99999999999999.0, 5, 2,50,-99999999999999.0,18, 9,60
59,1023133445.3467824,99999999999999.0, 1, 1,10,-99999999999999.0, 1, 8,10
521,1694344796.6016037,99999999999999.0,11,13,30,-99999999999999.0,27,20,20
637,7140387.597644013,99999999999999.0, 1,10,20,-99999999999999.0, 3, 7,60
649,7140387.597644013,99999999999999.0, 1,10,20,-99999999999999.0, 3, 7,60
4,273, 9
11,2613445464.4727716,99999999999999.0, 5, 3,40,-99999999999999.0, 4,14,50
23,1574865886.553093,99999999999999.0, 5, 2,50,-99999999999999.0,18, 9,60
59,978563638.3598205,99999999999999.0, 1, 1,10,-99999999999999.0, 1, 8,10
521,1038579577.9196877,99999999999999.0,11,13,30,-99999999999999.0,27,20,20
637,41790221.4918634,99999999999999.0, 1,10,20,-99999999999999.0, 3, 7,60
649,41790221.4918634,99999999999999.0, 1,10,20,-99999999999999.0, 3, 7,60
4,304,10
11,3348409584.3990555,99999999999999.0, 5, 3,40,-99999999999999.0, 4,14,50
23,1796309286.343717,99999999999999.0, 5, 2,50,-99999999999999.0,18, 9,60
59,1062970175.4855751,99999999999999.0, 1, 1,10,-99999999999999.0, 1, 8,10
521,1552100298.0553384,99999999999999.0,11,13,30,-99999999999999.0,27,20,20
637,1747279991.3356612,99999999999999.0, 1,10,20,-99999999999999.0, 3, 7,60
649,1747279991.3356612,99999999999999.0, 1,10,20,-99999999999999.0, 3, 7,60
4,334,11
11,5845611275.906261,99999999999999.0, 5, 3,40,-99999999999999.0, 4,14,50
23,1757456213.3068442,99999999999999.0, 5, 2,50,-99999999999999.0,18, 9,60
59,978563638.3598361,99999999999999.0, 1, 1,10,-99999999999999.0, 1, 8,10
521,4088155062.599437,99999999999999.0,11,13,30,-99999999999999.0,27,20,20
637,7665997430.175588,99999999999999.0, 1,10,20,-99999999999999.0, 3, 7,60
649,7665997430.175588,99999999999999.0, 1,10,20,-99999999999999.0, 3, 7,60
4,365,12
11,7362426441.933145,99999999999999.0, 5, 3,40,3543555.779762307,19,13,10
23,1852602106.042801,99999999999999.0, 5, 2,50,-99999999999999.0,18, 9,60
59,1023133445.346784,99999999999999.0, 1, 1,10,-99999999999999.0, 1, 8,10
521,5509824335.890362,99999999999999.0,11,13,30,-99999999999999.0,27,20,20
637,9424887659.354477,99999999999999.0, 1,10,20,-99999999999999.0, 3, 7,60
649,9424887659.354477,99999999999999.0, 1,10,20,-99999999999999.0, 3, 7,60
5,365
13,59189633182.94479,32868.5892234274, 4, 5, 3,40,3543555.779762307,12,19,13,10
25,20712107991.428417,32868.5892234274, 4, 5, 2,50,1094982.6738510276, 3,18, 9,60
61,12124959615.814587,32868.5892234274, 1, 1, 1,10,657371.7844685479, 1, 1, 8,10
523,38477525191.51914,0.0, 1,11,13,30,2557647.8825767455, 1,27,20,20
639,60374812233.446815,0.0, 1, 1,10,20,20376738.614416398, 2, 3, 7,60
651,60374812233.446815,0.0, 1, 1,10,20,20376738.614416398, 2, 3, 7,60
1,RUN PERIOD 2,  41.98, -87.92,  -6.00, 201.00
4,1, 7
11,112825628.30199201,99999999999999.0, 5, 3,40,-99999999999999.0,19,13,10
23,67839875.25194828,99999999999999.0, 5, 2,50,-99999999999999.0,18, 9,60
59,44569806.98696758,99999999999999.0, 1, 1,10,-99999999999999.0, 1, 8,10
521,44985753.05004378,99999999999999.0,11,13,30,-99999999999999.0,27,20,20
637,0.0,99999999999999.0, 1,10,20,-99999999999999.0, 3, 7,60
649,0.0,99999999999999.0, 1,10,20,-99999999999999.0, 3, 7,60
5,1
13,112825628.30199201,99999999999999.0, 4, 5, 3,40,-99999999999999.0,12,19,13,10
25,67839875.25194828,99999999999999.0, 4, 5, 2,50,-99999999999999.0, 3,18, 9,60
61,44569806.98696758,99999999999999.0, 1, 1, 1,10,-99999999999999.0, 1, 1, 8,10
523,44985753.05004378,99999999999999.0, 1,11,13,30,-99999999999999.0, 1,27,20,20
639,0.0,99999999999999.0, 1, 1,10,20,-99999999999999.0, 2, 3, 7,60
651,0.0,99999999999999.0, 1, 1,10,20,-99999999999999.0, 2, 3, 7,60
End of Data
 Number of Records Written=          90
