Program Version,EnergyPlus, Version 24.2.0-94a887817b, YMD=2025.02.11 00:15
1,5,Environment Title[],Latitude[deg],Longitude[deg],Time Zone[],Elevation[m]
2,8,Day of Simulation[],Month[],Day of Month[],DST Indicator[1=yes 0=no],Hour[],StartMinute[],EndMinute[],DayType
3,5,Cumulative Day of Simulation[],Month[],Day of Month[],DST Indicator[1=yes 0=no],DayType  ! When Daily Report Variables Requested
4,2,Cumulative Days of Simulation[],Month[]  ! When Monthly Report Variables Requested
5,1,Cumulative Days of Simulation[] ! When Run Period Report Variables Requested
6,1,Calendar Year of Simulation[] ! When Annual Report Variables Requested
250,1,LIVING ZONE,Zone Air Temperature [C] !TimeStep,REPORTSCH
251,1,LIVING ZONE,Zone Air System Sensible Heating Energy [J] !TimeStep,REPORTSCH
336,1,LIVING ZONE,Zone Air System Sensible Cooling Energy [J] !TimeStep,REPORTSCH
385,1,LIVING ZONE,Zone Thermostat Heating Setpoint Temperature [C] !TimeStep,REPORTSCH
386,1,LIVING ZONE,Zone Thermostat Cooling Setpoint Temperature [C] !TimeStep,REPORTSCH
387,1,GARAGE ZONE,Zone Air Temperature [C] !TimeStep,REPORTSCH
388,1,GARAGE ZONE,Zone Air System Sensible Heating Energy [J] !TimeStep,REPORTSCH
425,1,GARAGE ZONE,Zone Air System Sensible Cooling Energy [J] !TimeStep,REPORTSCH
450,1,GARAGE ZONE,Zone Thermostat Heating Setpoint Temperature [C] !TimeStep,REPORTSCH
451,1,GARAGE ZONE,Zone Thermostat Cooling Setpoint Temperature [C] !TimeStep,REPORTSCH
452,1,ATTIC ZONE,Zone Air Temperature [C] !TimeStep,REPORTSCH
453,1,ATTIC ZONE,Zone Air System Sensible Heating Energy [J] !TimeStep,REPORTSCH
490,1,ATTIC ZONE,Zone Air System Sensible Cooling Energy [J] !TimeStep,REPORTSCH
515,1,ATTIC ZONE,Zone Thermostat Heating Setpoint Temperature [C] !TimeStep,REPORTSCH
516,1,ATTIC ZONE,Zone Thermostat Cooling Setpoint Temperature [C] !TimeStep,REPORTSCH
542,1,ACDXCOIL 1,Cooling Coil Total Cooling Energy [J] !TimeStep,REPORTSCH
592,1,HEAT PUMP DX HEATING COIL 1,Heating Coil Heating Energy [J] !TimeStep,REPORTSCH
632,1,SUPP HEATING COIL 1,Heating Coil Heating Energy [J] !TimeStep,REPORTSCH
686,1,TWOSPEED HEAT PUMP 1,Unitary System DX Coil Cycling Ratio [] !TimeStep,REPORTSCH
687,1,TWOSPEED HEAT PUMP 1,Unitary System DX Coil Speed Ratio [] !TimeStep,REPORTSCH
688,1,TWOSPEED HEAT PUMP 1,Unitary System DX Coil Speed Level [] !TimeStep,REPORTSCH
End of Data Dictionary
1,RUN PERIOD 1,  41.98, -87.92,  -6.00, 201.00
2,21, 1,21, 0, 1, 0.00,10.00,Monday
250,22.391051410366437
251,7163046.317873828
336,0.0
385,22.453333333333333
386,27.060000000000002
387,0.6101642592873504
388,0.0
425,0.0
450,0.0
451,0.0
452,-1.648256542154443
453,0.0
490,0.0
515,0.0
516,0.0
542,0.0
592,4100276.060909725
632,3065548.8751548477
686,0.9615232147257997
687,0.5175801207504581
688,1.6666666666666667
2,21, 1,21, 0, 1,10.00,20.00,Monday
250,22.42670779936442
251,5267728.295570696
336,0.0
385,22.453333333333333
386,27.06
387,0.5751444653214752
388,0.0
425,0.0
450,0.0
451,0.0
452,-1.633835918955941
453,0.0
490,0.0
515,0.0
516,0.0
542,0.0
592,3241546.1633076402
632,1982143.3545829973
686,0.6666666666666667
687,0.6666666666666667
688,1.3333333333333335
2,21, 1,21, 0, 1,20.00,30.00,Monday
250,22.01715688700932
251,5225907.714637836
336,0.0
385,21.92
386,27.06
387,0.552720104358951
388,0.0
425,0.0
450,0.0
451,0.0
452,-1.6266499230522884
453,0.0
490,0.0
515,0.0
516,0.0
542,0.0
592,2362402.9795370656
632,2923048.3173734583
686,0.5209016030444624
687,0.4
688,1.0
2,21, 1,21, 0, 1,30.00,40.00,Monday
250,22.391705119735608
251,7214910.056912872
336,0.0
385,22.45333333333335
386,27.06000000000002
387,0.5293864942281352
388,0.0
425,0.0
450,0.0
451,0.0
452,-1.6211243055695208
453,0.0
490,0.0
515,0.0
516,0.0
542,0.0
592,4111615.4495897973
632,3101593.4409936927
686,0.9672138650760401
687,0.5410433911201552
688,1.666666666666668
2,21, 1,21, 0, 1,40.00,50.00,Monday
250,22.42238282113533
251,5304787.086660858
336,0.0
385,22.45333333333335
386,27.06000000000002
387,0.4976920880683523
388,0.0
425,0.0
450,0.0
451,0.0
452,-1.6159678546170984
453,0.0
490,0.0
515,0.0
516,0.0
542,0.0
592,3209895.467308992
632,2050794.3050297166
686,0.6666666666666672
687,0.6666666666666672
688,1.3333333333333344
2,21, 1,21, 0, 1,50.00,60.00,Monday
250,22.01263858096901
251,5266153.22545324
336,0.0
385,21.92
386,27.06
387,0.47656117160370925
388,0.0
425,0.0
450,0.0
451,0.0
452,-1.6145761651302224
453,0.0
490,0.0
515,0.0
516,0.0
542,0.0
592,2354276.3454868323
632,2972201.2072674134
686,0.5252241392397288
687,0.4
688,1.0
2,21, 1,21, 0, 2, 0.00,10.00,Monday
250,22.39206878352518
251,7259045.302239431
336,0.0
385,22.453333333333333
386,27.060000000000002
387,0.45416693172307376
388,0.0
425,0.0
450,0.0
451,0.0
452,-1.6150738761671275
453,0.0
490,0.0
515,0.0
516,0.0
542,0.0
592,4131419.515614638
632,3122524.9869307145
686,0.9736592705924633
687,0.5592943631699497
688,1.6666666666666667
2,21, 1,21, 0, 2,10.00,20.00,Monday
250,22.42000372043285
251,5325263.788500639
336,0.0
385,22.453333333333333
386,27.06
387,0.42328510413819076
388,0.0
425,0.0
450,0.0
451,0.0
452,-1.619170196842994
453,0.0
490,0.0
515,0.0
516,0.0
542,0.0
592,3199347.1257134303
632,2081816.9061158537
686,0.6666666666666667
687,0.6666666666666667
688,1.3333333333333335
2,21, 1,21, 0, 2,20.00,30.00,Monday
250,22.011111592238255
251,5278358.7330628075
336,0.0
385,21.92
386,27.06
387,0.40229786914544896
388,0.0
425,0.0
450,0.0
451,0.0
452,-1.6266258237005233
453,0.0
490,0.0
515,0.0
516,0.0
542,0.0
592,2357829.036533047
632,2981232.58586428
686,0.5262472874861006
687,0.4
688,1.0
2,21, 1,21, 0, 2,30.00,40.00,Monday
250,22.392149562192447
251,7275269.930580149
336,0.0
385,22.45333333333335
386,27.06000000000002
387,0.3797874936752903
388,0.0
425,0.0
450,0.0
451,0.0
452,-1.6373437316978081
453,0.0
490,0.0
515,0.0
516,0.0
542,0.0
592,4142576.93870221
632,3126845.141177193
686,0.9752409280248678
687,0.5635340163706869
688,1.666666666666668
2,21, 1,21, 0, 2,40.00,50.00,Monday
250,22.419151687820793
251,5336245.4887095755
336,0.0
385,22.45333333333335
386,27.06000000000002
387,0.3484055946583897
388,0.0
425,0.0
450,0.0
451,0.0
452,-1.6546135418542853
453,0.0
490,0.0
515,0.0
516,0.0
542,0.0
592,3200196.965304208
632,2091715.786294059
686,0.6669117522044556
687,0.6666666666666672
688,1.6666666666666679
2,21, 1,21, 0, 2,50.00,60.00,Monday
250,22.636064283149835
251,7037762.927475669
336,0.0
385,23.12
386,27.06
387,0.31905345228430193
388,0.0
425,0.0
450,0.0
451,0.0
452,-1.6737849040022403
453,0.0
490,0.0
515,0.0
516,0.0
542,0.0
592,4798007.199478557
632,2797279.9338127053
686,1.0
687,1.0
688,2.0
2,21, 1,21, 0, 3, 0.00,10.00,Monday
250,23.073994591624114
251,7756439.678407553
336,0.0
385,23.12
386,27.06
387,0.29651521492449084
388,0.0
425,0.0
450,0.0
451,0.0
452,-1.689180648566277
453,0.0
490,0.0
515,0.0
516,0.0
542,0.0
592,4798847.504913511
632,2825537.6075845463
686,1.0
687,1.0
688,2.0
2,21, 1,21, 0, 3,10.00,20.00,Monday
250,22.032622346496996
251,5602348.9273708
336,0.0
385,21.786666666666665
386,27.060000000000002
387,0.2773405370739568
388,0.0
425,0.0
450,0.0
451,0.0
452,-1.6987532220557007
453,0.0
490,0.0
515,0.0
516,0.0
542,0.0
592,2533726.280453043
632,2967914.3410041532
686,0.5386404651056882
687,0.5
688,1.1666666666666665
2,21, 1,21, 0, 3,20.00,30.00,Monday
250,22.40728900193281
251,5435112.565529978
336,0.0
385,22.453333333333326
386,27.059999999999988
387,0.2565884800712895
388,0.0
425,0.0
450,0.0
451,0.0
452,-1.7039101394882112
453,0.0
490,0.0
515,0.0
516,0.0
542,0.0
592,3295130.5849433215
632,2128959.968038857
686,0.69426520391987
687,0.6666666666666664
688,1.666666666666666
2,21, 1,21, 0, 3,30.00,40.00,Monday
250,22.6442919721201
251,6737267.006258365
336,0.0
385,23.119999999999994
386,27.059999999999988
387,0.2315468424174057
388,0.0
425,0.0
450,0.0
451,0.0
452,-1.70428076141982
453,0.0
490,0.0
515,0.0
516,0.0
542,0.0
592,4798072.503171703
632,2490793.4290120043
686,0.9999999999999997
687,0.9999999999999997
688,1.9999999999999993
2,21, 1,21, 0, 3,40.00,50.00,Monday
250,23.074847091611154
251,7830623.294041835
336,0.0
385,23.12
386,27.06
387,0.2099882418951095
388,0.0
425,0.0
450,0.0
451,0.0
452,-1.6999919594512627
453,0.0
490,0.0
515,0.0
516,0.0
542,0.0
592,4798838.371041134
632,2897588.372898427
686,1.0
687,1.0
688,2.0
2,21, 1,21, 0, 3,50.00,60.00,Monday
250,22.029272406063633
251,5666692.450526061
336,0.0
385,21.786666666666637
386,27.059999999999963
387,0.19252315133714748
388,0.0
425,0.0
450,0.0
451,0.0
452,-1.6924598684573033
453,0.0
490,0.0
515,0.0
516,0.0
542,0.0
592,2544972.7081873766
632,3022070.555879017
686,0.5418801172522563
687,0.49999999999999933
688,1.166666666666665
2,21, 1,21, 0, 4, 0.00,10.00,Monday
250,22.40963385099379
251,5568576.946381632
336,0.0
385,22.453333333333333
386,27.060000000000002
387,0.17019480435679135
388,0.0
425,0.0
450,0.0
451,0.0
452,-1.683995075876294
453,0.0
490,0.0
515,0.0
516,0.0
542,0.0
592,3328281.5767850215
632,2218471.060437252
686,0.7047697736511949
687,0.6666666666666666
688,1.6666666666666665
2,21, 1,21, 0, 4,10.00,20.00,Monday
250,22.647690254501228
251,6922857.959207103
336,0.0
385,23.12
386,27.06
387,0.13900449088265654
388,0.0
425,0.0
450,0.0
451,0.0
452,-1.6751183203156448
453,0.0
490,0.0
515,0.0
516,0.0
542,0.0
592,4789387.872083882
632,2682994.2927028434
686,1.0
687,1.0
688,2.0
2,21, 1,21, 0, 4,20.00,30.00,Monday
250,23.07530232990744
251,8081270.399643189
336,0.0
385,23.12
386,27.06
387,0.1083634038201329
388,0.0
425,0.0
450,0.0
451,0.0
452,-1.6708778763598788
453,0.0
490,0.0
515,0.0
516,0.0
542,0.0
592,4784189.278129863
632,3162011.3351221364
686,1.0
687,1.0
688,2.0
2,21, 1,21, 0, 4,30.00,40.00,Monday
250,22.012630515102906
251,5982085.496620307
336,0.0
385,21.786666666666655
386,27.059999999999985
387,0.07992242105142076
388,0.0
425,0.0
450,0.0
451,0.0
452,-1.6724970232888194
453,0.0
490,0.0
515,0.0
516,0.0
542,0.0
592,2590077.278739905
632,3297693.293242551
686,0.5578775047023541
687,0.49999999999999967
688,1.1666666666666659
2,21, 1,21, 0, 4,40.00,50.00,Monday
250,22.415224175257322
251,5909583.60515684
336,0.0
385,22.45333333333335
386,27.06000000000002
387,0.0481760294013776
388,0.0
425,0.0
450,0.0
451,0.0
452,-1.6788014733169823
453,0.0
490,0.0
515,0.0
516,0.0
542,0.0
592,3408659.441086426
632,2452663.9643855663
686,0.7322343274395127
687,0.6666666666666672
688,1.6666666666666679
2,21, 1,21, 0, 4,50.00,60.00,Monday
250,22.654667140417345
251,7229560.6717997715
336,0.0
385,23.12
386,27.06
387,0.007747125613138486
388,0.0
425,0.0
450,0.0
451,0.0
452,-1.689899849460501
453,0.0
490,0.0
515,0.0
516,0.0
542,0.0
592,4770183.964640668
632,3002526.467092624
686,1.0
687,1.0
688,2.0
2,21, 1,21, 0, 5, 0.00,10.00,Monday
250,23.076079278016913
251,8286209.857294247
336,0.0
385,23.12
386,27.06
387,-0.020688594749598294
388,0.0
425,0.0
450,0.0
451,0.0
452,-1.6980682458112948
453,0.0
490,0.0
515,0.0
516,0.0
542,0.0
592,4762379.5970462365
632,3386935.524818768
686,1.0
687,1.0
688,2.0
2,21, 1,21, 0, 5,10.00,20.00,Monday
250,22.007713954801456
251,6076212.598841294
336,0.0
385,21.786666666666665
386,27.060000000000002
387,-0.0359862834486634
388,0.0
425,0.0
450,0.0
451,0.0
452,-1.6993657288828539
453,0.0
490,0.0
515,0.0
516,0.0
542,0.0
592,2595015.244002686
632,3388425.5504719648
686,0.5629094791637226
687,0.5
688,1.1666666666666665
2,21, 1,21, 0, 5,20.00,30.00,Monday
250,22.41471834782565
251,5895620.037891091
336,0.0
385,22.453333333333326
386,27.059999999999988
387,-0.04796460305108872
388,0.0
425,0.0
450,0.0
451,0.0
452,-1.6930901873161823
453,0.0
490,0.0
515,0.0
516,0.0
542,0.0
592,3387158.9932370204
632,2462419.573639435
686,0.7309515868018178
687,0.6666666666666664
688,1.666666666666666
2,21, 1,21, 0, 5,30.00,40.00,Monday
250,22.654177512245532
251,7102071.095699347
336,0.0
385,23.119999999999994
386,27.059999999999988
387,-0.05868498076720202
388,0.0
425,0.0
450,0.0
451,0.0
452,-1.6764796063499665
453,0.0
490,0.0
515,0.0
516,0.0
542,0.0
592,4742800.348319676
632,2902623.037786594
686,0.9999999999999997
687,0.9999999999999997
688,1.9999999999999993
2,21, 1,21, 0, 5,40.00,50.00,Monday
250,23.075999009068482
251,8158409.505188084
336,0.0
385,23.12
386,27.06
387,-0.06520559732222966
388,0.0
425,0.0
450,0.0
451,0.0
452,-1.6537450661436026
453,0.0
490,0.0
515,0.0
516,0.0
542,0.0
592,4735138.265178515
632,3286502.7846272653
686,1.0
687,1.0
688,2.0
2,21, 1,21, 0, 5,50.00,60.00,Monday
250,22.01464383331736
251,5945295.854228167
336,0.0
385,21.786666666666637
386,27.059999999999963
387,-0.06771074168741197
388,0.0
425,0.0
450,0.0
451,0.0
452,-1.6271472745360027
453,0.0
490,0.0
515,0.0
516,0.0
542,0.0
592,2557484.192979361
632,3292732.2393447813
686,0.5566354108338301
687,0.49999999999999933
688,1.166666666666665
2,21, 1,21, 0, 6, 0.00,10.00,Monday
250,22.414119676008468
251,5843080.883639944
336,0.0
385,22.453333333333333
386,27.060000000000002
387,-0.07687629505858502
388,0.0
425,0.0
450,0.0
451,0.0
452,-1.6013140582138377
453,0.0
490,0.0
515,0.0
516,0.0
542,0.0
592,3354466.257844604
632,2445725.401943656
686,0.7268384355000136
687,0.6666666666666666
688,1.6666666666666665
2,21, 1,21, 0, 6,10.00,20.00,Monday
250,22.653857104753126
251,7144862.5988625055
336,0.0
385,23.12
386,27.06
387,-0.0952197804932191
388,0.0
425,0.0
450,0.0
451,0.0
452,-1.5798477192646478
453,0.0
490,0.0
515,0.0
516,0.0
542,0.0
592,4719470.1814980665
632,2970171.2231796905
686,1.0
687,1.0
688,2.0
2,21, 1,21, 0, 6,20.00,30.00,Monday
250,23.07601965961755
251,8281642.043475315
336,0.0
385,23.12
386,27.06
387,-0.11712102773129089
388,0.0
425,0.0
450,0.0
451,0.0
452,-1.575050966146948
453,0.0
490,0.0
515,0.0
516,0.0
542,0.0
592,4715013.425744509
632,3429964.763596135
686,1.0
687,1.0
688,2.0
2,21, 1,21, 0, 6,30.00,40.00,Monday
250,22.00366070936192
251,6153221.207666151
336,0.0
385,21.786666666666655
386,27.059999999999985
387,-0.1404439898727996
388,0.0
425,0.0
450,0.0
451,0.0
452,-1.5853985626952127
453,0.0
490,0.0
515,0.0
516,0.0
542,0.0
592,2585529.2213266585
632,3476151.446927244
686,0.5674311304404626
687,0.49999999999999967
688,1.1666666666666659
2,21, 1,21, 0, 6,40.00,50.00,Monday
250,22.41785996342666
251,6068544.231263833
336,0.0
385,22.45333333333335
386,27.06000000000002
387,-0.16791064748959544
388,0.0
425,0.0
450,0.0
451,0.0
452,-1.6051430345824855
453,0.0
490,0.0
515,0.0
516,0.0
542,0.0
592,3405598.215430216
632,2602260.847009771
686,0.745554123973507
687,0.6666666666666672
688,1.6666666666666679
2,21, 1,21, 0, 6,50.00,60.00,Monday
250,22.658226700613262
251,7345876.239687293
336,0.0
385,23.12
386,27.06
387,-0.20433510094030244
388,0.0
425,0.0
450,0.0
451,0.0
452,-1.6371696779807412
453,0.0
490,0.0
515,0.0
516,0.0
542,0.0
592,4703330.663295821
632,3182921.4162634835
686,1.0
687,1.0
688,2.0
2,21, 1,21, 0, 7, 0.00,10.00,Monday
250,23.076497582653612
251,8484949.362234106
336,0.0
385,23.12
386,27.06
387,-0.2424280037737942
388,0.0
425,0.0
450,0.0
451,0.0
452,-1.6841423555740502
453,0.0
490,0.0
515,0.0
516,0.0
542,0.0
592,4722958.151799641
632,3624186.9350300143
686,1.0
687,1.0
688,2.0
2,21, 1,21, 0, 7,10.00,20.00,Monday
250,21.99490262214522
251,6318810.147099244
336,0.0
385,21.786666666666665
386,27.060000000000002
387,-0.28338787912885993
388,0.0
425,0.0
450,0.0
451,0.0
452,-1.7622216141124794
453,0.0
490,0.0
515,0.0
516,0.0
542,0.0
592,2631335.4932051287
632,3598881.4515432585
686,0.5753756412274023
687,0.5
688,1.1666666666666665
2,21, 1,21, 0, 7,20.00,30.00,Monday
250,22.42006982126561
251,6219111.97974212
336,0.0
385,22.453333333333326
386,27.059999999999988
387,-0.33424882153046825
388,0.0
425,0.0
450,0.0
451,0.0
452,-1.8819774438754897
453,0.0
490,0.0
515,0.0
516,0.0
542,0.0
592,3488059.5446733856
632,2659639.288211932
686,0.7573083203832384
687,0.6666666666666664
688,1.666666666666666
2,21, 1,21, 0, 7,30.00,40.00,Monday
250,22.660304544842052
251,7440080.197963718
336,0.0
385,23.119999999999994
386,27.059999999999988
387,-0.40509369338394935
388,0.0
425,0.0
450,0.0
451,0.0
452,-2.063682146335956
453,0.0
490,0.0
515,0.0
516,0.0
542,0.0
592,4787955.987153559
632,3189182.2508579628
686,0.9999999999999997
687,0.9999999999999997
688,1.9999999999999993
2,21, 1,21, 0, 7,40.00,50.00,Monday
250,23.076702602246765
251,8543486.82765253
336,0.0
385,23.12
386,27.06
387,-0.4755393817080065
388,0.0
425,0.0
450,0.0
451,0.0
452,-2.260299896809831
453,0.0
490,0.0
515,0.0
516,0.0
542,0.0
592,4803645.935379385
632,3601451.245550869
686,1.0
687,1.0
688,2.0
2,21, 1,21, 0, 7,50.00,60.00,Monday
250,21.991659538044743
251,6378931.965998638
336,0.0
385,21.786666666666637
386,27.059999999999963
387,-0.5433481762598309
388,0.0
425,0.0
450,0.0
451,0.0
452,-2.4658562185095834
453,0.0
490,0.0
515,0.0
516,0.0
542,0.0
592,2681682.7754012933
632,3609895.5776076755
686,0.5772844997200243
687,0.49999999999999933
688,1.166666666666665
2,21, 1,21, 0, 8, 0.00,10.00,Monday
250,22.41282962136916
251,5852988.759366959
336,0.0
385,22.453333333333333
386,27.060000000000002
387,-0.6124941657073877
388,0.0
425,0.0
450,0.0
451,0.0
452,-2.6876317894710358
453,0.0
490,0.0
515,0.0
516,0.0
542,0.0
592,3427528.4358495437
632,2387965.4517914704
686,0.7255358942937409
687,0.6666666666666666
688,1.6666666666666665
2,21, 1,21, 0, 8,10.00,20.00,Monday
250,22.65467524911361
251,7000686.620941154
336,0.0
385,23.12
386,27.06
387,-0.6844313792003298
388,0.0
425,0.0
450,0.0
451,0.0
452,-2.867744439723847
453,0.0
490,0.0
515,0.0
516,0.0
542,0.0
592,4847838.463084215
632,2698091.218237495
686,1.0
687,1.0
688,2.0
2,21, 1,21, 0, 8,20.00,30.00,Monday
250,23.076100849681186
251,8058750.1293461975
336,0.0
385,23.12
386,27.06
387,-0.7335926164990734
388,0.0
425,0.0
450,0.0
451,0.0
452,-2.893803527097135
453,0.0
490,0.0
515,0.0
516,0.0
542,0.0
592,4853933.824273698
632,3067854.6820464786
686,1.0
687,1.0
688,2.0
2,21, 1,21, 0, 8,30.00,40.00,Monday
250,22.022233498914872
251,5799199.555360159
336,0.0
385,21.786666666666655
386,27.059999999999985
387,-0.7588221632497923
388,0.0
425,0.0
450,0.0
451,0.0
452,-2.784566428558805
453,0.0
490,0.0
515,0.0
516,0.0
542,0.0
592,2604100.731842602
632,3097705.2521468075
686,0.548486658747851
687,0.49999999999999967
688,1.1666666666666659
2,21, 1,21, 0, 8,40.00,50.00,Monday
250,22.409014721868637
251,5560839.305560828
336,0.0
385,22.45333333333335
386,27.06000000000002
387,-0.7717609584708731
388,0.0
425,0.0
450,0.0
451,0.0
452,-2.5691035130882085
453,0.0
490,0.0
515,0.0
516,0.0
542,0.0
592,3378490.7036165963
632,2163514.9384820447
686,0.7030565544305232
687,0.6666666666666672
688,1.6666666666666679
2,21, 1,21, 0, 8,50.00,60.00,Monday
250,23.05087404047857
251,7560353.453246541
336,0.0
385,23.12
386,27.06
387,-0.7687093690853786
388,0.0
425,0.0
450,0.0
451,0.0
452,-2.245929350576634
453,0.0
490,0.0
515,0.0
516,0.0
542,0.0
592,4886153.37279674
632,2601314.5083386656
686,1.0
687,1.0
688,2.0
2,21, 1,21, 0, 9, 0.00,10.00,Monday
250,22.043259263918884
251,5358290.827076369
336,0.0
385,21.78666666666667
386,27.060000000000002
387,-0.7433771564982794
388,0.0
425,0.0
450,0.0
451,0.0
452,-1.8529821674767208
453,0.0
490,0.0
515,0.0
516,0.0
542,0.0
592,2437511.1819990547
632,2827232.3649446457
686,0.526176062850952
687,0.41952888515399567
688,1.1666666666666667
2,21, 1,21, 0, 9,10.00,20.00,Monday
250,22.407022986588043
251,5053627.79954499
336,0.0
385,22.453333333333333
386,27.06
387,-0.6987945711821903
388,0.0
425,0.0
450,0.0
451,0.0
452,-1.3667136732899223
453,0.0
490,0.0
515,0.0
516,0.0
542,0.0
592,3280861.6918656062
632,1790135.6977156664
686,0.6666666666666667
687,0.6666666666666667
688,1.3333333333333335
2,21, 1,21, 0, 9,20.00,30.00,Monday
250,22.041804068182564
251,5001858.299085513
336,0.0
385,21.92
386,27.06
387,-0.6388462196810769
388,0.0
425,0.0
450,0.0
451,0.0
452,-0.8218813018179382
453,0.0
490,0.0
515,0.0
516,0.0
542,0.0
592,2341807.279089029
632,2715325.5585800563
686,0.5026284047419713
687,0.4
688,1.0
2,21, 1,21, 0, 9,30.00,40.00,Monday
250,22.38764690030957
251,6757668.392730638
336,0.0
385,22.45333333333335
386,27.06000000000002
387,-0.5665465019418621
388,0.0
425,0.0
450,0.0
451,0.0
452,-0.22827860232118952
453,0.0
490,0.0
515,0.0
516,0.0
542,0.0
592,3836568.1146849515
632,2950094.785380411
686,0.9144069518398062
687,0.4051025275361797
688,1.666666666666668
2,21, 1,21, 0, 9,40.00,50.00,Monday
250,22.4704684507876
251,4935648.075167901
336,0.0
385,22.45333333333335
386,27.06000000000002
387,-0.4664629638947334
388,0.0
425,0.0
450,0.0
451,0.0
452,0.544387269869719
453,0.0
490,0.0
515,0.0
516,0.0
542,0.0
592,3315578.713465549
632,1576771.485872454
686,0.6666666666666672
687,0.6666666666666672
688,1.3333333333333344
2,21, 1,21, 0, 9,50.00,60.00,Monday
250,22.06633148771524
251,4803929.171535684
336,0.0
385,21.92
386,27.06
387,-0.39730997063813506
388,0.0
425,0.0
450,0.0
451,0.0
452,1.0348773584773525
453,0.0
490,0.0
515,0.0
516,0.0
542,0.0
592,2304824.155901515
632,2549151.7012134707
686,0.48538753233646126
687,0.4
688,1.0
2,21, 1,21, 0,10, 0.00,10.00,Monday
250,22.385830967214915
251,6534541.374440824
336,0.0
385,22.453333333333333
386,27.060000000000002
387,-0.317958425514698
388,0.0
425,0.0
450,0.0
451,0.0
452,1.5425886424871444
453,0.0
490,0.0
515,0.0
516,0.0
542,0.0
592,3704529.1538634365
632,2872783.7941958946
686,0.8898873437043316
687,0.3358079503404488
688,1.6666666666666667
2,21, 1,21, 0,10,10.00,20.00,Monday
250,22.488092451811845
251,4786385.444816595
336,0.0
385,22.453333333333333
386,27.06
387,-0.1946117660309623
388,0.0
425,0.0
450,0.0
451,0.0
452,2.2140810100400494
453,0.0
490,0.0
515,0.0
516,0.0
542,0.0
592,3371934.5242776787
632,1371510.975900258
686,0.6666666666666667
687,0.6666666666666667
688,1.3333333333333335
2,21, 1,21, 0,10,20.00,30.00,Monday
250,22.08646397650689
251,4625446.070579873
336,0.0
385,21.92
386,27.06
387,-0.10426990612376275
388,0.0
425,0.0
450,0.0
451,0.0
452,2.701752586592012
453,0.0
490,0.0
515,0.0
516,0.0
542,0.0
592,2294421.8761053737
632,2377482.4704828425
686,0.4699827444467816
687,0.4
688,1.0
2,21, 1,21, 0,10,30.00,40.00,Monday
250,22.38368467739912
251,6263879.919063229
336,0.0
385,22.45333333333335
386,27.06000000000002
387,-0.00037729213658449154
388,0.0
425,0.0
450,0.0
451,0.0
452,3.258795922010632
453,0.0
490,0.0
515,0.0
516,0.0
542,0.0
592,3553838.6613426413
632,2771776.683235322
686,0.8304533189362987
687,0.3333333333333336
688,1.3333333333333344
2,21, 1,21, 0,10,40.00,50.00,Monday
250,22.514998493003787
251,4564028.031747405
336,0.0
385,22.45333333333335
386,27.06000000000002
387,0.16427628474086126
388,0.0
425,0.0
450,0.0
451,0.0
452,4.05697391254508
453,0.0
490,0.0
515,0.0
516,0.0
542,0.0
592,3438641.7788540656
632,1082855.294087024
686,0.6666666666666672
687,0.6666666666666672
688,1.3333333333333344
2,21, 1,21, 0,10,50.00,60.00,Monday
250,22.11664704663725
251,4359456.221785234
336,0.0
385,21.92
386,27.06
387,0.2897430225777431
388,0.0
425,0.0
450,0.0
451,0.0
452,4.704813294968177
453,0.0
490,0.0
515,0.0
516,0.0
542,0.0
592,2258912.762250033
632,2141476.918203967
686,0.4484733034350207
687,0.4
688,1.0
2,21, 1,21, 0,11, 0.00,10.00,Monday
250,22.380123230428858
251,5874816.580091136
336,0.0
385,22.453333333333333
386,27.060000000000002
387,0.43491267701414393
388,0.0
425,0.0
450,0.0
451,0.0
452,5.460344797298439
453,0.0
490,0.0
515,0.0
516,0.0
542,0.0
592,3316303.2512249923
632,2645778.391714873
686,0.7519431105865745
687,0.3333333333333333
688,1.3333333333333335
2,21, 1,21, 0,11,10.00,20.00,Monday
250,22.269748947234877
251,4798865.863414138
336,0.0
385,22.12
386,27.06
387,0.5970897871186664
388,0.0
425,0.0
450,0.0
451,0.0
452,6.2819305368385
453,0.0
490,0.0
515,0.0
516,0.0
542,0.0
592,3755984.8874326493
632,877339.9317277726
686,0.75
687,0.6360012115368914
688,1.5
2,21, 1,21, 0,11,20.00,30.00,Monday
250,22.23793904775071
251,5073195.783703653
336,0.0
385,22.12
386,27.06
387,0.8499164022462675
388,0.0
425,0.0
450,0.0
451,0.0
452,7.387893047996341
453,0.0
490,0.0
515,0.0
516,0.0
542,0.0
592,2840902.248408352
632,2132451.899976676
686,0.5572111950208747
687,0.5
688,1.25
2,21, 1,21, 0,11,30.00,40.00,Monday
250,22.23819601451428
251,4997928.894811663
336,0.0
385,22.12
386,27.06
387,1.084182429263651
388,0.0
425,0.0
450,0.0
451,0.0
452,8.351671390166734
453,0.0
490,0.0
515,0.0
516,0.0
542,0.0
592,2864130.050050717
632,2036730.9232362686
686,0.5606776170778136
687,0.5
688,1.25
2,21, 1,21, 0,11,40.00,50.00,Monday
250,22.52648599020282
251,3968535.7537268642
336,0.0
385,22.45333333333335
386,27.06000000000002
387,1.2655618652704468
388,0.0
425,0.0
450,0.0
451,0.0
452,9.09914684038164
453,0.0
490,0.0
515,0.0
516,0.0
542,0.0
592,3160813.3279270683
632,800147.5841591695
686,0.6666666666666672
687,0.4202522827855995
688,1.3333333333333344
2,21, 1,21, 0,11,50.00,60.00,Monday
250,22.15322439251996
251,4007234.4187773727
336,0.0
385,21.92
386,27.06
387,1.448511185679271
388,0.0
425,0.0
450,0.0
451,0.0
452,9.777931829003993
453,0.0
490,0.0
515,0.0
516,0.0
542,0.0
592,2019686.4793084236
632,2034388.8360349531
686,0.4201233620405557
687,0.27522873785720153
688,1.0
2,21, 1,21, 0,12, 0.00,10.00,Monday
250,22.375655338812155
251,5421545.247500114
336,0.0
385,22.453333333333333
386,27.060000000000002
387,1.6459237403368259
388,0.0
425,0.0
450,0.0
451,0.0
452,10.404083795777922
453,0.0
490,0.0
515,0.0
516,0.0
542,0.0
592,3040076.2523721633
632,2499241.79088937
686,0.663641470738412
687,0.3333333333333333
688,1.3333333333333335
2,21, 1,21, 0,12,10.00,20.00,Monday
250,22.110626367862718
251,5070678.633432461
336,0.0
385,22.12
386,27.06
387,1.8408006062992086
388,0.0
425,0.0
450,0.0
451,0.0
452,10.912122329898743
453,0.0
490,0.0
515,0.0
516,0.0
542,0.0
592,3120565.380374648
632,2023323.940344403
686,0.6200703201757567
687,0.5
688,1.25
2,21, 1,21, 0,12,20.00,30.00,Monday
250,22.376362186879636
251,5379312.882754702
336,0.0
385,22.453333333333326
386,27.059999999999988
387,2.0317012440616757
388,0.0
425,0.0
450,0.0
451,0.0
452,11.313131049044499
453,0.0
490,0.0
515,0.0
516,0.0
542,0.0
592,3037042.5324201053
632,2462585.244433999
686,0.6606205038723024
687,0.3333333333333332
688,1.3333333333333328
2,21, 1,21, 0,12,30.00,40.00,Monday
250,22.11988924391153
251,4917943.266772781
336,0.0
385,22.119999999999994
386,27.05999999999999
387,2.2050490893694255
388,0.0
425,0.0
450,0.0
451,0.0
452,11.58391369521761
453,0.0
490,0.0
515,0.0
516,0.0
542,0.0
592,3081793.0716627217
632,1906355.7511656347
686,0.6077486647920737
687,0.5
688,1.25
2,21, 1,21, 0,12,40.00,50.00,Monday
250,22.375232069157015
251,5270736.574236434
336,0.0
385,22.45333333333335
386,27.06000000000002
387,2.3634610850124904
388,0.0
425,0.0
450,0.0
451,0.0
452,11.717960572541358
453,0.0
490,0.0
515,0.0
516,0.0
542,0.0
592,2969550.2307310854
632,2428127.6158839595
686,0.641005712637331
687,0.3333333333333336
688,1.3333333333333344
2,21, 1,21, 0,12,50.00,60.00,Monday
250,22.12279864516075
251,4850923.765285441
336,0.0
385,22.12
386,27.06
387,2.4981648367554325
388,0.0
425,0.0
450,0.0
451,0.0
452,11.715601050913769
453,0.0
490,0.0
515,0.0
516,0.0
542,0.0
592,3068674.9815139244
632,1851698.038532229
686,0.6021400086159898
687,0.5
688,1.25
2,21, 1,21, 0,13, 0.00,10.00,Monday
250,22.374609040793956
251,5211788.458028748
336,0.0
385,22.453333333333333
386,27.060000000000002
387,2.6169133100331
388,0.0
425,0.0
450,0.0
451,0.0
452,11.64201542003396
453,0.0
490,0.0
515,0.0
516,0.0
542,0.0
592,2934536.857851472
632,2407211.7258536397
686,0.6314389129558834
687,0.3333333333333333
688,1.3333333333333335
2,21, 1,21, 0,13,10.00,20.00,Monday
250,22.127409524402843
251,4761674.576705018
336,0.0
385,22.12
386,27.06
387,2.717961132508528
388,0.0
425,0.0
450,0.0
451,0.0
452,11.561556656807499
453,0.0
490,0.0
515,0.0
516,0.0
542,0.0
592,3038518.63946904
632,1791185.4490129636
686,0.595436062513736
687,0.5
688,1.25
2,21, 1,21, 0,13,20.00,30.00,Monday
250,22.373231682746777
251,5063483.681104115
336,0.0
385,22.453333333333326
386,27.059999999999988
387,2.8097792690110226
388,0.0
425,0.0
450,0.0
451,0.0
452,11.503051327331866
453,0.0
490,0.0
515,0.0
516,0.0
542,0.0
592,2836703.9179627933
632,2365598.899975
686,0.6072030444399232
687,0.3333333333333332
688,1.3333333333333328
2,21, 1,21, 0,13,30.00,40.00,Monday
250,22.13425075448645
251,4633027.264656801
336,0.0
385,22.119999999999994
386,27.05999999999999
387,2.892940333183056
388,0.0
425,0.0
450,0.0
451,0.0
452,11.470068765804134
453,0.0
490,0.0
515,0.0
516,0.0
542,0.0
592,2943526.2596569797
632,1758037.1403300262
686,0.5858485753973055
687,0.46253353536004066
688,1.25
2,21, 1,21, 0,13,40.00,50.00,Monday
250,22.371868047997193
251,4926158.244685791
336,0.0
385,22.45333333333335
386,27.06000000000002
387,2.97346312995691
388,0.0
425,0.0
450,0.0
451,0.0
452,11.451346595710115
453,0.0
490,0.0
515,0.0
516,0.0
542,0.0
592,2743860.631711543
632,2329724.2570764394
686,0.5841932708902795
687,0.3333333333333336
688,1.3333333333333344
2,21, 1,21, 0,13,50.00,60.00,Monday
250,22.1403689541066
251,4515231.2211512225
336,0.0
385,22.12
386,27.06
387,3.0495697593108404
388,0.0
425,0.0
450,0.0
451,0.0
452,11.440194197089697
453,0.0
490,0.0
515,0.0
516,0.0
542,0.0
592,2844284.061673504
632,1740762.8642793514
686,0.5770330809271728
687,0.4198938639675469
688,1.25
2,21, 1,21, 0,14, 0.00,10.00,Monday
250,22.370392370029176
251,4779322.823010529
336,0.0
385,22.453333333333333
386,27.060000000000002
387,3.126227692958002
388,0.0
425,0.0
450,0.0
451,0.0
452,11.399661853738326
453,0.0
490,0.0
515,0.0
516,0.0
542,0.0
592,2649933.9340679497
632,2286542.227367452
686,0.5587804647908052
687,0.3333333333333333
688,1.3333333333333335
2,21, 1,21, 0,14,10.00,20.00,Monday
250,22.146140098681737
251,4408061.33167451
336,0.0
385,22.12
386,27.06
387,3.1986505805925556
388,0.0
425,0.0
450,0.0
451,0.0
452,11.295330528178818
453,0.0
490,0.0
515,0.0
516,0.0
542,0.0
592,2759704.874896965
632,1719962.5434886045
686,0.5686946831495517
687,0.3747276220565791
688,1.25
2,21, 1,21, 0,14,20.00,30.00,Monday
250,22.369550920306885
251,4706408.722697276
336,0.0
385,22.453333333333326
386,27.059999999999988
387,3.26676999648497
388,0.0
425,0.0
450,0.0
451,0.0
452,11.126876007046615
453,0.0
490,0.0
515,0.0
516,0.0
542,0.0
592,2607446.202520822
632,2261586.246120146
686,0.5447717356762701
687,0.3333333333333332