Program Version,EnergyPlus, Version 24.2.0-94a887817b, YMD=2025.02.12 11:47
1,5,Environment Title[],Latitude[deg],Longitude[deg],Time Zone[],Elevation[m]
2,8,Day of Simulation[],Month[],Day of Month[],DST Indicator[1=yes 0=no],Hour[],StartMinute[],EndMinute[],DayType
3,5,Cumulative Day of Simulation[],Month[],Day of Month[],DST Indicator[1=yes 0=no],DayType  ! When Daily Meters Requested
4,2,Cumulative Days of Simulation[],Month[]  ! When Monthly Meters Requested
5,1,Cumulative Days of Simulation[] ! When Run Period Meters Requested
6,1,Calendar Year of Simulation[] ! When Annual Meters Requested
11,9,Electricity:Facility [J] !Monthly [Value,Min,Day,Hour,Minute,Max,Day,Hour,Minute]
23,9,Electricity:Building [J] !Monthly [Value,Min,Day,Hour,Minute,Max,Day,Hour,Minute]
59,9,InteriorLights:Electricity [J] !Monthly [Value,Min,Day,Hour,Minute,Max,Day,Hour,Minute]
521,9,Electricity:HVAC [J] !Monthly [Value,Min,Day,Hour,Minute,Max,Day,Hour,Minute]
637,9,NaturalGas:Facility [J] !Monthly [Value,Min,Day,Hour,Minute,Max,Day,Hour,Minute]
649,9,NaturalGas:HVAC [J] !Monthly [Value,Min,Day,Hour,Minute,Max,Day,Hour,Minute]
13,11,Electricity:Facility [J] !RunPeriod [Value,Min,Month,Day,Hour,Minute,Max,Month,Day,Hour,Minute]
25,11,Electricity:Building [J] !RunPeriod [Value,Min,Month,Day,Hour,Minute,Max,Month,Day,Hour,Minute]
61,11,InteriorLights:Electricity [J] !RunPeriod [Value,Min,Month,Day,Hour,Minute,Max,Month,Day,Hour,Minute]
523,11,Electricity:HVAC [J] !RunPeriod [Value,Min,Month,Day,Hour,Minute,Max,Month,Day,Hour,Minute]
639,11,NaturalGas:Facility [J] !RunPeriod [Value,Min,Month,Day,Hour,Minute,Max,Month,Day,Hour,Minute]
651,11,NaturalGas:HVAC [J] !RunPeriod [Value,Min,Month,Day,Hour,Minute,Max,Month,Day,Hour,Minute]
End of Data Dictionary
1,RUN PERIOD 1,  41.98, -87.92,  -6.00, 201.00
4,31, 1
11,9380052895.783827,378770.5902427803,11,20,10,3475703.1212739623,23,14,10
23,1801835327.0444882,108725.06767588273,11,20,60,980418.8466017356,30,13,60
59,894100429.0525081,27646.890199520374, 1, 1,10,552937.8039904075, 1, 8,10
521,7578217568.739349,0.0,11,14,20,2578343.3771823416,27,19,50
637,17373908911.936203,0.0, 1, 8,30,21192764.086573333,31, 7,60
649,17373908911.936203,0.0, 1, 8,30,21192764.086573333,31, 7,60
4,59, 2
11,7772017590.680012,282519.75473243324, 9,15,20,3491149.2163153654,21,12,60
23,1590422191.725617,99999999999999.0,11,20,60,-99999999999999.0,30,13,60
59,781632879.7208562,99999999999999.0, 1, 1,10,-99999999999999.0, 1, 8,10
521,6181595398.954415,99999999999999.0,11,14,20,2614078.2479472393, 5, 2,20
637,14248380970.74805,99999999999999.0, 1, 8,30,21783693.086359434, 3, 8,30
649,14248380970.74805,99999999999999.0, 1, 8,30,21783693.086359434, 3, 8,30
4,90, 3
11,7828989670.11716,94041.96124263425,31,16,60,-99999999999999.0,21,12,60
23,1677861116.1539695,94041.96124263425,31,16,60,989580.1730916759,18, 9,60
59,827084367.2088726,99999999999999.0, 1, 1,10,-99999999999999.0, 1, 8,10
521,6151128553.9632225,99999999999999.0,11,14,20,-99999999999999.0, 5, 2,20
637,10499069822.250248,99999999999999.0, 1, 8,30,-99999999999999.0, 3, 8,30
649,10499069822.250248,99999999999999.0, 1, 8,30,-99999999999999.0, 3, 8,30
4,120, 4
11,4621725440.973666,27646.890199520374,12,19,10,-99999999999999.0,21,12,60
23,1615845627.1979868,27646.890199520374,12,19,10,-99999999999999.0,18, 9,60
59,856611245.9419599,99999999999999.0, 1, 1,10,-99999999999999.0, 1, 8,10
521,3005879813.7756734,99999999999999.0,11,14,20,-99999999999999.0, 5, 2,20
637,4321933879.866848,99999999999999.0, 1, 8,30,-99999999999999.0, 3, 8,30
649,4321933879.866848,99999999999999.0, 1, 8,30,-99999999999999.0, 3, 8,30
4,151, 5
11,3029741562.8907237,99999999999999.0,12,19,10,-99999999999999.0,21,12,60
23,1600702398.5263524,99999999999999.0,12,19,10,-99999999999999.0,18, 9,60
59,894100429.0525113,99999999999999.0, 1, 1,10,-99999999999999.0, 1, 8,10
521,1429039164.3643465,99999999999999.0,11,14,20,-99999999999999.0, 5, 2,20
637,1162073680.217013,99999999999999.0, 1, 8,30,-99999999999999.0, 3, 8,30
649,1162073680.217013,99999999999999.0, 1, 8,30,-99999999999999.0, 3, 8,30
4,181, 6
11,2643640347.4863033,99999999999999.0,12,19,10,-99999999999999.0,21,12,60
23,1357457039.4915977,99999999999999.0,12,19,10,-99999999999999.0,18, 9,60
59,789595184.0983244,99999999999999.0, 1, 1,10,-99999999999999.0, 1, 8,10
521,1286183307.994674,99999999999999.0,11,14,20,-99999999999999.0, 5, 2,20
637,85571296.3740227,99999999999999.0, 1, 8,30,-99999999999999.0, 3, 8,30
649,85571296.3740227,99999999999999.0, 1, 8,30,-99999999999999.0, 3, 8,30
4,212, 7
11,3336355210.495723,99999999999999.0,12,19,10,-99999999999999.0,21,12,60
23,1465506363.0314274,99999999999999.0,12,19,10,-99999999999999.0,18, 9,60
59,894100429.0525081,99999999999999.0, 1, 1,10,-99999999999999.0, 1, 8,10
521,1870848847.464256,99999999999999.0,11,14,20,-99999999999999.0, 5, 2,20
637,4634128.279377478,99999999999999.0, 1, 8,30,-99999999999999.0, 3, 8,30
649,4634128.279377478,99999999999999.0, 1, 8,30,-99999999999999.0, 3, 8,30
4,243, 8
11,2915873309.421565,99999999999999.0,12,19,10,-99999999999999.0,21,12,60
23,1446075170.4296222,99999999999999.0,12,19,10,-99999999999999.0,18, 9,60
59,860592398.1306971,99999999999999.0, 1, 1,10,-99999999999999.0, 1, 8,10
521,1469798138.9919178,99999999999999.0,11,14,20,-99999999999999.0, 5, 2,20
637,20601946.574220307,99999999999999.0, 1, 8,30,-99999999999999.0, 3, 8,30
649,20601946.574220307,99999999999999.0, 1, 8,30,-99999999999999.0, 3, 8,30
4,273, 9
11,2442184128.6468005,99999999999999.0,12,19,10,-99999999999999.0,21,12,60
23,1431355556.704899,99999999999999.0,12,19,10,-99999999999999.0,18, 9,60
59,823103215.0201421,99999999999999.0, 1, 1,10,-99999999999999.0, 1, 8,10
521,1010828571.9419062,99999999999999.0,11,14,20,-99999999999999.0, 5, 2,20
637,105997137.03552417,99999999999999.0, 1, 8,30,-99999999999999.0, 3, 8,30
649,105997137.03552417,99999999999999.0, 1, 8,30,-99999999999999.0, 3, 8,30
4,304,10
11,3582329997.2063084,99999999999999.0,12,19,10,-99999999999999.0,21,12,60
23,1637313563.817913,99999999999999.0,12,19,10,-99999999999999.0,18, 9,60
59,894100429.0525081,99999999999999.0, 1, 1,10,-99999999999999.0, 1, 8,10
521,1945016433.3884037,99999999999999.0,11,14,20,-99999999999999.0, 5, 2,20
637,2458967836.1907516,99999999999999.0, 1, 8,30,-99999999999999.0, 3, 8,30
649,2458967836.1907516,99999999999999.0, 1, 8,30,-99999999999999.0, 3, 8,30
4,334,11
11,6451255694.501995,99999999999999.0,12,19,10,-99999999999999.0,21,12,60
23,1614376977.4626634,99999999999999.0,12,19,10,-99999999999999.0,18, 9,60
59,823103215.0201385,99999999999999.0, 1, 1,10,-99999999999999.0, 1, 8,10
521,4836878717.039338,99999999999999.0,11,14,20,-99999999999999.0, 5, 2,20
637,9009227278.663925,99999999999999.0, 1, 8,30,-99999999999999.0, 3, 8,30
649,9009227278.663925,99999999999999.0, 1, 8,30,-99999999999999.0, 3, 8,30
4,365,12
11,8185525656.562507,99999999999999.0,12,19,10,-99999999999999.0,21,12,60
23,1703081445.7913523,99999999999999.0,12,19,10,-99999999999999.0,18, 9,60
59,860592398.1306903,99999999999999.0, 1, 1,10,-99999999999999.0, 1, 8,10
521,6482444210.771154,99999999999999.0,11,14,20,-99999999999999.0, 5, 2,20
637,10703413097.693722,99999999999999.0, 1, 8,30,-99999999999999.0, 3, 8,30
649,10703413097.693722,99999999999999.0, 1, 8,30,-99999999999999.0, 3, 8,30
5,365
13,62189691504.76663,27646.890199520374, 4,12,19,10,3491149.2163153654, 2,21,12,60
25,18941832777.379242,27646.890199520374, 4,12,19,10,989580.1730916759, 3,18, 9,60
61,10198716619.486725,27646.890199520374, 1, 1, 1,10,552937.8039904075, 1, 1, 8,10
523,43247858727.388535,0.0, 1,11,14,20,2614078.2479472393, 2, 5, 2,20
639,69993779985.83055,0.0, 1, 1, 8,30,21783693.086359434, 2, 3, 8,30
651,69993779985.83055,0.0, 1, 1, 8,30,21783693.086359434, 2, 3, 8,30
1,RUN PERIOD 2,  41.98, -87.92,  -6.00, 201.00
4,1, 7
11,100506123.7524046,99999999999999.0,12,19,10,-99999999999999.0,21,12,60
23,61523082.63338806,99999999999999.0,12,19,10,-99999999999999.0,18, 9,60
59,37489183.11054964,99999999999999.0, 1, 1,10,-99999999999999.0, 1, 8,10
521,38983041.119016685,99999999999999.0,11,14,20,-99999999999999.0, 5, 2,20
637,0.0,99999999999999.0, 1, 8,30,-99999999999999.0, 3, 8,30
649,0.0,99999999999999.0, 1, 8,30,-99999999999999.0, 3, 8,30
5,1
13,100506123.7524046,99999999999999.0, 4,12,19,10,-99999999999999.0, 2,21,12,60
25,61523082.63338806,99999999999999.0, 4,12,19,10,-99999999999999.0, 3,18, 9,60
61,37489183.11054964,99999999999999.0, 1, 1, 1,10,-99999999999999.0, 1, 1, 8,10
523,38983041.119016685,99999999999999.0, 1,11,14,20,-99999999999999.0, 2, 5, 2,20
639,0.0,99999999999999.0, 1, 1, 8,30,-99999999999999.0, 2, 3, 8,30
651,0.0,99999999999999.0, 1, 1, 8,30,-99999999999999.0, 2, 3, 8,30
End of Data
 Number of Records Written=          90
