Program Version,EnergyPlus, Version 24.2.0-94a887817b, YMD=2025.02.04 15:38
1,5,Environment Title[],Latitude[deg],Longitude[deg],Time Zone[],Elevation[m]
2,8,Day of Simulation[],Month[],Day of Month[],DST Indicator[1=yes 0=no],Hour[],StartMinute[],EndMinute[],DayType
3,5,Cumulative Day of Simulation[],Month[],Day of Month[],DST Indicator[1=yes 0=no],DayType  ! When Daily Report Variables Requested
4,2,Cumulative Days of Simulation[],Month[]  ! When Monthly Report Variables Requested
5,1,Cumulative Days of Simulation[] ! When Run Period Report Variables Requested
6,1,Calendar Year of Simulation[] ! When Annual Report Variables Requested
250,1,LIVING ZONE,Zone Air Temperature [C] !TimeStep,REPORTSCH
251,1,LIVING ZONE,Zone Air System Sensible Heating Energy [J] !TimeStep,REPORTSCH
336,1,LIVING ZONE,Zone Air System Sensible Cooling Energy [J] !TimeStep,REPORTSCH
385,1,LIVING ZONE,Zone Thermostat Heating Setpoint Temperature [C] !TimeStep,REPORTSCH
386,1,LIVING ZONE,Zone Thermostat Cooling Setpoint Temperature [C] !TimeStep,REPORTSCH
387,1,GARAGE ZONE,Zone Air Temperature [C] !TimeStep,REPORTSCH
388,1,GARAGE ZONE,Zone Air System Sensible Heating Energy [J] !TimeStep,REPORTSCH
425,1,GARAGE ZONE,Zone Air System Sensible Cooling Energy [J] !TimeStep,REPORTSCH
450,1,GARAGE ZONE,Zone Thermostat Heating Setpoint Temperature [C] !TimeStep,REPORTSCH
451,1,GARAGE ZONE,Zone Thermostat Cooling Setpoint Temperature [C] !TimeStep,REPORTSCH
452,1,ATTIC ZONE,Zone Air Temperature [C] !TimeStep,REPORTSCH
453,1,ATTIC ZONE,Zone Air System Sensible Heating Energy [J] !TimeStep,REPORTSCH
490,1,ATTIC ZONE,Zone Air System Sensible Cooling Energy [J] !TimeStep,REPORTSCH
515,1,ATTIC ZONE,Zone Thermostat Heating Setpoint Temperature [C] !TimeStep,REPORTSCH
516,1,ATTIC ZONE,Zone Thermostat Cooling Setpoint Temperature [C] !TimeStep,REPORTSCH
542,1,ACDXCOIL 1,Cooling Coil Total Cooling Energy [J] !TimeStep,REPORTSCH
592,1,HEAT PUMP DX HEATING COIL 1,Heating Coil Heating Energy [J] !TimeStep,REPORTSCH
632,1,SUPP HEATING COIL 1,Heating Coil Heating Energy [J] !TimeStep,REPORTSCH
686,1,TWOSPEED HEAT PUMP 1,Unitary System DX Coil Cycling Ratio [] !TimeStep,REPORTSCH
687,1,TWOSPEED HEAT PUMP 1,Unitary System DX Coil Speed Ratio [] !TimeStep,REPORTSCH
688,1,TWOSPEED HEAT PUMP 1,Unitary System DX Coil Speed Level [] !TimeStep,REPORTSCH
End of Data Dictionary
1,RUN PERIOD 1,  41.98, -87.92,  -6.00, 201.00
2,21, 1,21, 0, 1, 0.00,10.00,Monday
250,1.7986489409621405
251,36712119.8907799
336,0.0
385,21.378488649752295
386,27.626661235907708
387,-0.8907385975957106
388,0.0
425,0.0
450,0.0
451,0.0
452,-1.9158165008665191
453,0.0
490,0.0
515,0.0
516,0.0
542,0.0
592,4839743.9850796405
632,31619278.003179803
686,1.0
687,1.0
688,2.0
2,21, 1,21, 0, 1,10.00,20.00,Monday
250,1.799422692854119
251,36713123.52415322
336,0.0
385,21.378488649752295
386,27.626661235907708
387,-0.8992476347750709
388,0.0
425,0.0
450,0.0
451,0.0
452,-1.897838182882769
453,0.0
490,0.0
515,0.0
516,0.0
542,0.0
592,4823801.676011796
632,31630846.93875369
686,1.0
687,1.0
688,2.0
2,21, 1,21, 0, 1,20.00,30.00,Monday
250,1.7982707339403945
251,36715384.409514725
336,0.0
385,21.378488649752295
386,27.626661235907708
387,-0.9089459950610693
388,0.0
425,0.0
450,0.0
451,0.0
452,-1.8945439418750534
453,0.0
490,0.0
515,0.0
516,0.0
542,0.0
592,4807858.162905221
632,31648014.67812672
686,1.0
687,1.0
688,2.0
2,21, 1,21, 0, 1,30.00,40.00,Monday
250,1.7976108493765337
251,36717330.39592
336,0.0
385,21.378488649752295
386,27.626661235907708
387,-0.920040793822013
388,0.0
425,0.0
450,0.0
451,0.0
452,-1.907148506683567
453,0.0
490,0.0
515,0.0
516,0.0
542,0.0
592,4791913.445623511
632,31666170.267314527
686,1.0
687,1.0
688,2.0
2,21, 1,21, 0, 1,40.00,50.00,Monday
250,1.7969889072676375
251,36719253.91137252
336,0.0
385,21.378488649752295
386,27.626661235907708
387,-0.9326907379869649
388,0.0
425,0.0
450,0.0
451,0.0
452,-1.9340885214703447
453,0.0
490,0.0
515,0.0
516,0.0
542,0.0
592,4775967.524030239
632,31684060.116513174
686,1.0
687,1.0
688,2.0
2,21, 1,21, 0, 1,50.00,60.00,Monday
250,1.7963216627130931
251,36721207.53902359
336,0.0
385,21.378488649752295
386,27.626661235907708
387,-0.9470847501000451
388,0.0
425,0.0
450,0.0
451,0.0
452,-1.973767116742246
453,0.0
490,0.0
515,0.0
516,0.0
542,0.0
592,4760020.397988958
632,31701936.464599103
686,1.0
687,1.0
688,2.0
2,21, 1,21, 0, 2, 0.00,10.00,Monday
250,1.795671622186001
251,36723152.394561134
336,0.0
385,21.378488649752295
386,27.626661235907708
387,-0.9625674348050882
388,0.0
425,0.0
450,0.0
451,0.0
452,-2.020181872057013
453,0.0
490,0.0
515,0.0
516,0.0
542,0.0
592,4760020.397988958
632,31703890.56767222
686,1.0
687,1.0
688,2.0
2,21, 1,21, 0, 2,10.00,20.00,Monday
250,1.7949382494833206
251,36723723.2112076
336,0.0
385,21.378488649752295
386,27.626661235907708
387,-0.9782255564488113
388,0.0
425,0.0
450,0.0
451,0.0
452,-2.0626713778992967
453,0.0
490,0.0
515,0.0
516,0.0
542,0.0
592,4760020.397988958
632,31704416.514010746
686,1.0
687,1.0
688,2.0
2,21, 1,21, 0, 2,20.00,30.00,Monday
250,1.7941881806489133
251,36724080.6525606
336,0.0
385,21.378488649752295
386,27.626661235907708
387,-0.9935186360607237
388,0.0
425,0.0
450,0.0
451,0.0
452,-2.094040169401387
453,0.0
490,0.0
515,0.0
516,0.0
542,0.0
592,4760020.397988958
632,31704764.966158435
686,1.0
687,1.0
688,2.0
2,21, 1,21, 0, 2,30.00,40.00,Monday
250,1.793459770404587
251,36724476.21905648
336,0.0
385,21.378488649752295
386,27.626661235907708
387,-1.0081264189385513
388,0.0
425,0.0
450,0.0
451,0.0
452,-2.113431984258569
453,0.0
490,0.0
515,0.0
516,0.0
542,0.0
592,4760020.397988958
632,31705172.194261074
686,1.0
687,1.0
688,2.0
2,21, 1,21, 0, 2,40.00,50.00,Monday
250,1.7927468892368317
251,36724865.68380436
336,0.0
385,21.378488649752295
386,27.626661235907708
387,-1.0219056959282222
388,0.0
425,0.0
450,0.0
451,0.0
452,-2.1236533664597324
453,0.0
490,0.0
515,0.0
516,0.0
542,0.0
592,4760020.397988958
632,31705570.020277366
686,1.0
687,1.0
688,2.0
2,21, 1,21, 0, 2,50.00,60.00,Monday
250,1.792049083538176
251,36725241.46843523
336,0.0
385,21.378488649752295
386,27.626661235907708
387,-1.0348162363823539
388,0.0
425,0.0
450,0.0
451,0.0
452,-2.1278062061420497
453,0.0
490,0.0
515,0.0
516,0.0
542,0.0
592,4760020.397988958
632,31705953.922000006
686,1.0
687,1.0
688,2.0
2,21, 1,21, 0, 3, 0.00,10.00,Monday
250,1.8654114116315896
251,36685740.67131895
336,0.0
385,21.378488649752295
386,27.626661235907708
387,-1.0365041218097149
388,0.0
425,0.0
450,0.0
451,0.0
452,-2.120481811822142
453,0.0
490,0.0
515,0.0
516,0.0
542,0.0
592,4762558.894114006
632,31703790.8637058
686,1.0
687,1.0
688,2.0
2,21, 1,21, 0, 3,10.00,20.00,Monday
250,1.947549401295405
251,36642858.66387808
336,0.0
385,21.378488649752295
386,27.626661235907708
387,-1.02573092385422
388,0.0
425,0.0
450,0.0
451,0.0
452,-2.0958452393213
453,0.0
490,0.0
515,0.0
516,0.0
542,0.0
592,4764988.4357309695
632,31663206.020193122
686,1.0
687,1.0
688,2.0
2,21, 1,21, 0, 3,20.00,30.00,Monday
250,2.026717330087176
251,36601792.00030349
336,0.0
385,21.378488649752295
386,27.626661235907708
387,-1.006952881116809
388,0.0
425,0.0
450,0.0
451,0.0
452,-2.052369050590161
453,0.0
490,0.0
515,0.0
516,0.0
542,0.0
592,4767308.250738335
632,31618222.130073316
686,1.0
687,1.0
688,2.0
2,21, 1,21, 0, 3,30.00,40.00,Monday
250,2.105597186864741
251,36560840.071450815
336,0.0
385,21.378488649752295
386,27.626661235907708
387,-0.9839641571450743
388,0.0
425,0.0
450,0.0
451,0.0
452,-1.993080171324599
453,0.0
490,0.0
515,0.0
516,0.0
542,0.0
592,4769517.689516205
632,31574907.412526403
686,1.0
687,1.0
688,2.0
2,21, 1,21, 0, 3,40.00,50.00,Monday
250,2.1849861218111193
251,36519618.31203645
336,0.0
385,21.378488649752295
386,27.626661235907708
387,-0.9580601538803662
388,0.0
425,0.0
450,0.0
451,0.0
452,-1.9224150031038136
453,0.0
490,0.0
515,0.0
516,0.0
542,0.0
592,4771616.115684973
632,31531863.153079983
686,1.0
687,1.0
688,2.0
2,21, 1,21, 0, 3,50.00,60.00,Monday
250,2.2645499386048833
251,36478314.06387444
336,0.0
385,21.378488649752295
386,27.626661235907708
387,-0.9290551482983336
388,0.0
425,0.0
450,0.0
451,0.0
452,-1.844007206322779
453,0.0
490,0.0
515,0.0
516,0.0
542,0.0
592,4773602.736238396
632,31488668.273062173
686,1.0
687,1.0
688,2.0
2,21, 1,21, 0, 4, 0.00,10.00,Monday
250,2.2702289849587167
251,36476808.30191096
336,0.0
385,21.378488649752295
386,27.626661235907708
387,-0.9074881976644544
388,0.0
425,0.0
450,0.0
451,0.0
452,-1.768090223159777
453,0.0
490,0.0
515,0.0
516,0.0
542,0.0
592,4773428.982371633
632,31447546.420209646
686,1.0
687,1.0
688,2.0
2,21, 1,21, 0, 4,10.00,20.00,Monday
250,2.267549049161092
251,36478456.65693122
336,0.0
385,21.378488649752295
386,27.626661235907708
387,-0.895792062392647
388,0.0
425,0.0
450,0.0
451,0.0
452,-1.7036249203133673
453,0.0
490,0.0
515,0.0
516,0.0
542,0.0
592,4773255.169447958
632,31444866.73417658
686,1.0
687,1.0
688,2.0
2,21, 1,21, 0, 4,20.00,30.00,Monday
250,2.268193024575309
251,36478102.93378414
336,0.0
385,21.378488649752295
386,27.626661235907708
387,-0.8903505851946318
388,0.0
425,0.0
450,0.0
451,0.0
452,-1.6542903717656927
453,0.0
490,0.0
515,0.0
516,0.0
542,0.0
592,4773081.297437258
632,31446477.031557303
686,1.0
687,1.0
688,2.0
2,21, 1,21, 0, 4,30.00,40.00,Monday
250,2.268714568579184
251,36477862.418696955
336,0.0
385,21.378488649752295
386,27.626661235907708
387,-0.8874096990059731
388,0.0
425,0.0
450,0.0
451,0.0
452,-1.6185636775110734
453,0.0
490,0.0
515,0.0
516,0.0
542,0.0
592,4772907.3663094025
632,31446344.510415237
686,1.0
687,1.0
688,2.0
2,21, 1,21, 0, 4,40.00,50.00,Monday
250,2.2688923507882204
251,36477809.253359035
336,0.0
385,21.378488649752295
386,27.626661235907708
387,-0.8853321460283293
388,0.0
425,0.0
450,0.0
451,0.0
452,-1.5928227897528977
453,0.0
490,0.0
515,0.0
516,0.0
542,0.0
592,4772733.376034233
632,31446280.196567558
686,1.0
687,1.0
688,2.0
2,21, 1,21, 0, 4,50.00,60.00,Monday
250,2.2690712060178484
251,36477750.239303924
336,0.0
385,21.378488649752295
386,27.626661235907708
387,-0.8840206288096133
388,0.0
425,0.0
450,0.0
451,0.0
452,-1.5739650038424864
453,0.0
490,0.0
515,0.0
516,0.0
542,0.0
592,4772559.326581575
632,31446395.809958223
686,1.0
687,1.0
688,2.0
2,21, 1,21, 0, 5, 0.00,10.00,Monday
250,2.2692501780148193
251,36477690.84055951
336,0.0
385,21.378488649752295
386,27.626661235907708
387,-0.8835507413170587
388,0.0
425,0.0
450,0.0
451,0.0
452,-1.5593440602265558
453,0.0
490,0.0
515,0.0
516,0.0
542,0.0
592,4759720.85868958
632,31459174.942090772
686,1.0
687,1.0
688,2.0
2,21, 1,21, 0, 5,10.00,20.00,Monday
250,2.2694962011205653
251,36478699.7130708
336,0.0
385,21.378488649752295
386,27.626661235907708
387,-0.8837815516338998
388,0.0
425,0.0
450,0.0
451,0.0
452,-1.5466495554309756
453,0.0
490,0.0
515,0.0
516,0.0
542,0.0
592,4746877.262331866
632,31473063.526762832
686,1.0
687,1.0
688,2.0
2,21, 1,21, 0, 5,20.00,30.00,Monday
250,2.26976111507111
251,36479872.06835542
336,0.0
385,21.378488649752295
386,27.626661235907708
387,-0.8844781853969363
388,0.0
425,0.0
450,0.0
451,0.0
452,-1.5344757896475536
453,0.0
490,0.0
515,0.0
516,0.0
542,0.0
592,4734028.534436011
632,31487094.78943096
686,1.0
687,1.0
688,2.0
2,21, 1,21, 0, 5,30.00,40.00,Monday
250,2.270025496791392
251,36481006.52658082
336,0.0
385,21.378488649752295
386,27.626661235907708
387,-0.8854379342976226
388,0.0
425,0.0
450,0.0
451,0.0
452,-1.5223739887222767
453,0.0
490,0.0
515,0.0
516,0.0
542,0.0
592,4721174.671927155
632,31501082.828487284
686,1.0
687,1.0
688,2.0
2,21, 1,21, 0, 5,40.00,50.00,Monday
250,2.270306356788968
251,36482130.84277704
336,0.0
385,21.378488649752295
386,27.626661235907708
387,-0.8865288262995675
388,0.0
425,0.0
450,0.0
451,0.0
452,-1.510401389912444
453,0.0
490,0.0
515,0.0
516,0.0
542,0.0
592,4708315.671727969
632,31515075.025772005
686,1.0
687,1.0
688,2.0
2,21, 1,21, 0, 5,50.00,60.00,Monday
250,2.2705620926008034
251,36483273.51726134
336,0.0
385,21.378488649752295
386,27.626661235907708
387,-0.887674803734896
388,0.0
425,0.0
450,0.0
451,0.0
452,-1.4987087216282733
453,0.0
490,0.0
515,0.0
516,0.0
542,0.0
592,4695451.530758674
632,31529068.313091468
686,1.0
687,1.0
688,2.0
2,21, 1,21, 0, 6, 0.00,10.00,Monday
250,2.270819848228741
251,36484415.87602155
336,0.0
385,21.378488649752295
386,27.626661235907708
387,-0.8889595094836463
388,0.0
425,0.0
450,0.0
451,0.0
452,-1.4879692465383658
453,0.0
490,0.0
515,0.0
516,0.0
542,0.0
592,4695264.08225586
632,31530399.213228486
686,1.0
687,1.0
688,2.0
2,21, 1,21, 0, 6,10.00,20.00,Monday
250,2.2709981498427863
251,36484495.76992636
336,0.0
385,21.378488649752295
386,27.626661235907708
387,-0.8904614801054972
388,0.0
425,0.0
450,0.0
451,0.0
452,-1.47899340101177
453,0.0
490,0.0
515,0.0
516,0.0
542,0.0
592,4695076.569900009
632,31530623.819592435
686,1.0
687,1.0
688,2.0
2,21, 1,21, 0, 6,20.00,30.00,Monday
250,2.2711506617321193
251,36484416.144001335
336,0.0
385,21.378488649752295
386,27.626661235907708
387,-0.8921719797961495
388,0.0
425,0.0
450,0.0
451,0.0
452,-1.4721202166958194
453,0.0
490,0.0
515,0.0
516,0.0
542,0.0
592,4694888.993658494
632,31530717.87741545
686,1.0
687,1.0
688,2.0
2,21, 1,21, 0, 6,30.00,40.00,Monday
250,2.2713052035283936
251,36484374.15092231
336,0.0
385,21.378488649752295
386,27.626661235907708
387,-0.8940481301814828
388,0.0
425,0.0
450,0.0
451,0.0
452,-1.4671465052045174
453,0.0
490,0.0
515,0.0
516,0.0
542,0.0
592,4694701.353498662
632,31530864.61806785
686,1.0
687,1.0
688,2.0
2,21, 1,21, 0, 6,40.00,50.00,Monday
250,2.2714593609647546
251,36484334.14774811
336,0.0
385,21.378488649752295
386,27.626661235907708
387,-0.8960584142190706
388,0.0
425,0.0
450,0.0
451,0.0
452,-1.463625003658325
453,0.0
490,0.0
515,0.0
516,0.0
542,0.0
592,4694513.649387832
632,31531012.11205385
686,1.0
687,1.0
688,2.0
2,21, 1,21, 0, 6,50.00,60.00,Monday
250,2.2716123911281176
251,36484290.43530241
336,0.0
385,21.378488649752295
386,27.626661235907708
387,-0.8981863690453318
388,0.0
425,0.0
450,0.0
451,0.0
452,-1.461137354777706
453,0.0
490,0.0
515,0.0
516,0.0
542,0.0
592,4694325.881293308
632,31531155.560545348
686,1.0
687,1.0
688,2.0
2,21, 1,21, 0, 7, 0.00,10.00,Monday
250,2.2654105058661798
251,36487669.767329745
336,0.0
385,21.378488649752295
386,27.626661235907708
387,-0.9028840228164033
388,0.0
425,0.0
450,0.0
451,0.0
452,-1.464487493169678
453,0.0
490,0.0
515,0.0
516,0.0
542,0.0
592,4723573.583255435
632,31501863.88722476
686,1.0
687,1.0
688,2.0
2,21, 1,21, 0, 7,10.00,20.00,Monday
250,2.264828760308053
251,36485471.08595875
336,0.0
385,21.378488649752295
386,27.626661235907708
387,-0.9122964818626474
388,0.0
425,0.0
450,0.0
451,0.0
452,-1.483077615249452
453,0.0
490,0.0
515,0.0
516,0.0
542,0.0
592,4752837.186047653
632,31473429.11477244
686,1.0
687,1.0
688,2.0
2,21, 1,21, 0, 7,20.00,30.00,Monday
250,2.2652590546882143
251,36482328.23092464
336,0.0
385,21.378488649752295
386,27.626661235907708
387,-0.9265911151145818
388,0.0
425,0.0
450,0.0
451,0.0
452,-1.522371760240287
453,0.0
490,0.0
515,0.0
516,0.0
542,0.0
592,4782116.702651945
632,31441551.858774886
686,1.0
687,1.0
688,2.0
2,21, 1,21, 0, 7,30.00,40.00,Monday
250,2.265414221195771
251,36479421.68904483
336,0.0
385,21.378488649752295
386,27.626661235907708
387,-0.9447669892876941
388,0.0
425,0.0
450,0.0
451,0.0
452,-1.5801953891572502
453,0.0
490,0.0
515,0.0
516,0.0
542,0.0
592,4811412.146064445
632,31409201.681531962
686,1.0
687,1.0
688,2.0
2,21, 1,21, 0, 7,40.00,50.00,Monday
250,2.2655621446681278
251,36476521.52252273
336,0.0
385,21.378488649752295
386,27.626661235907708
387,-0.9657558019913614
388,0.0
425,0.0
450,0.0
451,0.0
452,-1.650284390900141
453,0.0
490,0.0
515,0.0
516,0.0
542,0.0
592,4840723.5292954575
632,31376986.224779908
686,1.0
687,1.0
688,2.0
2,21, 1,21, 0, 7,50.00,60.00,Monday
250,2.2657424400923656
251,36473592.416416615
336,0.0
385,21.378488649752295
386,27.626661235907708
387,-0.9888552914025348
388,0.0
425,0.0
450,0.0
451,0.0
452,-1.726854762332074
453,0.0
490,0.0
515,0.0
516,0.0
542,0.0
592,4870050.865369482
632,31344747.208087254
686,1.0
687,1.0
688,2.0
2,21, 1,21, 0, 8, 0.00,10.00,Monday
250,2.4674273199879515
251,36362163.267391264
336,0.0
385,21.378488649752295
386,27.626661235907708
387,-0.9850375600771124
388,0.0
425,0.0
450,0.0
451,0.0
452,-1.785952656733723
453,0.0
490,0.0
515,0.0
516,0.0
542,0.0
592,4889730.300311493
632,31322136.520756043
686,1.0
687,1.0
688,2.0
2,21, 1,21, 0, 8,10.00,20.00,Monday
250,2.6695445526981776
251,36255057.82422224
336,0.0
385,21.378488649752295
386,27.626661235907708
387,-0.9440556640441445
388,0.0
425,0.0
450,0.0
451,0.0
452,-1.7778664736775218
453,0.0
490,0.0
515,0.0
516,0.0
542,0.0
592,4909380.719869504
632,31195618.623820942
686,1.0
687,1.0
688,2.0
2,21, 1,21, 0, 8,20.00,30.00,Monday
250,2.8589027997855108
251,36155533.24422916
336,0.0
385,21.378488649752295
386,27.626661235907708
387,-0.8741071661579817
388,0.0
425,0.0
450,0.0
451,0.0
452,-1.6718010808385353
453,0.0
490,0.0
515,0.0
516,0.0
542,0.0
592,4929009.6156952735
632,31069601.76380827
686,1.0
687,1.0
688,2.0
2,21, 1,21, 0, 8,30.00,40.00,Monday
250,3.050980975561992
251,36054384.44551483
336,0.0
385,21.378488649752295
386,27.626661235907708
387,-0.7824008301994114
388,0.0
425,0.0
450,0.0
451,0.0
452,-1.4758995910085826
453,0.0
490,0.0
515,0.0
516,0.0
542,0.0
592,4952863.646772657
632,30946070.174740415
686,1.0
687,1.0
688,2.0
2,21, 1,21, 0, 8,40.00,50.00,Monday
250,3.245100472995937
251,35951770.87065137
336,0.0
385,21.378488649752295
386,27.626661235907708
387,-0.6783381687932406
388,0.0
425,0.0
450,0.0
451,0.0
452,-1.1976531060748095
453,0.0
490,0.0
515,0.0
516,0.0
542,0.0
592,4977062.298687916
632,30820362.873259354
686,1.0
687,1.0
688,2.0
2,21, 1,21, 0, 8,50.00,60.00,Monday
250,3.4427591981848225
251,35848064.35015346
336,0.0
385,21.378488649752295
386,27.626661235907708
387,-0.5809861506719143
388,0.0
425,0.0
450,0.0
451,0.0
452,-0.8817386970715915
453,0.0
490,0.0
515,0.0
516,0.0
542,0.0
592,5001395.306277511
632,30645241.892494634
686,1.0
687,1.0
688,2.0
2,21, 1,21, 0, 9, 0.00,10.00,Monday
250,3.70133947498556
251,35712485.82457583
336,0.0
385,21.378488649752295
386,27.626661235907708
387,-0.44100403133307375
388,0.0
425,0.0
450,0.0
451,0.0
452,-0.4005084428622082
453,0.0
490,0.0
515,0.0
516,0.0
542,0.0
592,5029363.153609448
632,30499017.78223393
686,1.0
687,1.0
688,2.0
2,21, 1,21, 0, 9,10.00,20.00,Monday
250,3.959451697826088
251,35576386.64856033
336,0.0
385,21.378488649752295
386,27.626661235907708
387,-0.28877752021478675
388,0.0
425,0.0
450,0.0
451,0.0
452,0.12394326819310321
453,0.0
490,0.0
515,0.0
516,0.0
542,0.0
592,5057356.862312016
632,30334383.974724606
686,1.0
687,1.0
688,2.0
2,21, 1,21, 0, 9,20.00,30.00,Monday
250,4.217550814509181
251,35440266.94888116
336,0.0
385,21.378488649752295
386,27.626661235907708
387,-0.1286972686149836
388,0.0
425,0.0
450,0.0
451,0.0
452,0.6887472815844764
453,0.0
490,0.0
515,0.0
516,0.0
542,0.0
592,5085392.284952975
632,30170276.509992156
686,1.0
687,1.0
688,2.0
2,21, 1,21, 0, 9,30.00,40.00,Monday
250,4.475206718641261
251,35304387.27873002
336,0.0
385,21.378488649752295
386,27.626661235907708
387,0.04089734081533034
388,0.0
425,0.0
450,0.0
451,0.0
452,1.2835657109645706
453,0.0
490,0.0
515,0.0
516,0.0
542,0.0
592,5113485.892141593
632,30006168.794256926
686,1.0
687,1.0
688,2.0
2,21, 1,21, 0, 9,40.00,50.00,Monday
250,4.735117265223308
251,35166451.53431667
336,0.0
385,21.378488649752313
386,27.626661235907726
387,0.1856048550112565
388,0.0
425,0.0
450,0.0
451,0.0
452,1.786835390580983
453,0.0
490,0.0
515,0.0
516,0.0
542,0.0
592,5141654.529350725
632,29814489.408458628
686,1.0000000000000009
687,1.0000000000000009
688,2.0000000000000018
2,21, 1,21, 0, 9,50.00,60.00,Monday
250,4.992842022623388
251,35029968.5510599
336,0.0
385,21.378488649752295
386,27.626661235907708
387,0.3376417330877684
388,0.0
425,0.0
450,0.0
451,0.0
452,2.328737630365555
453,0.0
490,0.0
515,0.0
516,0.0
542,0.0
592,5169915.672059793
632,29676088.312765595
686,1.0
687,1.0
688,2.0
2,21, 1,21, 0,10, 0.00,10.00,Monday
250,5.430668198636902
251,34797776.10251329
336,0.0
385,21.378488649752295
386,27.626661235907708
387,0.5278739555091084
388,0.0
425,0.0
450,0.0
451,0.0
452,2.889695624345082
453,0.0
490,0.0
515,0.0
516,0.0
542,0.0
592,5241404.10703412
632,29379715.270368252
686,1.0
687,1.0
688,2.0
2,21, 1,21, 0,10,10.00,20.00,Monday
250,5.872148368194595
251,34564117.7012989
336,0.0
385,21.378488649752292
386,27.626661235907704
387,0.8191430709686368
388,0.0
425,0.0
450,0.0
451,0.0
452,3.6448930076552
453,0.0
490,0.0
515,0.0
516,0.0
542,0.0
592,5315291.857316207
632,29072697.875379078
686,1.0
687,1.0
688,2.0
2,21, 1,21, 0,10,20.00,30.00,Monday
250,6.317479600740663
251,34327222.19055657
336,0.0
385,21.378488649752285
386,27.626661235907697
387,1.0999974843634632
388,0.0
425,0.0
450,0.0
451,0.0
452,4.335491042085868
453,0.0
490,0.0
515,0.0
516,0.0
542,0.0
592,5391793.298050373
632,28760006.831369147
686,0.9999999999999996
687,0.9999999999999996
688,1.9999999999999991
2,21, 1,21, 0,10,30.00,40.00,Monday
250,6.764414049198303
251,34089337.22610864
336,0.0
385,21.378488649752306
386,27.62666123590772
387,1.3821283756627598
388,0.0
425,0.0
450,0.0
451,0.0
452,5.034493238541683
453,0.0
490,0.0
515,0.0
516,0.0
542,0.0
592,5471132.199313744
632,28443119.171454597
686,1.0000000000000004
687,1.0000000000000004
688,2.000000000000001
2,21, 1,21, 0,10,40.00,50.00,Monday
250,7.213495200096028
251,33850159.392774746
336,0.0
385,21.378488649752313
386,27.626661235907726
387,1.6725460666355598
388,0.0
425,0.0
450,0.0
451,0.0
452,5.798759456469242
453,0.0
490,0.0
515,0.0
516,0.0
542,0.0
592,5553542.3757593315
632,28121978.46272501
686,1.0000000000000009
687,1.0000000000000009
688,2.0000000000000018
2,21, 1,21, 0,10,50.00,60.00,Monday
250,7.662802780925911
251,33610718.1831768
336,0.0
385,21.378488649752313
386,27.626661235907726
387,1.9729949473919435
388,0.0
425,0.0
450,0.0
451,0.0
452,6.628798482427854
453,0.0
490,0.0
515,0.0
516,0.0
542,0.0
592,5639267.778995938
632,27796900.43870267
686,1.0000000000000009
687,1.0000000000000009
688,2.0000000000000018
2,21, 1,21, 0,11, 0.00,10.00,Monday
250,7.946823788246029
251,33459582.94215132
336,0.0
385,21.378488649752295
386,27.626661235907708
387,2.259683952104476
388,0.0
425,0.0
450,0.0
451,0.0
452,7.48419253728299
453,0.0
490,0.0
515,0.0
516,0.0
542,0.0
592,5689519.861596227
632,27564523.96737563
686,1.0
687,1.0
688,2.0
2,21, 1,21, 0,11,10.00,20.00,Monday
250,8.226418869569194
251,33310698.571390897
336,0.0
385,21.378488649752292
386,27.626661235907704
387,2.5295366514006385
388,0.0
425,0.0
450,0.0
451,0.0
452,8.334953649131704
453,0.0
490,0.0
515,0.0
516,0.0
542,0.0
592,5740969.350869596
632,27363271.564830348
686,1.0
687,1.0
688,2.0
2,21, 1,21, 0,11,20.00,30.00,Monday
250,8.505925541209523
251,33161821.495724272
336,0.0
385,21.378488649752285
386,27.626661235907697
387,2.801708165453237
388,0.0
425,0.0
450,0.0
451,0.0
452,9.181784212756899
453,0.0
490,0.0
515,0.0
516,0.0
542,0.0
592,5793671.0952822175
632,27161706.6646775
686,0.9999999999999996
687,0.9999999999999996
688,1.9999999999999991
2,21, 1,21, 0,11,30.00,40.00,Monday
250,8.783172256063807
251,33014109.70415704
336,0.0
385,21.378488649752306
386,27.62666123590772
387,3.0790273665011063
388,0.0
425,0.0
450,0.0
451,0.0
452,10.004757527839503
453,0.0
490,0.0
515,0.0
516,0.0
542,0.0
592,5847681.427966583
632,26959577.7591933
686,1.0000000000000004
687,1.0000000000000004
688,2.000000000000001
2,21, 1,21, 0,11,40.00,50.00,Monday
250,9.059286669277531
251,32866956.41649273
336,0.0
385,21.378488649752313
386,27.626661235907726
387,3.358096035991924
388,0.0
425,0.0
450,0.0
451,0.0
452,10.749967739482809
453,0.0
490,0.0
515,0.0
516,0.0
542,0.0
592,5903058.082199926
632,26756850.47546952
686,1.0000000000000009
687,1.0000000000000009
688,2.0000000000000018
2,21, 1,21, 0,11,50.00,60.00,Monday
250,9.33394560221903
251,32720534.68878787
336,0.0
385,21.378488649752313
386,27.626661235907726
387,3.6350589795891386
388,0.0
425,0.0
450,0.0
451,0.0
452,11.384630288276236
453,0.0
490,0.0
515,0.0
516,0.0
542,0.0
592,5959860.237244541
632,26553369.60685955
686,1.0000000000000009
687,1.0000000000000009
688,2.0000000000000018
2,21, 1,21, 0,12, 0.00,10.00,Monday
250,9.59794191333782
251,32579653.334598176
336,0.0
385,21.378488649752295
386,27.626661235907708
387,3.874887191910099
388,0.0
425,0.0
450,0.0
451,0.0
452,11.884096904386915
453,0.0
490,0.0
515,0.0
516,0.0
542,0.0
592,5991096.197635707
632,26406433.88215089
686,1.0
687,1.0
688,2.0
2,21, 1,21, 0,12,10.00,20.00,Monday
250,9.853679506095501
251,32446634.05111079
336,0.0
385,21.378488649752295
386,27.626661235907708
387,4.167183967139154
388,0.0
425,0.0
450,0.0
451,0.0
452,12.448078600457292
453,0.0
490,0.0
515,0.0
516,0.0
542,0.0
592,7572016.881221027
632,24689409.87080299
686,1.0
687,1.0
688,2.0
2,21, 1,21, 0,12,20.00,30.00,Monday
250,10.114351983249128
251,32309368.731812045
336,0.0
385,21.378488649752295
386,27.626661235907708
387,4.436265665476419
388,0.0
425,0.0
450,0.0
451,0.0
452,12.964049721844352
453,0.0
490,0.0
515,0.0
516,0.0
542,0.0
592,7609409.155487608
632,24515963.046947517
686,1.0
687,1.0
688,2.0
2,21, 1,21, 0,12,30.00,40.00,Monday
250,10.37351156694059
251,32172928.359336004
336,0.0
385,21.378488649752295
386,27.626661235907708
387,4.6950249675197195
388,0.0
425,0.0
450,0.0
451,0.0
452,13.454775291042763
453,0.0
490,0.0
515,0.0
516,0.0
542,0.0
592,7646583.592010485
632,24341932.40952923
686,1.0
687,1.0
688,2.0
2,21, 1,21, 0,12,40.00,50.00,Monday
250,10.632345688723094
251,32036662.33561273
336,0.0
385,21.378488649752295
386,27.626661235907708
387,4.949392970519087
388,0.0
425,0.0
450,0.0
451,0.0
452,13.896309077533822
453,0.0
490,0.0
515,0.0
516,0.0
542,0.0
592,7683540.190789655
632,24168613.289369762
686,1.0
687,1.0
688,2.0
2,21, 1,21, 0,12,50.00,60.00,Monday
250,10.891018652548864
251,31900482.575728923
336,0.0
385,21.378488649752295
386,27.626661235907708
387,5.198285519786796
388,0.0
425,0.0
450,0.0
451,0.0
452,14.264387421664798
453,0.0
490,0.0
515,0.0
516,0.0
542,0.0
592,7720278.951825122
632,23995649.175367933
686,1.0
687,1.0
688,2.0
2,21, 1,21, 0,13, 0.00,10.00,Monday
250,11.070937041506504
251,31803931.47424597
336,0.0
385,21.378488649752295
386,27.626661235907708
387,5.430601522227934
388,0.0
425,0.0
450,0.0
451,0.0
452,14.55567397204626
453,0.0
490,0.0
515,0.0
516,0.0
542,0.0
592,7745410.487127082
632,23884282.645090673
686,1.0
687,1.0
688,2.0
2,21, 1,21, 0,13,10.00,20.00,Monday
250,11.247879883075576
251,31711932.352394022
336,0.0
385,21.378488649752295
386,27.626661235907708
387,5.649273793910921
388,0.0
425,0.0
450,0.0
451,0.0
452,14.784760704819028
453,0.0
490,0.0
515,0.0
516,0.0
542,0.0
592,7770439.060057996
632,23778108.1946155
686,1.0
687,1.0
688,2.0
2,21, 1,21, 0,13,20.00,30.00,Monday
250,11.428797371210914
251,31618286.25045055
336,0.0
385,21.378488649752295
386,27.626661235907708
387,5.854049936174941
388,0.0
425,0.0
450,0.0
451,0.0
452,14.967834171373259
453,0.0
490,0.0
515,0.0
516,0.0
542,0.0
592,7795364.67061786
632,23661694.20237918
686,1.0
687,1.0
688,2.0
2,21, 1,21, 0,13,30.00,40.00,Monday
250,11.609083019402416
251,31525020.009664826
336,0.0
385,21.378488649752295
386,27.626661235907708
387,6.04895188233483
388,0.0
425,0.0
450,0.0
451,0.0
452,15.11686836394725
453,0.0
490,0.0
515,0.0
516,0.0
542,0.0
592,7820187.318806681
632,23543276.754869945
686,1.0
687,1.0
688,2.0
2,21, 1,21, 0,13,40.00,50.00,Monday
250,11.788885068205179
251,31432045.586652316
336,0.0
385,21.378488649752295
386,27.626661235907708
387,6.237727868426111
388,0.0
425,0.0
450,0.0
451,0.0
452,15.236079556110214
453,0.0
490,0.0
515,0.0
516,0.0
542,0.0
592,7844907.0046244515
632,23425334.216660153
686,1.0
687,1.0
688,2.0
2,21, 1,21, 0,13,50.00,60.00,Monday
250,11.968559154915038
251,31339172.544489827
336,0.0
385,21.378488649752295
386,27.626661235907708
387,6.421683544338415
388,0.0
425,0.0
450,0.0
451,0.0
452,15.329219901862956
453,0.0
490,0.0
515,0.0
516,0.0
542,0.0
592,7869523.72807117
632,23307788.18913657
686,1.0
687,1.0
688,2.0
2,21, 1,21, 0,14, 0.00,10.00,Monday
250,12.167270705989962
251,31236048.92920223
336,0.0
385,21.378488649752295
386,27.626661235907708
387,6.603641861230802
388,0.0
425,0.0
450,0.0
451,0.0
452,15.38492685925706
453,0.0
490,0.0
515,0.0
516,0.0
542,0.0
592,7896260.907308879
632,23188222.73559369
686,1.0
687,1.0
688,2.0
2,21, 1,21, 0,14,10.00,20.00,Monday
250,12.362992644790488
251,31134221.832734805
336,0.0
385,21.378488649752295
386,27.626661235907708
387,6.783725890478724
388,0.0
425,0.0
450,0.0
451,0.0
452,15.38493317442595
453,0.0
490,0.0
515,0.0
516,0.0
542,0.0
592,7922875.552815753
632,23058179.463706385
686,1.0
687,1.0
688,2.0
2,21, 1,21, 0,14,20.00,30.00,Monday
250,12.557286008068058
251,31033110.387886778
336,0.0
385,21.378488649752295
386,27.626661235907708
387,6.9597850450073455
388,0.0
425,0.0
450,0.0
451,0.0
452,15.32881425793488
453,0.0
490,0.0
515,0.0
516,0.0
542,0.0
592,7949367.664591794
632,22929817.215920687
686,1.0
687,1.0
688,2.0
2,21, 1,21, 0,14,30.00,40.00,Monday
250,12.750653260710246
251,30932528.509096827
336,0.0
385,21.378488649752295
386,27.626661235907708
387,7.12588401146541
388,0.0
425,0.0
450,0.0
451,0.0
452,15.206085608500427
453,0.0
490,0.0
515,0.0
516,0.0
542,0.0
592,7975737.242637001
632,22802378.550672997
686,1.0
687,1.0
688,2.0
2,21, 1,21, 0,14,40.00,50.00,Monday
250,12.943113943234652
251,30832459.2476588
336,0.0
385,21.378488649752295
386,27.626661235907708
387,7.27832988707411
388,0.0
425,0.0
450,0.0
451,0.0
452,14.99706790484105
453,0.0
490,0.0
515,0.0
516,0.0
542,0.0
592,8001984.286951375
632,22675585.63531433
686,1.0
687,1.0
688,2.0
2,21, 1,21, 0,14,50.00,60.00,Monday
250,13.134826367556228
251,30732814.624323096
336,0.0
385,21.378488649752295
386,27.626661235907708
387,7.417407234076517
388,0.0
425,0.0
450,0.0
451,0.0
452,14.704884617771224
453,0.0
490,0.0
515,0.0
516,0.0
542,0.0
592,8028108.797534915
632,22549425.48425577
686,1.0
687,1.0
688,2.0
2,21, 1,21, 0,15, 0.00,10.00,Monday
250,13.387618866003287
251,30600959.358223908
336,0.0
385,21.378488649752295
386,27.626661235907708
387,7.538130250504144
388,0.0