Program Version,EnergyPlus, Version 24.2.0-94a887817b, YMD=2025.02.04 15:39
1,5,Environment Title[],Latitude[deg],Longitude[deg],Time Zone[],Elevation[m]
2,8,Day of Simulation[],Month[],Day of Month[],DST Indicator[1=yes 0=no],Hour[],StartMinute[],EndMinute[],DayType
3,5,Cumulative Day of Simulation[],Month[],Day of Month[],DST Indicator[1=yes 0=no],DayType  ! When Daily Meters Requested
4,2,Cumulative Days of Simulation[],Month[]  ! When Monthly Meters Requested
5,1,Cumulative Days of Simulation[] ! When Run Period Meters Requested
6,1,Calendar Year of Simulation[] ! When Annual Meters Requested
11,9,Electricity:Facility [J] !Monthly [Value,Min,Day,Hour,Minute,Max,Day,Hour,Minute]
23,9,Electricity:Building [J] !Monthly [Value,Min,Day,Hour,Minute,Max,Day,Hour,Minute]
59,9,InteriorLights:Electricity [J] !Monthly [Value,Min,Day,Hour,Minute,Max,Day,Hour,Minute]
521,9,Electricity:HVAC [J] !Monthly [Value,Min,Day,Hour,Minute,Max,Day,Hour,Minute]
637,9,NaturalGas:Facility [J] !Monthly [Value,Min,Day,Hour,Minute,Max,Day,Hour,Minute]
649,9,NaturalGas:HVAC [J] !Monthly [Value,Min,Day,Hour,Minute,Max,Day,Hour,Minute]
13,11,Electricity:Facility [J] !RunPeriod [Value,Min,Month,Day,Hour,Minute,Max,Month,Day,Hour,Minute]
25,11,Electricity:Building [J] !RunPeriod [Value,Min,Month,Day,Hour,Minute,Max,Month,Day,Hour,Minute]
61,11,InteriorLights:Electricity [J] !RunPeriod [Value,Min,Month,Day,Hour,Minute,Max,Month,Day,Hour,Minute]
523,11,Electricity:HVAC [J] !RunPeriod [Value,Min,Month,Day,Hour,Minute,Max,Month,Day,Hour,Minute]
639,11,NaturalGas:Facility [J] !RunPeriod [Value,Min,Month,Day,Hour,Minute,Max,Month,Day,Hour,Minute]
651,11,NaturalGas:HVAC [J] !RunPeriod [Value,Min,Month,Day,Hour,Minute,Max,Month,Day,Hour,Minute]
End of Data Dictionary
1,RUN PERIOD 1,  41.98, -87.92,  -6.00, 201.00
4,31, 1
11,9822647972.82991,408891.4285714286, 5, 6,50,2979181.8423893265,16,13,60
23,983597871.5988721,30000.0, 1, 1,10,609708.6026079018, 1, 9,10
59,970200000.0,30000.0, 1, 1,10,600000.0, 1, 8,10
521,8839050101.230986,378891.4285714286, 5, 6,50,2369473.239781425,16,13,60
637,178973023176.8199,28231351.6917052,21,16,10,41250000.0, 1, 1,10
649,178973023176.8199,28231351.6917052,21,16,10,41250000.0, 1, 1,10
4,59, 2
11,9356186444.193342,99999999999999.0, 5, 6,50,3020643.282652449,22,15,30
23,859810323.129459,99999999999999.0, 1, 1,10,-99999999999999.0, 1, 9,10
59,848160000.0,99999999999999.0, 1, 1,10,-99999999999999.0, 1, 8,10
521,8496376121.063895,99999999999999.0, 5, 6,50,2410934.680044547,22,15,30
637,158347706207.547,26543536.282429434,23,12,10,-99999999999999.0, 1, 1,10
649,158347706207.547,26543536.282429434,23,12,10,-99999999999999.0, 1, 1,10
4,90, 3
11,10929962886.811115,309708.6026079018,27,18,10,3087944.338897437,27,13,10
23,909712839.2859298,99999999999999.0, 1, 1,10,-99999999999999.0, 1, 9,10
59,897480000.0,99999999999999.0, 1, 1,10,-99999999999999.0, 1, 8,10
521,10020250047.525154,0.0,27,13,30,2478235.736289535,27,13,10
637,162035355478.95325,0.0,27,13,30,-99999999999999.0, 1, 1,10
649,162035355478.95325,0.0,27,13,30,-99999999999999.0, 1, 1,10
4,120, 4
11,9189478906.960194,30000.0,11,19,10,-99999999999999.0,27,13,10
23,942335355.4424013,99999999999999.0, 1, 1,10,-99999999999999.0, 1, 9,10
59,929520000.0,99999999999999.0, 1, 1,10,-99999999999999.0, 1, 8,10
521,8247143551.517802,99999999999999.0,27,13,30,-99999999999999.0,27,13,10
637,117199794000.86044,99999999999999.0,27,13,30,-99999999999999.0, 1, 1,10
649,117199794000.86044,99999999999999.0,27,13,30,-99999999999999.0, 1, 1,10
4,151, 5
11,8077722199.56473,99999999999999.0,11,19,10,3095189.5979814655,20,10,10
23,983859313.8361949,99999999999999.0, 1, 1,10,625616.3120419531,28,13,10
59,970200000.0,99999999999999.0, 1, 1,10,-99999999999999.0, 1, 8,10
521,7093862885.728596,99999999999999.0,27,13,30,2486534.818699967,19,13,20
637,84380557529.83913,99999999999999.0,27,13,30,-99999999999999.0, 1, 1,10
649,84380557529.83913,99999999999999.0,27,13,30,-99999999999999.0, 1, 1,10
4,181, 6
11,5275722877.637868,99999999999999.0,11,19,10,3096450.216677299,24,10,20
23,868502900.9634863,99999999999999.0, 1, 1,10,-99999999999999.0,28,13,10
59,856800000.0,99999999999999.0, 1, 1,10,-99999999999999.0, 1, 8,10
521,4407219976.674412,99999999999999.0,27,13,30,2491220.205572789,19, 7,50
637,29798317193.84097,99999999999999.0,27,13,30,-99999999999999.0, 1, 1,10
649,29798317193.84097,99999999999999.0,27,13,30,-99999999999999.0, 1, 1,10
4,212, 7
11,5163157088.847608,99999999999999.0,11,19,10,3107310.4693426723, 1,11,60
23,983870225.4539803,99999999999999.0, 1, 1,10,-99999999999999.0,28,13,10
59,970200000.0,99999999999999.0, 1, 1,10,-99999999999999.0, 1, 8,10
521,4179286863.3935924,99999999999999.0,27,13,30,2497601.8667347706, 1,11,60
637,7510848982.172446,99999999999999.0,27,13,30,-99999999999999.0, 1, 1,10
649,7510848982.172446,99999999999999.0,27,13,30,-99999999999999.0, 1, 1,10
4,243, 8
11,3724362059.5662494,99999999999999.0,11,19,10,-99999999999999.0, 1,11,60
23,946916191.4926049,99999999999999.0, 1, 1,10,625719.8845828975,12,14,10
59,933840000.0,99999999999999.0, 1, 1,10,-99999999999999.0, 1, 8,10
521,2777445868.0736585,99999999999999.0,27,13,30,-99999999999999.0, 1,11,60
637,13432145927.310589,99999999999999.0,27,13,30,-99999999999999.0, 1, 1,10
649,13432145927.310589,99999999999999.0,27,13,30,-99999999999999.0, 1, 1,10
4,273, 9
11,5227259971.501786,99999999999999.0,11,19,10,3107446.266361936,25,12,30
23,905392839.2859302,99999999999999.0, 1, 1,10,-99999999999999.0,12,14,10
59,893160000.0,99999999999999.0, 1, 1,10,-99999999999999.0, 1, 8,10
521,4321867132.215893,99999999999999.0,27,13,30,2497737.6637540343,25,12,30
637,46471011079.549446,99999999999999.0,27,13,30,-99999999999999.0, 1, 1,10
649,46471011079.549446,99999999999999.0,27,13,30,-99999999999999.0, 1, 1,10
4,304,10
11,10120102049.925453,99999999999999.0,11,19,10,-99999999999999.0,25,12,30
23,983597871.5988721,99999999999999.0, 1, 1,10,-99999999999999.0,12,14,10
59,970200000.0,99999999999999.0, 1, 1,10,-99999999999999.0, 1, 8,10
521,9136504178.326538,99999999999999.0,27,13,30,-99999999999999.0,25,12,30
637,124324901121.64919,99999999999999.0,27,13,30,-99999999999999.0, 1, 1,10
649,124324901121.64919,99999999999999.0,27,13,30,-99999999999999.0, 1, 1,10
4,334,11
11,10197853992.794704,99999999999999.0,11,19,10,-99999999999999.0,25,12,30
23,905392839.2859298,99999999999999.0, 1, 1,10,-99999999999999.0,12,14,10
59,893160000.0,99999999999999.0, 1, 1,10,-99999999999999.0, 1, 8,10
521,9292461153.508778,99999999999999.0,27,13,30,-99999999999999.0,25,12,30
637,145099708188.9212,99999999999999.0,27,13,30,-99999999999999.0, 1, 1,10
649,145099708188.9212,99999999999999.0,27,13,30,-99999999999999.0, 1, 1,10
4,365,12
11,10435605975.82624,99999999999999.0,11,19,10,-99999999999999.0,25,12,30
23,946655355.4424009,99999999999999.0, 1, 1,10,-99999999999999.0,12,14,10
59,933840000.0,99999999999999.0, 1, 1,10,-99999999999999.0, 1, 8,10
521,9488950620.383821,99999999999999.0,27,13,30,-99999999999999.0,25,12,30
637,179807086911.59393,99999999999999.0,27,13,30,-99999999999999.0, 1, 1,10
649,179807086911.59393,99999999999999.0,27,13,30,-99999999999999.0, 1, 1,10
5,365
13,97520062426.46243,30000.0, 4,11,19,10,3107446.266361936, 9,25,12,30
25,11219643926.81425,30000.0, 1, 1, 1,10,625719.8845828975, 8,12,14,10
61,11066760000.0,30000.0, 1, 1, 1,10,600000.0, 1, 1, 8,10
523,86300418499.64786,0.0, 3,27,13,30,2497737.6637540343, 9,25,12,30
639,1247380455799.0671,0.0, 3,27,13,30,41250000.0, 1, 1, 1,10
651,1247380455799.0671,0.0, 3,27,13,30,41250000.0, 1, 1, 1,10
1,RUN PERIOD 2,  41.98, -87.92,  -6.00, 201.00
4,1, 7
11,109236668.7218585,99999999999999.0,11,19,10,-99999999999999.0,25,12,30
23,41262516.156474076,99999999999999.0, 1, 1,10,-99999999999999.0,12,14,10
59,40680000.0,99999999999999.0, 1, 1,10,-99999999999999.0, 1, 8,10
521,67974152.56538433,99999999999999.0,27,13,30,-99999999999999.0,25,12,30
637,0.0,99999999999999.0,27,13,30,-99999999999999.0, 1, 1,10
649,0.0,99999999999999.0,27,13,30,-99999999999999.0, 1, 1,10
5,1
13,109236668.7218585,99999999999999.0, 4,11,19,10,-99999999999999.0, 9,25,12,30
25,41262516.156474076,99999999999999.0, 1, 1, 1,10,-99999999999999.0, 8,12,14,10
61,40680000.0,99999999999999.0, 1, 1, 1,10,-99999999999999.0, 1, 1, 8,10
523,67974152.56538433,99999999999999.0, 3,27,13,30,-99999999999999.0, 9,25,12,30
639,0.0,99999999999999.0, 3,27,13,30,-99999999999999.0, 1, 1, 1,10
651,0.0,99999999999999.0, 3,27,13,30,-99999999999999.0, 1, 1, 1,10
End of Data
 Number of Records Written=          90
