Program Version,EnergyPlus, Version 24.2.0-94a887817b, YMD=2025.02.04 15:39
1,5,Environment Title[],Latitude[deg],Longitude[deg],Time Zone[],Elevation[m]
2,8,Day of Simulation[],Month[],Day of Month[],DST Indicator[1=yes 0=no],Hour[],StartMinute[],EndMinute[],DayType
3,5,Cumulative Day of Simulation[],Month[],Day of Month[],DST Indicator[1=yes 0=no],DayType  ! When Daily Report Variables Requested
4,2,Cumulative Days of Simulation[],Month[]  ! When Monthly Report Variables Requested
5,1,Cumulative Days of Simulation[] ! When Run Period Report Variables Requested
6,1,Calendar Year of Simulation[] ! When Annual Report Variables Requested
250,1,LIVING ZONE,Zone Air Temperature [C] !TimeStep,REPORTSCH
251,1,LIVING ZONE,Zone Air System Sensible Heating Energy [J] !TimeStep,REPORTSCH
336,1,LIVING ZONE,Zone Air System Sensible Cooling Energy [J] !TimeStep,REPORTSCH
385,1,LIVING ZONE,Zone Thermostat Heating Setpoint Temperature [C] !TimeStep,REPORTSCH
386,1,LIVING ZONE,Zone Thermostat Cooling Setpoint Temperature [C] !TimeStep,REPORTSCH
387,1,GARAGE ZONE,Zone Air Temperature [C] !TimeStep,REPORTSCH
388,1,GARAGE ZONE,Zone Air System Sensible Heating Energy [J] !TimeStep,REPORTSCH
425,1,GARAGE ZONE,Zone Air System Sensible Cooling Energy [J] !TimeStep,REPORTSCH
450,1,GARAGE ZONE,Zone Thermostat Heating Setpoint Temperature [C] !TimeStep,REPORTSCH
451,1,GARAGE ZONE,Zone Thermostat Cooling Setpoint Temperature [C] !TimeStep,REPORTSCH
452,1,ATTIC ZONE,Zone Air Temperature [C] !TimeStep,REPORTSCH
453,1,ATTIC ZONE,Zone Air System Sensible Heating Energy [J] !TimeStep,REPORTSCH
490,1,ATTIC ZONE,Zone Air System Sensible Cooling Energy [J] !TimeStep,REPORTSCH
515,1,ATTIC ZONE,Zone Thermostat Heating Setpoint Temperature [C] !TimeStep,REPORTSCH
516,1,ATTIC ZONE,Zone Thermostat Cooling Setpoint Temperature [C] !TimeStep,REPORTSCH
542,1,ACDXCOIL 1,Cooling Coil Total Cooling Energy [J] !TimeStep,REPORTSCH
592,1,HEAT PUMP DX HEATING COIL 1,Heating Coil Heating Energy [J] !TimeStep,REPORTSCH
632,1,SUPP HEATING COIL 1,Heating Coil Heating Energy [J] !TimeStep,REPORTSCH
686,1,TWOSPEED HEAT PUMP 1,Unitary System DX Coil Cycling Ratio [] !TimeStep,REPORTSCH
687,1,TWOSPEED HEAT PUMP 1,Unitary System DX Coil Speed Ratio [] !TimeStep,REPORTSCH
688,1,TWOSPEED HEAT PUMP 1,Unitary System DX Coil Speed Level [] !TimeStep,REPORTSCH
End of Data Dictionary
1,RUN PERIOD 1,  41.98, -87.92,  -6.00, 201.00
2,21, 1,21, 0, 1, 0.00,10.00,Monday
250,-0.6716859660435399
251,38041876.998754285
336,0.0
385,18.607400064103285
386,27.10421198110919
387,-0.9441654971403945
388,0.0
425,0.0
450,0.0
451,0.0
452,-1.9712576354635127
453,0.0
490,0.0
515,0.0
516,0.0
542,0.0
592,4839743.9850796405
632,32944171.11649661
686,1.0
687,1.0
688,2.0
2,21, 1,21, 0, 1,10.00,20.00,Monday
250,-0.6717325719378495
251,38043525.22324372
336,0.0
385,18.607400064103285
386,27.10421198110919
387,-0.9525348366085541
388,0.0
425,0.0
450,0.0
451,0.0
452,-1.9531277729100676
453,0.0
490,0.0
515,0.0
516,0.0
542,0.0
592,4823801.676011796
632,32960807.030093238
686,1.0
687,1.0
688,2.0
2,21, 1,21, 0, 1,20.00,30.00,Monday
250,-0.6718550708081894
251,38045254.302995786
336,0.0
385,18.607400064103285
386,27.10421198110919
387,-0.9621367062167081
388,0.0
425,0.0
450,0.0
451,0.0
452,-1.9500452638443426
453,0.0
490,0.0
515,0.0
516,0.0
542,0.0
592,4807858.16290522
632,32978438.76587968
686,1.0
687,1.0
688,2.0
2,21, 1,21, 0, 1,30.00,40.00,Monday
250,-0.671962875164281
251,38046961.36292534
336,0.0
385,18.607400064103285
386,27.10421198110919
387,-0.9731758477505004
388,0.0
425,0.0
450,0.0
451,0.0
452,-1.9629099489114548
453,0.0
490,0.0
515,0.0
516,0.0
542,0.0
592,4791913.445623511
632,32996098.451172035
686,1.0
687,1.0
688,2.0
2,21, 1,21, 0, 1,40.00,50.00,Monday
250,-0.6722225107915207
251,38034998.73611898
336,0.0
385,18.607400064103285
386,27.10421198110919
387,-0.9858096556182181
388,0.0
425,0.0
450,0.0
451,0.0
452,-1.9901027468683945
453,0.0
490,0.0
515,0.0
516,0.0
542,0.0
592,4775967.524030239
632,33000000.0
686,1.0
687,1.0
688,2.0
2,21, 1,21, 0, 1,50.00,60.00,Monday
250,-0.6725286325561349
251,38019076.6446001
336,0.0
385,18.607400064103285
386,27.10421198110919
387,-1.0002269928333194
388,0.0
425,0.0
450,0.0
451,0.0
452,-2.030092795822832
453,0.0
490,0.0
515,0.0
516,0.0
542,0.0
592,4760020.397988958
632,33000000.0
686,1.0
687,1.0
688,2.0
2,21, 1,21, 0, 2, 0.00,10.00,Monday
250,-0.6726555897559623
251,38018980.18414832
336,0.0
385,18.607400064103285
386,27.10421198110919
387,-1.0157470005286098
388,0.0
425,0.0
450,0.0
451,0.0
452,-2.0768375384044195
453,0.0
490,0.0
515,0.0
516,0.0
542,0.0
592,4760020.397988958
632,33000000.0
686,1.0
687,1.0
688,2.0
2,21, 1,21, 0, 2,10.00,20.00,Monday
250,-0.6727766622659813
251,38018977.01570268
336,0.0
385,18.607400064103285
386,27.10421198110919
387,-1.031428564795922
388,0.0
425,0.0
450,0.0
451,0.0
452,-2.1195533779577245
453,0.0
490,0.0
515,0.0
516,0.0
542,0.0
592,4760020.397988958
632,33000000.0
686,1.0
687,1.0
688,2.0
2,21, 1,21, 0, 2,20.00,30.00,Monday
250,-0.6728980586987525
251,38018977.19009311
336,0.0
385,18.607400064103285
386,27.10421198110919
387,-1.0467189230866942
388,0.0
425,0.0
450,0.0
451,0.0
452,-2.1510120300294338
453,0.0
490,0.0
515,0.0
516,0.0
542,0.0
592,4760020.397988958
632,33000000.0
686,1.0
687,1.0
688,2.0
2,21, 1,21, 0, 2,30.00,40.00,Monday
250,-0.6730170225575466
251,38018975.880326144
336,0.0
385,18.607400064103285
386,27.10421198110919
387,-1.0612968781552534
388,0.0
425,0.0
450,0.0
451,0.0
452,-2.1703922213275386
453,0.0
490,0.0
515,0.0
516,0.0
542,0.0
592,4760020.397988956
632,33000000.0
686,1.0
687,1.0
688,2.0
2,21, 1,21, 0, 2,40.00,50.00,Monday
250,-0.6731341761680517
251,38018974.90563371
336,0.0
385,18.607400064103285
386,27.10421198110919
387,-1.075021839458874
388,0.0
425,0.0
450,0.0
451,0.0
452,-2.180533412945849
453,0.0
490,0.0
515,0.0
516,0.0
542,0.0
592,4760020.397988959
632,33000000.0
686,1.0
687,1.0
688,2.0
2,21, 1,21, 0, 2,50.00,60.00,Monday
250,-0.6732492485450239
251,38018973.78503409
336,0.0
385,18.607400064103285
386,27.10421198110919
387,-1.08785621230477
388,0.0
425,0.0
450,0.0
451,0.0
452,-2.1845836375296623
453,0.0
490,0.0
515,0.0
516,0.0
542,0.0
592,4760020.397988958
632,33000000.0
686,1.0
687,1.0
688,2.0
2,21, 1,21, 0, 3, 0.00,10.00,Monday
250,-0.591541002342132
251,37977456.113498725
336,0.0
385,18.607400064103285
386,27.10421198110919
387,-1.0894140476135195
388,0.0
425,0.0
450,0.0
451,0.0
452,-2.177114748735773
453,0.0
490,0.0
515,0.0
516,0.0
542,0.0
592,4762558.894114006
632,33000000.0
686,1.0
687,1.0
688,2.0
2,21, 1,21, 0, 3,10.00,20.00,Monday
250,-0.5080021695277818
251,37965194.24647418
336,0.0
385,18.607400064103285
386,27.10421198110919
387,-1.0783890321431606
388,0.0
425,0.0
450,0.0
451,0.0
452,-2.1521500890968714
453,0.0
490,0.0
515,0.0
516,0.0
542,0.0
592,4764988.4357309695
632,32986296.056837514
686,1.0
687,1.0
688,2.0
2,21, 1,21, 0, 3,20.00,30.00,Monday
250,-0.42548853816570187
251,37922348.34903358
336,0.0
385,18.607400064103285
386,27.10421198110919
387,-1.0591942563957983
388,0.0
425,0.0
450,0.0
451,0.0
452,-2.10823860746562
453,0.0
490,0.0
515,0.0
516,0.0
542,0.0
592,4767308.250738333
632,32940580.17793211
686,1.0
687,1.0
688,2.0
2,21, 1,21, 0, 3,30.00,40.00,Monday
250,-0.3428128385990653
251,37879408.406936124
336,0.0
385,18.607400064103285
386,27.10421198110919
387,-1.0356277016156221
388,0.0
425,0.0
450,0.0
451,0.0
452,-2.0485098446702197
453,0.0
490,0.0
515,0.0
516,0.0
542,0.0
592,4769517.689516205
632,32895519.92234092
686,1.0
687,1.0
688,2.0
2,21, 1,21, 0, 3,40.00,50.00,Monday
250,-0.2600952280829156
251,37836455.053496644
336,0.0
385,18.607400064103285
386,27.10421198110919
387,-1.0090010747705391
388,0.0
425,0.0
450,0.0
451,0.0
452,-1.9774472380149941
453,0.0
490,0.0
515,0.0
516,0.0
542,0.0
592,4771616.115684973
632,32850492.583400294
686,1.0
687,1.0
688,2.0
2,21, 1,21, 0, 3,50.00,60.00,Monday
250,-0.17735521271412472
251,37793496.58331894
336,0.0
385,18.607400064103285
386,27.10421198110919
387,-0.9791095038267643
388,0.0
425,0.0
450,0.0
451,0.0
452,-1.8986699826715328
453,0.0
490,0.0
515,0.0
516,0.0
542,0.0
592,4773602.736238394
632,32805561.44297885
686,1.0
687,1.0
688,2.0
2,21, 1,21, 0, 4, 0.00,10.00,Monday
250,-0.1763838511889118
251,37794582.5565842
336,0.0
385,18.607400064103285
386,27.10421198110919
387,-0.956400058557754
388,0.0
425,0.0
450,0.0
451,0.0
452,-1.8224653232317938
453,0.0
490,0.0
515,0.0
516,0.0
542,0.0
592,4773428.982371631
632,32762785.287492324
686,1.0
687,1.0
688,2.0
2,21, 1,21, 0, 4,10.00,20.00,Monday
250,-0.17691379839898516
251,37794933.75440438
336,0.0
385,18.607400064103285
386,27.10421198110919
387,-0.9437530682708354
388,0.0
425,0.0
450,0.0
451,0.0
452,-1.757870929045636
453,0.0
490,0.0
515,0.0
516,0.0
542,0.0
592,4773255.169447958
632,32762501.744579118
686,1.0
687,1.0
688,2.0
2,21, 1,21, 0, 4,20.00,30.00,Monday
250,-0.17671908179854479
251,37794856.63097383
336,0.0
385,18.607400064103285
386,27.10421198110919
387,-0.9377328280000611
388,0.0
425,0.0
450,0.0
451,0.0
452,-1.7084929619501128
453,0.0
490,0.0
515,0.0
516,0.0
542,0.0
592,4773081.297437258
632,32762988.77287709
686,1.0
687,1.0
688,2.0
2,21, 1,21, 0, 4,30.00,40.00,Monday
250,-0.17666959774098415
251,37794871.29492213
336,0.0
385,18.607400064103285
386,27.10421198110919
387,-0.9344897206227701
388,0.0
425,0.0
450,0.0
451,0.0
452,-1.6726758792278213
453,0.0
490,0.0
515,0.0
516,0.0
542,0.0
592,4772907.366309401
632,32763099.15054491
686,1.0
687,1.0
688,2.0
2,21, 1,21, 0, 4,40.00,50.00,Monday
250,-0.1766339330434207
251,37794890.8891016
336,0.0
385,18.607400064103285
386,27.10421198110919
387,-0.9322238974520354
388,0.0
425,0.0
450,0.0
451,0.0
452,-1.6467506858456478
453,0.0
490,0.0
515,0.0
516,0.0
542,0.0
592,4772733.376034233
632,32763285.292361546
686,1.0
687,1.0
688,2.0
2,21, 1,21, 0, 4,50.00,60.00,Monday
250,-0.17659639013255535
251,37794909.2161994
336,0.0
385,18.607400064103285
386,27.10421198110919
387,-0.9307393194443838
388,0.0
425,0.0
450,0.0
451,0.0
452,-1.6276578209944519
453,0.0
490,0.0
515,0.0
516,0.0
542,0.0
592,4772559.326581575
632,32763478.680478238
686,1.0
687,1.0
688,2.0
2,21, 1,21, 0, 5, 0.00,10.00,Monday
250,-0.1765606967136738
251,37794928.59774319
336,0.0
385,18.607400064103285
386,27.10421198110919
387,-0.9300840634957896
388,0.0
425,0.0
450,0.0
451,0.0
452,-1.6127810381891237
453,0.0
490,0.0
515,0.0
516,0.0
542,0.0
592,4759720.85868958
632,32776335.53385541
686,1.0
687,1.0
688,2.0
2,21, 1,21, 0, 5,10.00,20.00,Monday
250,-0.17651201633132138
251,37796204.7893545
336,0.0
385,18.607400064103285
386,27.10421198110919
387,-0.9301222557051707
388,0.0
425,0.0
450,0.0
451,0.0
452,-1.599809713987817
453,0.0
490,0.0
515,0.0
516,0.0
542,0.0
592,4746877.262331866
632,32790462.31710539
686,1.0
687,1.0
688,2.0
2,21, 1,21, 0, 5,20.00,30.00,Monday
250,-0.17646335698583962
251,37797512.61399097
336,0.0
385,18.607400064103285
386,27.10421198110919
387,-0.9306260137346536
388,0.0
425,0.0
450,0.0
451,0.0
452,-1.5873421036537763
453,0.0
490,0.0
515,0.0
516,0.0
542,0.0
592,4734028.534436011
632,32804618.85923252
686,1.0
687,1.0
688,2.0
2,21, 1,21, 0, 5,30.00,40.00,Monday
250,-0.17641514687517743
251,37798810.12538766
336,0.0
385,18.607400064103285
386,27.10421198110919
387,-0.9313923152174195
388,0.0
425,0.0
450,0.0
451,0.0
452,-1.5749443621908206
453,0.0
490,0.0
515,0.0
516,0.0
542,0.0
592,4721174.671927155
632,32818769.992086392
686,1.0
687,1.0
688,2.0
2,21, 1,21, 0, 5,40.00,50.00,Monday
250,-0.17636692980448068
251,37800110.22779227
336,0.0
385,18.607400064103285
386,27.10421198110919
387,-0.9322849314846045
388,0.0
425,0.0
450,0.0
451,0.0
452,-1.5626848949813155
453,0.0
490,0.0
515,0.0
516,0.0
542,0.0
592,4708315.671727969
632,32832929.09935016
686,1.0
687,1.0
688,2.0
2,21, 1,21, 0, 5,50.00,60.00,Monday
250,-0.17631858896962313
251,37801411.01014951
336,0.0
385,18.607400064103285
386,27.10421198110919
387,-0.9332243871597918
388,0.0
425,0.0
450,0.0
451,0.0
452,-1.5507145519645005
453,0.0
490,0.0
515,0.0
516,0.0
542,0.0
592,4695451.530758674
632,32847094.09025556
686,1.0
687,1.0
688,2.0
2,21, 1,21, 0, 6, 0.00,10.00,Monday
250,-0.17626811150716248
251,37802711.13177637
336,0.0
385,18.607400064103285
386,27.10421198110919
387,-0.9342971340892829
388,0.0
425,0.0
450,0.0
451,0.0
452,-1.5397289048767
453,0.0
490,0.0
515,0.0
516,0.0
542,0.0
592,4695264.08225586
632,32848582.81226294
686,1.0
687,1.0
688,2.0
2,21, 1,21, 0, 6,10.00,20.00,Monday
250,-0.17623137650819787
251,37802753.662019536
336,0.0
385,18.607400064103285
386,27.10421198110919
387,-0.935586753009009
388,0.0
425,0.0
450,0.0
451,0.0
452,-1.5305408793549438
453,0.0
490,0.0
515,0.0
516,0.0
542,0.0
592,4695076.569900009
632,32848805.45207321
686,1.0
687,1.0
688,2.0
2,21, 1,21, 0, 6,20.00,30.00,Monday
250,-0.17619506479902355
251,37802765.287235096
336,0.0
385,18.607400064103285
386,27.10421198110919
387,-0.937087872055331
388,0.0
425,0.0
450,0.0
451,0.0
452,-1.52347799874473
453,0.0
490,0.0
515,0.0
516,0.0
542,0.0
592,4694888.993658494
632,32849004.425527338
686,1.0
687,1.0
688,2.0
2,21, 1,21, 0, 6,30.00,40.00,Monday
250,-0.17615813488250326
251,37802787.68891248
336,0.0
385,18.607400064103285
386,27.10421198110919
387,-0.9387586532211247
388,0.0
425,0.0
450,0.0
451,0.0
452,-1.5183340604535875
453,0.0
490,0.0
515,0.0
516,0.0
542,0.0
592,4694701.353498662
632,32849214.80040497
686,1.0
687,1.0
688,2.0
2,21, 1,21, 0, 6,40.00,50.00,Monday
250,-0.1761208108913072
251,37802807.82117827
336,0.0
385,18.607400064103285
386,27.10421198110919
387,-0.940567219588806
388,0.0
425,0.0
450,0.0
451,0.0
452,-1.5146589745832781
453,0.0
490,0.0
515,0.0
516,0.0
542,0.0
592,4694513.649387832
632,32849422.849084795
686,1.0
687,1.0
688,2.0
2,21, 1,21, 0, 6,50.00,60.00,Monday
250,-0.17608302340495718
251,37802827.49740527
336,0.0
385,18.607400064103285
386,27.10421198110919
387,-0.9424964262860234
388,0.0
425,0.0
450,0.0
451,0.0
452,-1.512032171926446
453,0.0
490,0.0
515,0.0
516,0.0
542,0.0
592,4694325.881293308
632,32849630.54310565
686,1.0
687,1.0
688,2.0
2,21, 1,21, 0, 7, 0.00,10.00,Monday
250,-0.17705236853844603
251,37803389.75248833
336,0.0
385,18.607400064103285
386,27.10421198110919
387,-0.9469700119260792
388,0.0
425,0.0
450,0.0
451,0.0
452,-1.5153205165367365
453,0.0
490,0.0
515,0.0
516,0.0
542,0.0
592,4723573.583255435
632,32820402.5680901
686,1.0
687,1.0
688,2.0
2,21, 1,21, 0, 7,10.00,20.00,Monday
250,-0.17702463494603274
251,37800498.13666064
336,0.0
385,18.607400064103285
386,27.10421198110919
387,-0.956162415569744
388,0.0
425,0.0
450,0.0
451,0.0
452,-1.5339954682562238
453,0.0
490,0.0
515,0.0
516,0.0
542,0.0
592,4752837.186047653
632,32788784.460600354
686,1.0
687,1.0
688,2.0
2,21, 1,21, 0, 7,20.00,30.00,Monday
250,-0.17696257033139448
251,37797514.68961136
336,0.0
385,18.607400064103285
386,27.10421198110919
387,-0.9703139299219016
388,0.0
425,0.0
450,0.0
451,0.0
452,-1.5734292198063602
453,0.0
490,0.0
515,0.0
516,0.0
542,0.0
592,4782116.702651945
632,32756539.986568652
686,1.0
687,1.0
688,2.0
2,21, 1,21, 0, 7,30.00,40.00,Monday
250,-0.17690922400463446
251,37794559.92513178
336,0.0
385,18.607400064103285
386,27.10421198110919
387,-0.9884686772513346
388,0.0
425,0.0
450,0.0
451,0.0
452,-1.6312437677173877
453,0.0
490,0.0
515,0.0
516,0.0
542,0.0
592,4811412.146064443
632,32724285.080757264
686,1.0
687,1.0
688,2.0
2,21, 1,21, 0, 7,40.00,50.00,Monday
250,-0.17685321480536698
251,37791597.37080809
336,0.0
385,18.607400064103285
386,27.10421198110919
387,-1.0095472271165826
388,0.0
425,0.0
450,0.0
451,0.0
452,-1.7011844167609842
453,0.0
490,0.0
515,0.0
516,0.0
542,0.0
592,4840723.5292954575
632,32692012.574981973
686,1.0
687,1.0
688,2.0
2,21, 1,21, 0, 7,50.00,60.00,Monday
250,-0.17679617239163087
251,37788632.167979576
336,0.0
385,18.607400064103285
386,27.10421198110919
387,-1.0328021336491968
388,0.0
425,0.0
450,0.0
451,0.0
452,-1.7775556737954663
453,0.0
490,0.0
515,0.0
516,0.0
542,0.0
592,4870050.865369484
632,32659720.590100218
686,1.0
687,1.0
688,2.0
2,21, 1,21, 0, 8, 0.00,10.00,Monday
250,0.023624217456314565
251,37677782.67400538
336,0.0
385,18.607400064103285
386,27.10421198110919
387,-1.0289023406808775
388,0.0
425,0.0
450,0.0
451,0.0
452,-1.836513672887674
453,0.0
490,0.0
515,0.0
516,0.0
542,0.0
592,4889730.300311493
632,32637074.448896892
686,1.0
687,1.0
688,2.0
2,21, 1,21, 0, 8,10.00,20.00,Monday
250,0.2242067536617845
251,37572058.8652759
336,0.0
385,18.607400064103285
386,27.10421198110919
387,-0.9873181039077698
388,0.0
425,0.0
450,0.0
451,0.0
452,-1.8277040456476155
453,0.0
490,0.0
515,0.0
516,0.0
542,0.0
592,4909380.719869504
632,32511794.07163567
686,1.0
687,1.0
688,2.0
2,21, 1,21, 0, 8,20.00,30.00,Monday
250,0.422667160099853
251,37467604.851115644
336,0.0
385,18.607400064103285
386,27.10421198110919
387,-0.9162863285369977
388,0.0
425,0.0
450,0.0
451,0.0
452,-1.7203412055500003
453,0.0
490,0.0
515,0.0
516,0.0
542,0.0
592,4929009.6156952735
632,32386575.33789948
686,1.0
687,1.0
688,2.0
2,21, 1,21, 0, 8,30.00,40.00,Monday
250,0.6217460624434875
251,37362771.21284514
336,0.0
385,18.607400064103285
386,27.10421198110919
387,-0.825938839029371
388,0.0
425,0.0
450,0.0
451,0.0
452,-1.524846601030223
453,0.0
490,0.0
515,0.0
516,0.0
542,0.0
592,4952863.6467726575
632,32258227.533859685
686,1.0
687,1.0
688,2.0
2,21, 1,21, 0, 8,40.00,50.00,Monday
250,0.8209035710715058
251,37257493.60634948
336,0.0
385,18.607400064103285
386,27.10421198110919
387,-0.7242650805814737
388,0.0
425,0.0
450,0.0
451,0.0
452,-1.249182607909431
453,0.0
490,0.0
515,0.0
516,0.0
542,0.0
592,4977062.298687916
632,32128799.29685354
686,1.0
687,1.0
688,2.0
2,21, 1,21, 0, 8,50.00,60.00,Monday
250,1.020821368680851
251,37152732.17684916
336,0.0
385,18.607400064103285
386,27.10421198110919
387,-0.628344160910317
388,0.0
425,0.0
450,0.0
451,0.0
452,-0.9361086079881669
453,0.0
490,0.0
515,0.0
516,0.0
542,0.0
592,5001395.306277513
632,31947074.213899836
686,1.0
687,1.0
688,2.0
2,21, 1,21, 0, 9, 0.00,10.00,Monday
250,1.2862447026347767
251,37013725.49296308
336,0.0
385,18.607400064103285
386,27.10421198110919
387,-0.4899167346945821
388,0.0
425,0.0
450,0.0
451,0.0
452,-0.4566133114945431
453,0.0
490,0.0
515,0.0
516,0.0
542,0.0
592,5029363.153609448
632,31796837.40714215
686,1.0
687,1.0
688,2.0
2,21, 1,21, 0, 9,10.00,20.00,Monday
250,1.551542424886338
251,36873843.92927214
336,0.0
385,18.607400064103285
386,27.10421198110919
387,-0.3390899461349288
388,0.0
425,0.0
450,0.0
451,0.0
452,0.06761718658176567
453,0.0
490,0.0
515,0.0
516,0.0
542,0.0
592,5057356.862312016
632,31628928.982138894
686,1.0
687,1.0
688,2.0
2,21, 1,21, 0, 9,20.00,30.00,Monday
250,1.8169825678952667
251,36733880.132540956
336,0.0
385,18.607400064103285
386,27.10421198110919
387,-0.17918650399582906
388,0.0
425,0.0
450,0.0
451,0.0
452,0.6323046162843735
453,0.0
490,0.0
515,0.0
516,0.0
542,0.0
592,5085392.284952975
632,31460968.498718046
686,1.0
687,1.0
688,2.0
2,21, 1,21, 0, 9,30.00,40.00,Monday
250,2.0823606978701563
251,36593947.959560305
336,0.0
385,18.607400064103285
386,27.10421198110919
387,-0.009455949747851505
388,0.0
425,0.0
450,0.0
451,0.0
452,1.2269309537415785
453,0.0
490,0.0
515,0.0
516,0.0
542,0.0
592,5113485.892141593
632,31292927.422589026
686,1.0
687,1.0
688,2.0
2,21, 1,21, 0, 9,40.00,50.00,Monday
250,2.3480320912535197
251,36452877.314802304
336,0.0
385,18.6074000641033
386,27.104211981109216
387,0.13569281231726507
388,0.0
425,0.0
450,0.0
451,0.0
452,1.7287003076040688
453,0.0
490,0.0
515,0.0
516,0.0
542,0.0
592,5141654.529350725
632,31100081.421168946
686,1.0000000000000009
687,1.0000000000000009
688,2.0000000000000018
2,21, 1,21, 0, 9,50.00,60.00,Monday
250,2.6138346080682586
251,36312177.162857234
336,0.0
385,18.607400064103285
386,27.10421198110919
387,0.2878380943652765
388,0.0
425,0.0
450,0.0
451,0.0
452,2.2692597760476794
453,0.0
490,0.0
515,0.0
516,0.0
542,0.0
592,5169915.672059793
632,30956035.780322954
686,1.0
687,1.0
688,2.0
2,21, 1,21, 0,10, 0.00,10.00,Monday
250,3.075943415852404
251,36066994.6481104
336,0.0
385,18.607400064103285
386,27.104211981109188
387,0.4783009110060694
388,0.0
425,0.0
450,0.0
451,0.0
452,2.8286330772200996
453,0.0
490,0.0
515,0.0
516,0.0
542,0.0
592,5241404.10703412
632,30649813.380107846
686,1.0
687,1.0
688,2.0
2,21, 1,21, 0,10,10.00,20.00,Monday
250,3.5391926355701333
251,35821810.0920912
336,0.0
385,18.607400064103285
386,27.104211981109188
387,0.7693459526642026
388,0.0
425,0.0
450,0.0
451,0.0
452,3.5835304323324277
453,0.0
490,0.0
515,0.0
516,0.0
542,0.0
592,5315291.857316207
632,30329921.575436406
686,1.0
687,1.0
688,2.0
2,21, 1,21, 0,10,20.00,30.00,Monday
250,4.002802507441002
251,35575168.32858299
336,0.0
385,18.607400064103278
386,27.10421198110918
387,1.049736748619816
388,0.0
425,0.0
450,0.0
451,0.0
452,4.272547560317222
453,0.0
490,0.0
515,0.0
516,0.0
542,0.0
592,5391793.298050372
632,30006885.70703645
686,0.9999999999999996
687,0.9999999999999996
688,1.9999999999999991
2,21, 1,21, 0,10,30.00,40.00,Monday
250,4.466620839131944
251,35328280.86403231
336,0.0
385,18.60740006410329
386,27.104211981109202
387,1.3315048095803603
388,0.0
425,0.0
450,0.0
451,0.0
452,4.974314003055357
453,0.0
490,0.0
515,0.0
516,0.0
542,0.0
592,5471132.199313744
632,29680741.201787487
686,1.0000000000000004
687,1.0000000000000004
688,2.000000000000001
2,21, 1,21, 0,10,40.00,50.00,Monday
250,4.930721069574954
251,35081101.01323632
336,0.0
385,18.6074000641033
386,27.104211981109216
387,1.6216438517957887
388,0.0
425,0.0
450,0.0
451,0.0
452,5.738374010306809
453,0.0
490,0.0
515,0.0
516,0.0
542,0.0
592,5553542.375759332
632,29351248.53962577
686,1.0000000000000009
687,1.0000000000000009
688,2.0000000000000018
2,21, 1,21, 0,10,50.00,60.00,Monday
250,5.39483821395476
251,34833764.8566497
336,0.0
385,18.6074000641033
386,27.104211981109216
387,1.9218685700444453
388,0.0
425,0.0
450,0.0
451,0.0
452,6.567452586154344
453,0.0
490,0.0
515,0.0
516,0.0
542,0.0
592,5639267.778995938
632,29018238.914064854
686,1.0000000000000009
687,1.0000000000000009
688,2.0000000000000018
2,21, 1,21, 0,11, 0.00,10.00,Monday
250,5.678371163190441
251,34682888.00766049
336,0.0
385,18.607400064103285
386,27.104211981109188
387,2.208378300273189
388,0.0
425,0.0
450,0.0
451,0.0
452,7.422679666839366
453,0.0
490,0.0
515,0.0
516,0.0
542,0.0
592,5689519.861596227
632,28784892.307071477
686,1.0
687,1.0
688,2.0
2,21, 1,21, 0,11,10.00,20.00,Monday
250,5.961015076549417
251,34532428.411710545
336,0.0
385,18.607400064103285
386,27.104211981109188
387,2.4781480883278313
388,0.0
425,0.0
450,0.0
451,0.0
452,8.273213423459268
453,0.0
490,0.0
515,0.0
516,0.0
542,0.0
592,5740969.350869594
632,28582835.55442188
686,1.0
687,1.0
688,2.0
2,21, 1,21, 0,11,20.00,30.00,Monday
250,6.243723680661606
251,34381885.271558866
336,0.0
385,18.607400064103278
386,27.10421198110918
387,2.7503078259160527
388,0.0
425,0.0
450,0.0
451,0.0
452,9.11983324684134
453,0.0
490,0.0
515,0.0
516,0.0
542,0.0
592,5793671.0952822175
632,28379618.697813377
686,0.9999999999999996
687,0.9999999999999996
688,1.9999999999999991
2,21, 1,21, 0,11,30.00,40.00,Monday
250,6.526104266916148
251,34231466.04448833
336,0.0
385,18.60740006410329
386,27.104211981109202
387,3.0276418683419215
388,0.0
425,0.0
450,0.0
451,0.0
452,9.941725751254486
453,0.0
490,0.0
515,0.0
516,0.0
542,0.0
592,5847681.427966583
632,28175147.518065426
686,1.0000000000000004
687,1.0000000000000004
688,2.000000000000001
2,21, 1,21, 0,11,40.00,50.00,Monday
250,6.808342112426782
251,34081069.92826354
336,0.0
385,18.6074000641033
386,27.104211981109216
387,3.3067486486697746
388,0.0
425,0.0
450,0.0
451,0.0
452,10.687274145009912
453,0.0
490,0.0
515,0.0
516,0.0
542,0.0
592,5903058.082199926
632,27969366.944671325
686,1.0000000000000009
687,1.0000000000000009
688,2.0000000000000018
2,21, 1,21, 0,11,50.00,60.00,Monday
250,7.090386987510588
251,33930722.54418939
336,0.0
385,18.6074000641033
386,27.104211981109216
387,3.5837754754633755
388,0.0
425,0.0
450,0.0
451,0.0
452,11.32303867163545
453,0.0
490,0.0
515,0.0
516,0.0
542,0.0
592,5959860.237244541
632,27762201.04904732
686,1.0000000000000009
687,1.0000000000000009
688,2.0000000000000018
2,21, 1,21, 0,12, 0.00,10.00,Monday
250,7.357034585355807
251,33788602.4374993
336,0.0
385,18.607400064103285
386,27.10421198110919
387,3.8237729754853533
388,0.0
425,0.0
450,0.0
451,0.0
452,11.822177420583568
453,0.0
490,0.0
515,0.0
516,0.0
542,0.0
592,5991096.197635707
632,27611565.630316883
686,1.0
687,1.0
688,2.0
2,21, 1,21, 0,12,10.00,20.00,Monday
250,7.621769958269738
251,33650987.530383885
336,0.0
385,18.607400064103285
386,27.10421198110919
387,4.11616221188338
388,0.0
425,0.0
450,0.0
451,0.0
452,12.386168555736282
453,0.0
490,0.0
515,0.0
516,0.0
542,0.0
592,7572016.881221028
632,25891148.970222965
686,1.0
687,1.0
688,2.0
2,21, 1,21, 0,12,20.00,30.00,Monday
250,7.8874736025461605
251,33511140.464205176
336,0.0
385,18.607400064103285
386,27.10421198110919
387,4.385281470030092
388,0.0
425,0.0
450,0.0
451,0.0
452,12.901438592980341
453,0.0
490,0.0
515,0.0
516,0.0
542,0.0
592,7609409.155487607
632,25714155.789801463
686,1.0
687,1.0
688,2.0
2,21, 1,21, 0,12,30.00,40.00,Monday
250,8.153047561530837
251,33371365.04038056
336,0.0
385,18.607400064103285
386,27.10421198110919
387,4.644095758615143
388,0.0
425,0.0
450,0.0
451,0.0
452,13.39305369404779
453,0.0
490,0.0
515,0.0
516,0.0
542,0.0
592,7646583.592010483
632,25537170.863619015
686,1.0
687,1.0
688,2.0
2,21, 1,21, 0,12,40.00,50.00,Monday
250,8.418578237020448
251,33231612.62083586
336,0.0
385,18.607400064103285
386,27.10421198110919
387,4.89852331081069
388,0.0
425,0.0
450,0.0
451,0.0
452,13.834956905583663
453,0.0
490,0.0
515,0.0
516,0.0
542,0.0
592,7683540.190789654
632,25360450.297490723
686,1.0
687,1.0
688,2.0
2,21, 1,21, 0,12,50.00,60.00,Monday
250,8.684095155360914
251,33091866.831523046
336,0.0
385,18.607400064103285
386,27.10421198110919
387,5.147471473796272
388,0.0
425,0.0
450,0.0
451,0.0
452,14.202759649857024
453,0.0
490,0.0
515,0.0
516,0.0
542,0.0
592,7720278.951825123
632,25183962.539151255
686,1.0
687,1.0
688,2.0
2,21, 1,21, 0,13, 0.00,10.00,Monday
250,8.86690053794003
251,32993330.388184503
336,0.0
385,18.607400064103285
386,27.10421198110919
387,5.3798599575139985
388,0.0
425,0.0
450,0.0
451,0.0
452,14.494018774191016
453,0.0
490,0.0
515,0.0
516,0.0
542,0.0
592,7745410.487127082
632,25084911.56968259
686,1.0
687,1.0
688,2.0
2,21, 1,21, 0,13,10.00,20.00,Monday
250,9.049152017636178
251,32898993.787776854
336,0.0
385,18.607400064103285
386,27.10421198110919
387,5.598647837511954
388,0.0
425,0.0
450,0.0
451,0.0
452,14.723270007769575
453,0.0
490,0.0
515,0.0
516,0.0
542,0.0
592,7770439.060057994
632,24968035.848452594
686,1.0
687,1.0
688,2.0
2,21, 1,21, 0,13,20.00,30.00,Monday
250,9.232141890278058
251,32804394.550810456
336,0.0
385,18.607400064103285
386,27.10421198110919
387,5.803549968238514
388,0.0
425,0.0
450,0.0
451,0.0
452,14.906440896133835
453,0.0
490,0.0
515,0.0
516,0.0
542,0.0
592,7795364.67061786
632,24848922.120614532
686,1.0
687,1.0
688,2.0
2,21, 1,21, 0,13,30.00,40.00,Monday
250,9.414921263143128
251,32709937.658621475
336,0.0
385,18.607400064103285
386,27.10421198110919
387,5.998586005822754
388,0.0
425,0.0
450,0.0
451,0.0
452,15.055312172669804
453,0.0
490,0.0
515,0.0
516,0.0
542,0.0
592,7820187.318806678
632,24729541.656505883
686,1.0
687,1.0
688,2.0
2,21, 1,21, 0,13,40.00,50.00,Monday
250,9.597665201185107
251,32615533.494436953
336,0.0
385,18.607400064103285
386,27.10421198110919
387,6.187505801717527
388,0.0
425,0.0
450,0.0
451,0.0
452,15.1746268561278
453,0.0
490,0.0
515,0.0
516,0.0
542,0.0
592,7844907.0046244515
632,24610411.56194201
686,1.0
687,1.0
688,2.0
2,21, 1,21, 0,13,50.00,60.00,Monday
250,9.780418785162539
251,32521157.24064077
336,0.0
385,18.607400064103285
386,27.10421198110919
387,6.371609551636236
388,0.0
425,0.0
450,0.0
451,0.0
452,15.268022590176173
453,0.0
490,0.0
515,0.0
516,0.0
542,0.0
592,7869523.728071173
632,24491436.85936729
686,1.0
687,1.0
688,2.0
2,21, 1,21, 0,14, 0.00,10.00,Monday
250,9.980296965235583
251,32417564.93576162
336,0.0
385,18.607400064103285
386,27.10421198110919
387,6.553735648406047
388,0.0
425,0.0
450,0.0
451,0.0
452,15.324103853556052
453,0.0
490,0.0
515,0.0
516,0.0
542,0.0
592,7896260.907308879
632,24370369.879809983
686,1.0
687,1.0
688,2.0
2,21, 1,21, 0,14,10.00,20.00,Monday
250,10.179635657966006
251,32313871.30028457
336,0.0
385,18.607400064103285
386,27.10421198110919
387,6.734015833303869
388,0.0
425,0.0
450,0.0
451,0.0
452,15.324555849971171
453,0.0
490,0.0
515,0.0
516,0.0
542,0.0
592,7922875.552815756
632,24239783.450124808
686,1.0
687,1.0
688,2.0
2,21, 1,21, 0,14,20.00,30.00,Monday
250,10.378800250176472
251,32210281.09611984
336,0.0
385,18.607400064103285
386,27.10421198110919
387,6.910293132242448
388,0.0
425,0.0
450,0.0
451,0.0
452,15.268914813904967
453,0.0
490,0.0
515,0.0
516,0.0
542,0.0
592,7949367.664591794
632,24109620.43315279
686,1.0
687,1.0
688,2.0
2,21, 1,21, 0,14,30.00,40.00,Monday
250,10.5778532000988
251,32106777.134797845
336,0.0
385,18.607400064103285
386,27.10421198110919
387,7.076616448365424
388,0.0
425,0.0
450,0.0
451,0.0
452,15.14665696335929
453,0.0
490,0.0
515,0.0
516,0.0
542,0.0
592,7975737.242637003
632,23979700.09282794
686,1.0
687,1.0
688,2.0
2,21, 1,21, 0,14,40.00,50.00,Monday
250,10.77680583626924
251,32003349.126830276
336,0.0
385,18.607400064103285
386,27.10421198110919
387,7.229292240841211
388,0.0
425,0.0
450,0.0
451,0.0
452,14.938061481240245
453,0.0
490,0.0
515,0.0
516,0.0
542,0.0
592,8001984.286951372
632,23849984.51004124
686,1.0
687,1.0
688,2.0
2,21, 1,21, 0,14,50.00,60.00,Monday
250,10.975690097001456
251,31899980.447073217
336,0.0
385,18.607400064103285
386,27.10421198110919
387,7.368610454592843
388,0.0
425,0.0
450,0.0
451,0.0
452,14.64616870941469
453,0.0
490,0.0
515,0.0
516,0.0
542,0.0
592,8028108.797534912
632,23720468.204121865
686,1.0
687,1.0
688,2.0
2,21, 1,21, 0,15, 0.00,10.00,Monday
250,11.240932112155145
251,31761500.978349037
336,0.0
385,18.607400064103285
386,27.10421198110919
387,7.489574386987821
388,0.0
425,0.0
450,0.0
451,0.0
452,14.350811742814006
453,0.0
490,0.0