Program Version,EnergyPlus, Version 24.2.0-94a887817b, YMD=2025.02.11 00:15
1,5,Environment Title[],Latitude[deg],Longitude[deg],Time Zone[],Elevation[m]
2,8,Day of Simulation[],Month[],Day of Month[],DST Indicator[1=yes 0=no],Hour[],StartMinute[],EndMinute[],DayType
3,5,Cumulative Day of Simulation[],Month[],Day of Month[],DST Indicator[1=yes 0=no],DayType  ! When Daily Meters Requested
4,2,Cumulative Days of Simulation[],Month[]  ! When Monthly Meters Requested
5,1,Cumulative Days of Simulation[] ! When Run Period Meters Requested
6,1,Calendar Year of Simulation[] ! When Annual Meters Requested
11,9,Electricity:Facility [J] !Monthly [Value,Min,Day,Hour,Minute,Max,Day,Hour,Minute]
23,9,Electricity:Building [J] !Monthly [Value,Min,Day,Hour,Minute,Max,Day,Hour,Minute]
59,9,InteriorLights:Electricity [J] !Monthly [Value,Min,Day,Hour,Minute,Max,Day,Hour,Minute]
521,9,Electricity:HVAC [J] !Monthly [Value,Min,Day,Hour,Minute,Max,Day,Hour,Minute]
637,9,NaturalGas:Facility [J] !Monthly [Value,Min,Day,Hour,Minute,Max,Day,Hour,Minute]
649,9,NaturalGas:HVAC [J] !Monthly [Value,Min,Day,Hour,Minute,Max,Day,Hour,Minute]
13,11,Electricity:Facility [J] !RunPeriod [Value,Min,Month,Day,Hour,Minute,Max,Month,Day,Hour,Minute]
25,11,Electricity:Building [J] !RunPeriod [Value,Min,Month,Day,Hour,Minute,Max,Month,Day,Hour,Minute]
61,11,InteriorLights:Electricity [J] !RunPeriod [Value,Min,Month,Day,Hour,Minute,Max,Month,Day,Hour,Minute]
523,11,Electricity:HVAC [J] !RunPeriod [Value,Min,Month,Day,Hour,Minute,Max,Month,Day,Hour,Minute]
639,11,NaturalGas:Facility [J] !RunPeriod [Value,Min,Month,Day,Hour,Minute,Max,Month,Day,Hour,Minute]
651,11,NaturalGas:HVAC [J] !RunPeriod [Value,Min,Month,Day,Hour,Minute,Max,Month,Day,Hour,Minute]
End of Data Dictionary
1,RUN PERIOD 1,  41.98, -87.92,  -6.00, 201.00
4,31, 1
11,8264617095.363645,280869.2873243748,11,19,30,3480409.74988468,28,14,40
23,1911616431.941255,104788.15329368396,11,20,50,1063179.1401316784,30,13,60
59,991320033.6298822,30653.06226437657, 1, 1,10,613061.2452875314, 1, 8,10
521,6353000663.422397,0.0,11,13,40,2510580.5121553713,27,20,50
637,14373716141.01457,0.0, 1, 9,60,19066078.51870534,31, 7,50
649,14373716141.01457,0.0, 1, 9,60,19066078.51870534,31, 7,50
4,59, 2
11,6742907362.218392,240131.87794395545, 9,14,40,3484526.2549776654, 4,14,30
23,1685366367.5407376,99999999999999.0,11,20,50,1063286.2769642686, 1, 9,10
59,866623376.3384246,99999999999999.0, 1, 1,10,-99999999999999.0, 1, 8,10
521,5057540994.6776495,99999999999999.0,11,13,40,-99999999999999.0,27,20,50
637,11840297980.983461,99999999999999.0, 1, 9,60,19739470.677695606, 3, 8,10
649,11840297980.983461,99999999999999.0, 1, 9,60,19739470.677695606, 3, 8,10
4,90, 3
11,6574114365.111874,62874.137583278134,31,14,60,3486786.4572187043,18,14,30
23,1776887815.2689674,62874.137583278134,31,14,60,1073809.3474713448,18, 9,60
59,917017010.7010406,99999999999999.0, 1, 1,10,-99999999999999.0, 1, 8,10
521,4797226549.842889,99999999999999.0,11,13,40,-99999999999999.0,27,20,50
637,8572020150.486901,99999999999999.0, 1, 9,60,-99999999999999.0, 3, 8,10
649,8572020150.486901,99999999999999.0, 1, 9,60,-99999999999999.0, 3, 8,10
4,120, 4
11,4002283115.8878984,30653.06226437657, 5, 2,10,-99999999999999.0,18,14,30
23,1710941521.2175982,30653.06226437657, 5, 1,30,-99999999999999.0,18, 9,60
59,949754481.1993912,99999999999999.0, 1, 1,10,-99999999999999.0, 1, 8,10
521,2291341594.6702886,99999999999999.0,11,13,40,-99999999999999.0,27,20,50
637,3207436093.0560555,99999999999999.0, 1, 9,60,-99999999999999.0, 3, 8,10
649,3207436093.0560555,99999999999999.0, 1, 9,60,-99999999999999.0, 3, 8,10
4,151, 5
11,3126557563.5061774,99999999999999.0, 5, 2,10,-99999999999999.0,18,14,30
23,1693871047.4810057,99999999999999.0, 5, 1,30,-99999999999999.0,18, 9,60
59,991320033.6298822,99999999999999.0, 1, 1,10,-99999999999999.0, 1, 8,10
521,1432686516.0251608,99999999999999.0,11,13,40,-99999999999999.0,27,20,50
637,679361581.7772781,99999999999999.0, 1, 9,60,-99999999999999.0, 3, 8,10
649,679361581.7772781,99999999999999.0, 1, 9,60,-99999999999999.0, 3, 8,10
4,181, 6
11,3146888706.6305723,99999999999999.0, 5, 2,10,-99999999999999.0,18,14,30
23,1429084214.3280056,99999999999999.0, 5, 1,30,-99999999999999.0,18, 9,60
59,875451458.27055,99999999999999.0, 1, 1,10,-99999999999999.0, 1, 8,10
521,1717804492.302566,99999999999999.0,11,13,40,-99999999999999.0,27,20,50
637,24920595.80120642,99999999999999.0, 1, 9,60,-99999999999999.0, 3, 8,10
649,24920595.80120642,99999999999999.0, 1, 9,60,-99999999999999.0, 3, 8,10
4,212, 7
11,4084498176.4491363,99999999999999.0, 5, 2,10,-99999999999999.0,18,14,30
23,1536095077.2901857,99999999999999.0, 5, 1,30,-99999999999999.0,18, 9,60
59,991320033.6298822,99999999999999.0, 1, 1,10,-99999999999999.0, 1, 8,10
521,2548403099.1589365,99999999999999.0,11,13,40,-99999999999999.0,27,20,50
637,0.0,99999999999999.0, 1, 9,60,-99999999999999.0, 3, 8,10
649,0.0,99999999999999.0, 1, 9,60,-99999999999999.0, 3, 8,10
4,243, 8
11,3590405886.1121163,99999999999999.0, 5, 2,10,-99999999999999.0,18,14,30
23,1505550534.0074768,99999999999999.0, 5, 1,30,-99999999999999.0,18, 9,60
59,954168522.165471,99999999999999.0, 1, 1,10,-99999999999999.0, 1, 8,10
521,2084855352.1046374,99999999999999.0,11,13,40,-99999999999999.0,27,20,50
637,2036605.1633481253,99999999999999.0, 1, 9,60,-99999999999999.0, 3, 8,10
649,2036605.1633481253,99999999999999.0, 1, 9,60,-99999999999999.0, 3, 8,10
4,273, 9
11,2823805031.7160897,99999999999999.0, 5, 2,10,-99999999999999.0,18,14,30
23,1510818577.6972759,99999999999999.0, 5, 1,30,-99999999999999.0,18, 9,60
59,912602969.7349706,99999999999999.0, 1, 1,10,-99999999999999.0, 1, 8,10
521,1312986454.018817,99999999999999.0,11,13,40,-99999999999999.0,27,20,50
637,32676747.476007655,99999999999999.0, 1, 9,60,-99999999999999.0, 3, 8,10
649,32676747.476007655,99999999999999.0, 1, 9,60,-99999999999999.0, 3, 8,10
4,304,10
11,3250305390.0542164,99999999999999.0, 5, 2,10,-99999999999999.0,18,14,30
23,1744227567.3424537,99999999999999.0, 5, 1,30,-99999999999999.0,18, 9,60
59,991320033.6298822,99999999999999.0, 1, 1,10,-99999999999999.0, 1, 8,10
521,1506077822.7117581,99999999999999.0,11,13,40,-99999999999999.0,27,20,50
637,1539409495.298108,99999999999999.0, 1, 9,60,-99999999999999.0, 3, 8,10
649,1539409495.298108,99999999999999.0, 1, 9,60,-99999999999999.0, 3, 8,10
4,334,11
11,5502654053.614102,99999999999999.0, 5, 2,10,-99999999999999.0,18,14,30
23,1714440643.7693198,99999999999999.0, 5, 1,30,-99999999999999.0,18, 9,60
59,912602969.7349781,99999999999999.0, 1, 1,10,-99999999999999.0, 1, 8,10
521,3788213409.844789,99999999999999.0,11,13,40,-99999999999999.0,27,20,50
637,7072625294.753711,99999999999999.0, 1, 9,60,-99999999999999.0, 3, 8,10
649,7072625294.753711,99999999999999.0, 1, 9,60,-99999999999999.0, 3, 8,10
4,365,12
11,6856077890.703471,99999999999999.0, 5, 2,10,-99999999999999.0,18,14,30
23,1807623294.0293696,99999999999999.0, 5, 1,30,-99999999999999.0,18, 9,60
59,954168522.1654615,99999999999999.0, 1, 1,10,-99999999999999.0, 1, 8,10
521,5048454596.674087,99999999999999.0,11,13,40,-99999999999999.0,27,20,50
637,9149841012.986774,99999999999999.0, 1, 9,60,-99999999999999.0, 3, 8,10
649,9149841012.986774,99999999999999.0, 1, 9,60,-99999999999999.0, 3, 8,10
5,365
13,57965114637.36745,30653.06226437657, 4, 5, 2,10,3486786.4572187043, 3,18,14,30
25,20026523091.91099,30653.06226437657, 4, 5, 1,30,1073809.3474713448, 3,18, 9,60
61,11307669444.82424,30653.06226437657, 1, 1, 1,10,613061.2452875314, 1, 1, 8,10
523,37938591545.45422,0.0, 1,11,13,40,2510580.5121553713, 1,27,20,50
639,56494341698.79791,0.0, 1, 1, 9,60,19739470.677695606, 2, 3, 8,10
651,56494341698.79791,0.0, 1, 1, 9,60,19739470.677695606, 2, 3, 8,10
1,RUN PERIOD 2,  41.98, -87.92,  -6.00, 201.00
4,1, 7
11,122840373.73208317,99999999999999.0, 5, 2,10,-99999999999999.0,18,14,30
23,64778922.3988334,99999999999999.0, 5, 1,30,-99999999999999.0,18, 9,60
59,41565552.43049457,99999999999999.0, 1, 1,10,-99999999999999.0, 1, 8,10
521,58061451.33324982,99999999999999.0,11,13,40,-99999999999999.0,27,20,50
637,0.0,99999999999999.0, 1, 9,60,-99999999999999.0, 3, 8,10
649,0.0,99999999999999.0, 1, 9,60,-99999999999999.0, 3, 8,10
5,1
13,122840373.73208317,99999999999999.0, 4, 5, 2,10,-99999999999999.0, 3,18,14,30
25,64778922.3988334,99999999999999.0, 4, 5, 1,30,-99999999999999.0, 3,18, 9,60
61,41565552.43049457,99999999999999.0, 1, 1, 1,10,-99999999999999.0, 1, 1, 8,10
523,58061451.33324982,99999999999999.0, 1,11,13,40,-99999999999999.0, 1,27,20,50
639,0.0,99999999999999.0, 1, 1, 9,60,-99999999999999.0, 2, 3, 8,10
651,0.0,99999999999999.0, 1, 1, 9,60,-99999999999999.0, 2, 3, 8,10
End of Data
 Number of Records Written=          90
