Program Version,EnergyPlus, Version 24.2.0-94a887817b, YMD=2025.02.04 17:21
1,5,Environment Title[],Latitude[deg],Longitude[deg],Time Zone[],Elevation[m]
2,8,Day of Simulation[],Month[],Day of Month[],DST Indicator[1=yes 0=no],Hour[],StartMinute[],EndMinute[],DayType
3,5,Cumulative Day of Simulation[],Month[],Day of Month[],DST Indicator[1=yes 0=no],DayType  ! When Daily Meters Requested
4,2,Cumulative Days of Simulation[],Month[]  ! When Monthly Meters Requested
5,1,Cumulative Days of Simulation[] ! When Run Period Meters Requested
6,1,Calendar Year of Simulation[] ! When Annual Meters Requested
11,9,Electricity:Facility [J] !Monthly [Value,Min,Day,Hour,Minute,Max,Day,Hour,Minute]
23,9,Electricity:Building [J] !Monthly [Value,Min,Day,Hour,Minute,Max,Day,Hour,Minute]
59,9,InteriorLights:Electricity [J] !Monthly [Value,Min,Day,Hour,Minute,Max,Day,Hour,Minute]
521,9,Electricity:HVAC [J] !Monthly [Value,Min,Day,Hour,Minute,Max,Day,Hour,Minute]
637,9,NaturalGas:Facility [J] !Monthly [Value,Min,Day,Hour,Minute,Max,Day,Hour,Minute]
649,9,NaturalGas:HVAC [J] !Monthly [Value,Min,Day,Hour,Minute,Max,Day,Hour,Minute]
13,11,Electricity:Facility [J] !RunPeriod [Value,Min,Month,Day,Hour,Minute,Max,Month,Day,Hour,Minute]
25,11,Electricity:Building [J] !RunPeriod [Value,Min,Month,Day,Hour,Minute,Max,Month,Day,Hour,Minute]
61,11,InteriorLights:Electricity [J] !RunPeriod [Value,Min,Month,Day,Hour,Minute,Max,Month,Day,Hour,Minute]
523,11,Electricity:HVAC [J] !RunPeriod [Value,Min,Month,Day,Hour,Minute,Max,Month,Day,Hour,Minute]
639,11,NaturalGas:Facility [J] !RunPeriod [Value,Min,Month,Day,Hour,Minute,Max,Month,Day,Hour,Minute]
651,11,NaturalGas:HVAC [J] !RunPeriod [Value,Min,Month,Day,Hour,Minute,Max,Month,Day,Hour,Minute]
End of Data Dictionary
1,YEARSIMULATION,  41.98, -87.92,  -6.00, 201.00
4,31, 1
11,8619269859.235077,232578.80263451955,11,19,40,3541871.9572815285,26,14,60
23,1919641454.4249828,106708.00153342477,11,20,30,1064683.3065385062,31,14,30
59,996734748.1410384,30820.493139800128, 1, 1,10,616409.8627960025, 1, 8,10
521,6699628404.810074,0.0,11,13,50,2557624.922558472,27,20,30
637,15499748814.691547,0.0, 1,10,30,19871182.40701235,31, 7,60
649,15499748814.691547,0.0, 1,10,30,19871182.40701235,31, 7,60
4,59, 2
11,7110844881.585647,99999999999999.0,11,19,40,-99999999999999.0,26,14,60
23,1692722658.6936738,99999999999999.0,11,20,30,-99999999999999.0,31,14,30
59,871356982.0483689,99999999999999.0, 1, 1,10,-99999999999999.0, 1, 8,10
521,5418122222.891944,99999999999999.0,11,13,50,-99999999999999.0,27,20,30
637,12610151754.229479,99999999999999.0, 1,10,30,20396851.50360734, 3, 7,60
649,12610151754.229479,99999999999999.0, 1,10,30,20396851.50360734, 3, 7,60
4,90, 3
11,7121071070.8875675,92966.61706860748,31,16,60,-99999999999999.0,26,14,60
23,1840246971.4169738,92966.61706860748,31,16,60,-99999999999999.0,31,14,30
59,959380310.455616,99999999999999.0, 1, 1,10,-99999999999999.0, 1, 8,10
521,5280824099.470574,99999999999999.0,11,13,50,-99999999999999.0,27,20,30
637,9041247977.135157,99999999999999.0, 1,10,30,-99999999999999.0, 3, 7,60
649,9041247977.135157,99999999999999.0, 1,10,30,-99999999999999.0, 3, 7,60
4,120, 4
11,4164068096.0152974,30820.493139800128, 5, 3,50,-99999999999999.0,26,14,60
23,1669223686.5101342,30820.493139800128, 5, 2,60,-99999999999999.0,31,14,30
59,917587721.7580453,99999999999999.0, 1, 1,10,-99999999999999.0, 1, 8,10
521,2494844409.505144,99999999999999.0,11,13,50,-99999999999999.0,27,20,30
637,3667045906.0748076,99999999999999.0, 1,10,30,-99999999999999.0, 3, 7,60
649,3667045906.0748076,99999999999999.0, 1,10,30,-99999999999999.0, 3, 7,60
4,151, 5
11,3055611322.308978,99999999999999.0, 5, 3,50,-99999999999999.0,26,14,60
23,1714617143.6420882,99999999999999.0, 5, 2,60,-99999999999999.0,31,14,30
59,996734748.1410384,99999999999999.0, 1, 1,10,-99999999999999.0, 1, 8,10
521,1340994178.6669166,99999999999999.0,11,13,50,-99999999999999.0,27,20,30
637,791188863.7364248,99999999999999.0, 1,10,30,-99999999999999.0, 3, 7,60
649,791188863.7364248,99999999999999.0, 1,10,30,-99999999999999.0, 3, 7,60
4,181, 6
11,2983209669.5621734,99999999999999.0, 5, 3,50,-99999999999999.0,26,14,60
23,1510585801.971659,99999999999999.0, 5, 2,60,-99999999999999.0,31,14,30
59,917587721.7580541,99999999999999.0, 1, 1,10,-99999999999999.0, 1, 8,10
521,1472623867.5905163,99999999999999.0,11,13,50,-99999999999999.0,27,20,30
637,31880319.670560654,99999999999999.0, 1,10,30,-99999999999999.0, 3, 7,60
649,31880319.670560654,99999999999999.0, 1,10,30,-99999999999999.0, 3, 7,60
4,212, 7
11,3719996264.52708,99999999999999.0, 5, 3,50,-99999999999999.0,26,14,60
23,1515167155.3935473,99999999999999.0, 5, 2,60,-99999999999999.0,31,14,30
59,959380310.4556073,99999999999999.0, 1, 1,10,-99999999999999.0, 1, 8,10
521,2204829109.133538,99999999999999.0,11,13,50,-99999999999999.0,27,20,30
637,0.0,99999999999999.0, 1,10,30,-99999999999999.0, 3, 7,60
649,0.0,99999999999999.0, 1,10,30,-99999999999999.0, 3, 7,60
4,243, 8
11,3394650603.4935937,99999999999999.0, 5, 3,50,-99999999999999.0,26,14,60
23,1601321212.9805639,99999999999999.0, 5, 2,60,-99999999999999.0,31,14,30
59,996734748.1410385,99999999999999.0, 1, 1,10,-99999999999999.0, 1, 8,10
521,1793329390.5130317,99999999999999.0,11,13,50,-99999999999999.0,27,20,30
637,5724725.511427679,99999999999999.0, 1,10,30,-99999999999999.0, 3, 7,60
649,5724725.511427679,99999999999999.0, 1,10,30,-99999999999999.0, 3, 7,60
4,273, 9
11,2558127306.9220457,99999999999999.0, 5, 3,50,-99999999999999.0,26,14,60
23,1479004375.3644006,99999999999999.0, 5, 2,60,-99999999999999.0,31,14,30
59,880233284.0726142,99999999999999.0, 1, 1,10,-99999999999999.0, 1, 8,10
521,1079122931.5576477,99999999999999.0,11,13,50,-99999999999999.0,27,20,30
637,49597954.03229054,99999999999999.0, 1,10,30,-99999999999999.0, 3, 7,60
649,49597954.03229054,99999999999999.0, 1,10,30,-99999999999999.0, 3, 7,60
4,304,10
11,3372499583.746408,99999999999999.0, 5, 3,50,-99999999999999.0,26,14,60
23,1756812817.3616831,99999999999999.0, 5, 2,60,-99999999999999.0,31,14,30
59,996734748.1410384,99999999999999.0, 1, 1,10,-99999999999999.0, 1, 8,10
521,1615686766.3847337,99999999999999.0,11,13,50,-99999999999999.0,27,20,30
637,1884807133.020608,99999999999999.0, 1,10,30,-99999999999999.0, 3, 7,60
649,1884807133.020608,99999999999999.0, 1,10,30,-99999999999999.0, 3, 7,60
4,334,11
11,5925532978.346556,99999999999999.0, 5, 3,50,-99999999999999.0,26,14,60
23,1777422604.4300518,99999999999999.0, 5, 2,60,-99999999999999.0,31,14,30
59,954942159.4434929,99999999999999.0, 1, 1,10,-99999999999999.0, 1, 8,10
521,4148110373.9164925,99999999999999.0,11,13,50,-99999999999999.0,27,20,30
637,7569609971.361865,99999999999999.0, 1,10,30,-99999999999999.0, 3, 7,60
649,7569609971.361865,99999999999999.0, 1,10,30,-99999999999999.0, 3, 7,60
4,365,12
11,7303252635.213217,99999999999999.0, 5, 3,50,-99999999999999.0,26,14,60
23,1760589590.6092288,99999999999999.0, 5, 2,60,-99999999999999.0,31,14,30
59,922025872.7701762,99999999999999.0, 1, 1,10,-99999999999999.0, 1, 8,10
521,5542663044.603986,99999999999999.0,11,13,50,-99999999999999.0,27,20,30
637,9616287797.294094,99999999999999.0, 1,10,30,-99999999999999.0, 3, 7,60
649,9616287797.294094,99999999999999.0, 1,10,30,-99999999999999.0, 3, 7,60
5,365
13,59328134271.84355,30820.493139800128, 4, 5, 3,50,3541871.9572815285, 1,26,14,60
25,20237355472.799797,30820.493139800128, 4, 5, 2,60,1064683.3065385062, 1,31,14,30
61,11369433355.329094,30820.493139800128, 1, 1, 1,10,616409.8627960025, 1, 1, 8,10
523,39090778799.0446,0.0, 1,11,13,50,2557624.922558472, 1,27,20,30
639,60767291216.75854,0.0, 1, 1,10,30,20396851.50360734, 2, 3, 7,60
651,60767291216.75854,0.0, 1, 1,10,30,20396851.50360734, 2, 3, 7,60
End of Data
 Number of Records Written=          78
