Program Version,EnergyPlus, Version 24.2.0-94a887817b, YMD=2025.02.04 17:21
1,5,Environment Title[],Latitude[deg],Longitude[deg],Time Zone[],Elevation[m]
2,8,Day of Simulation[],Month[],Day of Month[],DST Indicator[1=yes 0=no],Hour[],StartMinute[],EndMinute[],DayType
3,5,Cumulative Day of Simulation[],Month[],Day of Month[],DST Indicator[1=yes 0=no],DayType  ! When Daily Report Variables Requested
4,2,Cumulative Days of Simulation[],Month[]  ! When Monthly Report Variables Requested
5,1,Cumulative Days of Simulation[] ! When Run Period Report Variables Requested
6,1,Calendar Year of Simulation[] ! When Annual Report Variables Requested
250,1,LIVING ZONE,Zone Air Temperature [C] !TimeStep,REPORTSCH
251,1,LIVING ZONE,Zone Air System Sensible Heating Energy [J] !TimeStep,REPORTSCH
336,1,LIVING ZONE,Zone Air System Sensible Cooling Energy [J] !TimeStep,REPORTSCH
385,1,LIVING ZONE,Zone Thermostat Heating Setpoint Temperature [C] !TimeStep,REPORTSCH
386,1,LIVING ZONE,Zone Thermostat Cooling Setpoint Temperature [C] !TimeStep,REPORTSCH
387,1,GARAGE ZONE,Zone Air Temperature [C] !TimeStep,REPORTSCH
388,1,GARAGE ZONE,Zone Air System Sensible Heating Energy [J] !TimeStep,REPORTSCH
425,1,GARAGE ZONE,Zone Air System Sensible Cooling Energy [J] !TimeStep,REPORTSCH
450,1,GARAGE ZONE,Zone Thermostat Heating Setpoint Temperature [C] !TimeStep,REPORTSCH
451,1,GARAGE ZONE,Zone Thermostat Cooling Setpoint Temperature [C] !TimeStep,REPORTSCH
452,1,ATTIC ZONE,Zone Air Temperature [C] !TimeStep,REPORTSCH
453,1,ATTIC ZONE,Zone Air System Sensible Heating Energy [J] !TimeStep,REPORTSCH
490,1,ATTIC ZONE,Zone Air System Sensible Cooling Energy [J] !TimeStep,REPORTSCH
515,1,ATTIC ZONE,Zone Thermostat Heating Setpoint Temperature [C] !TimeStep,REPORTSCH
516,1,ATTIC ZONE,Zone Thermostat Cooling Setpoint Temperature [C] !TimeStep,REPORTSCH
542,1,ACDXCOIL 1,Cooling Coil Total Cooling Energy [J] !TimeStep,REPORTSCH
592,1,HEAT PUMP DX HEATING COIL 1,Heating Coil Heating Energy [J] !TimeStep,REPORTSCH
632,1,SUPP HEATING COIL 1,Heating Coil Heating Energy [J] !TimeStep,REPORTSCH
686,1,TWOSPEED HEAT PUMP 1,Unitary System DX Coil Cycling Ratio [] !TimeStep,REPORTSCH
687,1,TWOSPEED HEAT PUMP 1,Unitary System DX Coil Speed Ratio [] !TimeStep,REPORTSCH
688,1,TWOSPEED HEAT PUMP 1,Unitary System DX Coil Speed Level [] !TimeStep,REPORTSCH
End of Data Dictionary
1,YEARSIMULATION,  41.98, -87.92,  -6.00, 201.00
2,21, 1,21, 0, 1, 0.00,10.00,Sunday
250,22.441929476524304
251,7295814.6642161785
336,0.0
385,22.503333333333337
386,26.69
387,0.6019125993380192
388,0.0
425,0.0
450,0.0
451,0.0
452,-1.6453317072854685
453,0.0
490,0.0
515,0.0
516,0.0
542,0.0
592,4187608.7119038254
632,3103581.0136835235
686,0.9736527684870152
687,0.5508316042009521
688,1.6666666666666667
2,21, 1,21, 0, 1,10.00,20.00,Sunday
250,22.469910195036853
251,5371364.446858221
336,0.0
385,22.503333333333334
386,26.689999999999998
387,0.5670083818532464
388,0.0
425,0.0
450,0.0
451,0.0
452,-1.6309512088383515
453,0.0
490,0.0
515,0.0
516,0.0
542,0.0
592,3254753.142093923
632,2068366.7841883446
686,0.670447046297622
687,0.6666666666666667
688,1.6666666666666667
2,21, 1,21, 0, 1,20.00,30.00,Sunday
250,22.685499740683976
251,7095263.187801339
336,0.0
385,23.17
386,26.69
387,0.5362454214663305
388,0.0
425,0.0
450,0.0
451,0.0
452,-1.6205274976400563
453,0.0
490,0.0
515,0.0
516,0.0
542,0.0
592,4845645.974543602
632,2805093.319544062
686,1.0
687,1.0
688,2.0
2,21, 1,21, 0, 1,30.00,40.00,Sunday
250,23.123898228835387
251,7812421.551772926
336,0.0
385,23.17
386,26.69
387,0.5132299008140907
388,0.0
425,0.0
450,0.0
451,0.0
452,-1.6154875025518942
453,0.0
490,0.0
515,0.0
516,0.0
542,0.0
592,4830369.691250727
632,2850073.705869538
686,1.0
687,1.0
688,2.0
2,21, 1,21, 0, 1,40.00,50.00,Sunday
250,22.079000779573338
251,5668307.64335828
336,0.0
385,21.836666666666638
386,26.689999999999962
387,0.49331610968884
388,0.0
425,0.0
450,0.0
451,0.0
452,-1.6132348630306357
453,0.0
490,0.0
515,0.0
516,0.0
542,0.0
592,2552677.509466542
632,3016117.523591953
686,0.5416890534535461
687,0.49999999999999933
688,1.166666666666665
2,21, 1,21, 0, 1,50.00,60.00,Sunday
250,22.458898047279305
251,5523027.647540075
336,0.0
385,22.50333333333335
386,26.69000000000002
387,0.4711900217865705
388,0.0
425,0.0
450,0.0
451,0.0
452,-1.611664348776844
453,0.0
490,0.0
515,0.0
516,0.0
542,0.0
592,3322260.6449181694
632,2181762.790060574
686,0.7021156528117611
687,0.6666666666666672
688,1.6666666666666679
2,21, 1,21, 0, 2, 0.00,10.00,Sunday
250,22.694902536536418
251,6804064.987268447
336,0.0
385,23.17
386,26.69
387,0.4437236409017567
388,0.0
425,0.0
450,0.0
451,0.0
452,-1.6116069608249726
453,0.0
490,0.0
515,0.0
516,0.0
542,0.0
592,4798254.225269855
632,2554384.901886639
686,1.0
687,1.0
688,2.0
2,21, 1,21, 0, 2,10.00,20.00,Sunday
250,23.124871219884596
251,7883858.337517679
336,0.0
385,23.17
386,26.69
387,0.41892060942070863
388,0.0
425,0.0
450,0.0
451,0.0
452,-1.615038467769498
453,0.0
490,0.0
515,0.0
516,0.0
542,0.0
592,4798714.058461523
632,2950723.4469045466
686,1.0
687,1.0
688,2.0
2,21, 1,21, 0, 2,20.00,30.00,Sunday
250,22.076532971018068
251,5716502.060297539
336,0.0
385,21.836666666666687
386,26.690000000000023
387,0.3974214379670269
388,0.0
425,0.0
450,0.0
451,0.0
452,-1.6224748436953629
453,0.0
490,0.0
515,0.0
516,0.0
542,0.0
592,2553127.7255997513
632,3064619.7156550307
686,0.544236007893583
687,0.5000000000000004
688,1.1666666666666674
2,21, 1,21, 0, 2,30.00,40.00,Sunday
250,22.459370867360235
251,5556846.70392367
336,0.0
385,22.50333333333335
386,26.69000000000002
387,0.3741115711100135
388,0.0
425,0.0
450,0.0
451,0.0
452,-1.633486673344559
453,0.0
490,0.0
515,0.0
516,0.0
542,0.0
592,3330547.8220746308
632,2205160.6329517867
686,0.704506119945827
687,0.6666666666666672
688,1.6666666666666679
2,21, 1,21, 0, 2,40.00,50.00,Sunday
250,22.695904807116744
251,6830670.976929042
336,0.0
385,23.17
386,26.69
387,0.34541105705536396
388,0.0
425,0.0
450,0.0
451,0.0
452,-1.6494440602763603
453,0.0
490,0.0
515,0.0
516,0.0
542,0.0
592,4798259.312432242
632,2580693.4260493186
686,1.0
687,1.0
688,2.0
2,21, 1,21, 0, 2,50.00,60.00,Sunday
250,23.12498866390965
251,7906696.661856873
336,0.0
385,23.17
386,26.69
387,0.3195898038035977
388,0.0
425,0.0
450,0.0
451,0.0
452,-1.666086907603113
453,0.0
490,0.0
515,0.0
516,0.0
542,0.0
592,4798712.862405984
632,2973310.111668933
686,1.0
687,1.0
688,2.0
2,21, 1,21, 0, 3, 0.00,10.00,Sunday
250,22.074984134895118
251,5746070.343107734
336,0.0
385,21.83666666666667
386,26.69
387,0.2978084269704047
388,0.0
425,0.0
450,0.0
451,0.0
452,-1.6807840615397374
453,0.0
490,0.0
515,0.0
516,0.0
542,0.0
592,2558323.5099489926
632,3089486.1624240233
686,0.5457332111450459
687,0.5
688,1.1666666666666667
2,21, 1,21, 0, 3,10.00,20.00,Sunday
250,22.46005612654423
251,5598774.583611887
336,0.0
385,22.503333333333334
386,26.689999999999998
387,0.2749888137342402
388,0.0
425,0.0
450,0.0
451,0.0
452,-1.6927790772917088
453,0.0
490,0.0
515,0.0
516,0.0
542,0.0
592,3341439.4574157163
632,2233087.9557324694
686,0.7076478510574303
687,0.6666666666666667
688,1.6666666666666667
2,21, 1,21, 0, 3,20.00,30.00,Sunday
250,22.697128024208954
251,6879888.992107535
336,0.0
385,23.17
386,26.69
387,0.24791508449872734
388,0.0
425,0.0
450,0.0
451,0.0
452,-1.7007803233232535
453,0.0
490,0.0
515,0.0
516,0.0
542,0.0
592,4798266.065483622
632,2629429.2891408526
686,1.0
687,1.0
688,2.0
2,21, 1,21, 0, 3,30.00,40.00,Sunday
250,23.12514760751497
251,7965499.853344796
336,0.0
385,23.17
386,26.69
387,0.22482621967360783
388,0.0
425,0.0
450,0.0
451,0.0
452,-1.7014840342320081
453,0.0
490,0.0
515,0.0
516,0.0
542,0.0
592,4798711.318163579
632,3031803.548355737
686,1.0
687,1.0
688,2.0
2,21, 1,21, 0, 3,40.00,50.00,Sunday
250,22.0720603934122
251,5801757.420502851
336,0.0
385,21.836666666666638
386,26.689999999999962
387,0.2062728483433709
388,0.0
425,0.0
450,0.0
451,0.0
452,-1.6971382345130408
453,0.0
490,0.0
515,0.0
516,0.0
542,0.0
592,2568037.514239615
632,3136396.058056753
686,0.548532347112151
687,0.49999999999999933
688,1.166666666666665
2,21, 1,21, 0, 3,50.00,60.00,Sunday
250,22.460986477915625
251,5657573.029956107
336,0.0
385,22.50333333333335
386,26.69000000000002
387,0.18722827018964192
388,0.0
425,0.0
450,0.0
451,0.0
452,-1.6897395877361516
453,0.0
490,0.0
515,0.0
516,0.0
542,0.0
592,3357003.9719161284
632,2272011.93165985
686,0.7121373934410073
687,0.6666666666666672
688,1.6666666666666679
2,21, 1,21, 0, 4, 0.00,10.00,Sunday
250,22.698975660866097
251,6997831.305664045
336,0.0
385,23.17
386,26.69
387,0.16041510252266336
388,0.0
425,0.0
450,0.0
451,0.0
452,-1.6798817337225886
453,0.0
490,0.0
515,0.0
516,0.0
542,0.0
592,4793983.624043822
632,2751009.1063400023
686,1.0
687,1.0
688,2.0
2,21, 1,21, 0, 4,10.00,20.00,Sunday
250,23.125421564898247
251,8149480.202263513
336,0.0
385,23.17
386,26.69
387,0.1321038787778424
388,0.0
425,0.0
450,0.0
451,0.0
452,-1.672781494951165
453,0.0
490,0.0
515,0.0
516,0.0
542,0.0
592,4789072.33586372
632,3224952.974575087
686,1.0
687,1.0
688,2.0
2,21, 1,21, 0, 4,20.00,30.00,Sunday
250,22.05892973678999
251,6050648.910053391
336,0.0
385,21.836666666666687
386,26.690000000000023
387,0.10468271227410411
388,0.0
425,0.0
450,0.0
451,0.0
452,-1.6703810143218443
453,0.0
490,0.0
515,0.0
516,0.0
542,0.0
592,2604144.299161213
632,3353410.2244966496
686,0.5611751614070184
687,0.5000000000000004
688,1.1666666666666674
2,21, 1,21, 0, 4,30.00,40.00,Sunday
250,22.466682211509518
251,5995878.486628312
336,0.0
385,22.50333333333335
386,26.69000000000002
387,0.07385623793036025
388,0.0
425,0.0
450,0.0
451,0.0
452,-1.6718223725298822
453,0.0
490,0.0
515,0.0
516,0.0
542,0.0
592,3437346.3522765604
632,2503213.3226448363
686,0.7394914701069716
687,0.6666666666666672
688,1.6666666666666679
2,21, 1,21, 0, 4,40.00,50.00,Sunday
250,22.705883495479345
251,7305716.2436658135
336,0.0
385,23.17
386,26.69
387,0.034651386593963815
388,0.0
425,0.0
450,0.0
451,0.0
452,-1.6785963733096165
453,0.0
490,0.0
515,0.0
516,0.0
542,0.0
592,4775325.3909921935
632,3071262.1787622496
686,1.0
687,1.0
688,2.0
2,21, 1,21, 0, 4,50.00,60.00,Sunday
250,23.12623562623594
251,8466216.410100328
336,0.0
385,23.17
386,26.69
387,-0.0016490025889733485
388,0.0
425,0.0
450,0.0
451,0.0
452,-1.688599476937202
453,0.0
490,0.0
515,0.0
516,0.0
542,0.0
592,4767944.279008061
632,3561019.434884061
686,1.0
687,1.0
688,2.0
2,21, 1,21, 0, 5, 0.00,10.00,Sunday
250,22.048102845494906
251,6256831.898000796
336,0.0
385,21.83666666666667
386,26.69
387,-0.02452149236749148
388,0.0
425,0.0
450,0.0
451,0.0
452,-1.6960773311968032
453,0.0
490,0.0
515,0.0
516,0.0
542,0.0
592,2629224.83387201
632,3538000.279126367
686,0.5718793707598958
687,0.5
688,1.1666666666666667
2,21, 1,21, 0, 5,10.00,20.00,Sunday
250,22.468141696984457
251,6103129.040811128
336,0.0
385,22.503333333333334
386,26.689999999999998
387,-0.04209806010716362
388,0.0
425,0.0
450,0.0
451,0.0
452,-1.6984350309378473
453,0.0
490,0.0
515,0.0
516,0.0
542,0.0
592,3450558.0688107926
632,2590109.663972909
686,0.7481201311790889
687,0.6666666666666667
688,1.6666666666666667
2,21, 1,21, 0, 5,20.00,30.00,Sunday
250,22.70770014253775
251,7287255.751624869
336,0.0
385,23.17
386,26.69
387,-0.0576589373965847
388,0.0
425,0.0
450,0.0
451,0.0
452,-1.692250283734644
453,0.0
490,0.0
515,0.0
516,0.0
542,0.0
592,4750410.639762523
632,3075572.9919178174
686,1.0
687,1.0
688,2.0
2,21, 1,21, 0, 5,30.00,40.00,Sunday
250,23.12637902197701
251,8339040.127912179
336,0.0
385,23.17
386,26.69
387,-0.06738036054493887
388,0.0
425,0.0
450,0.0
451,0.0
452,-1.677100828009272
453,0.0
490,0.0
515,0.0
516,0.0
542,0.0
592,4742425.011359833
632,3458879.304139482
686,1.0
687,1.0
688,2.0
2,21, 1,21, 0, 5,40.00,50.00,Sunday
250,22.05495524278657
251,6127449.911136621
336,0.0
385,21.836666666666638
386,26.689999999999962
387,-0.07193112357820647
388,0.0
425,0.0
450,0.0
451,0.0
452,-1.6552826825792784
453,0.0
490,0.0
515,0.0
516,0.0
542,0.0
592,2592778.7685042704
632,3442757.083498188
686,0.5656920568182843
687,0.49999999999999933
688,1.166666666666665
2,21, 1,21, 0, 5,50.00,60.00,Sunday
250,22.46592598761352
251,5963888.2183716
336,0.0
385,22.50333333333335
386,26.69000000000002
387,-0.07443175192141761
388,0.0
425,0.0
450,0.0
451,0.0
452,-1.6268161168385489
453,0.0
490,0.0
515,0.0
516,0.0
542,0.0
592,3391287.68568248
632,2520782.083557075
686,0.7368327311393064
687,0.6666666666666672
688,1.6666666666666679
2,21, 1,21, 0, 6, 0.00,10.00,Sunday
250,22.705810370418604
251,7247822.9349188255
336,0.0
385,23.17
386,26.69
387,-0.08382478022636823
388,0.0
425,0.0
450,0.0
451,0.0
452,-1.59475393922464
453,0.0
490,0.0
515,0.0
516,0.0
542,0.0
592,4723277.586866393
632,3066412.1220595515
686,1.0
687,1.0
688,2.0
2,21, 1,21, 0, 6,10.00,20.00,Sunday
250,23.126220764142897
251,8379541.737012585
336,0.0
385,23.17
386,26.69
387,-0.10064836786449038
388,0.0
425,0.0
450,0.0
451,0.0
452,-1.5772762075288562
453,0.0
490,0.0
515,0.0
516,0.0
542,0.0
592,4719107.395433901
632,3523211.197464495
686,1.0
687,1.0
688,2.0
2,21, 1,21, 0, 6,20.00,30.00,Sunday
250,22.048405659491323
251,6251452.786692422
336,0.0
385,21.836666666666687
386,26.690000000000023
387,-0.12141391264235749
388,0.0
425,0.0
450,0.0
451,0.0
452,-1.5766260727773287
453,0.0
490,0.0
515,0.0
516,0.0
542,0.0
592,2604377.808235907
632,3557264.891353869
686,0.5722958144512121
687,0.5000000000000004
688,1.1666666666666674
2,21, 1,21, 0, 6,30.00,40.00,Sunday
250,22.469832462889833
251,6187066.059389495
336,0.0
385,22.50333333333335
386,26.69000000000002
387,-0.14656433398831753
388,0.0
425,0.0
450,0.0
451,0.0
452,-1.586128111643467
453,0.0
490,0.0
515,0.0
516,0.0
542,0.0
592,3442542.7511003665
632,2674340.4054812854
686,0.7554958052205278
687,0.6666666666666672
688,1.6666666666666679
2,21, 1,21, 0, 6,40.00,50.00,Sunday
250,22.71012784415441
251,7452363.954388649
336,0.0
385,23.17
386,26.69
387,-0.18047535940903814
388,0.0
425,0.0
450,0.0
451,0.0
452,-1.6078741182485792
453,0.0
490,0.0
515,0.0
516,0.0
542,0.0
592,4707712.471247743
632,3282191.6851805635
686,1.0
687,1.0
688,2.0
2,21, 1,21, 0, 6,50.00,60.00,Sunday
250,23.126715080576382
251,8588698.067717692
336,0.0
385,23.17
386,26.69
387,-0.21306792579499045
388,0.0
425,0.0
450,0.0
451,0.0
452,-1.6361099913820687
453,0.0
490,0.0
515,0.0
516,0.0
542,0.0
592,4701098.595542449
632,3749257.230431875
686,1.0
687,1.0
688,2.0
2,21, 1,21, 0, 7, 0.00,10.00,Sunday
250,22.03929748094006
251,6424193.390309606
336,0.0
385,21.83666666666667
386,26.69
387,-0.2468819661635534
388,0.0
425,0.0
450,0.0
451,0.0
452,-1.681153548704018
453,0.0
490,0.0
515,0.0
516,0.0
542,0.0
592,2638762.3876412176
632,3698634.0418412043
686,0.581030527495257
687,0.5
688,1.1666666666666667
2,21, 1,21, 0, 7,10.00,20.00,Sunday
250,22.471989971630542
251,6334004.393069823
336,0.0
385,22.503333333333334
386,26.689999999999998
387,-0.29018901172785627
388,0.0
425,0.0
450,0.0
451,0.0
452,-1.7614292185405636
453,0.0
490,0.0
515,0.0
516,0.0
542,0.0
592,3506452.295590159
632,2746936.121680537
686,0.7671319351493089
687,0.6666666666666667
688,1.6666666666666667
2,21, 1,21, 0, 7,20.00,30.00,Sunday
250,22.712394141941903
251,7542794.932623322
336,0.0
385,23.17
386,26.69
387,-0.35197134291982884
388,0.0
425,0.0
450,0.0
451,0.0
452,-1.8979425227366828
453,0.0
490,0.0
515,0.0
516,0.0
542,0.0
592,4767728.713305986
632,3309628.0910296724
686,1.0
687,1.0
688,2.0
2,21, 1,21, 0, 7,30.00,40.00,Sunday
250,23.126929373511715
251,8647025.072715614
336,0.0
385,23.17
386,26.69
387,-0.4147275839335391
388,0.0
425,0.0
450,0.0
451,0.0
452,-2.0597223301358065
453,0.0
490,0.0
515,0.0
516,0.0
542,0.0
592,4784085.320032688
632,3723986.831248495
686,1.0
687,1.0
688,2.0
2,21, 1,21, 0, 7,40.00,50.00,Sunday
250,22.036069780049626
251,6484198.380412979
336,0.0
385,21.836666666666638
386,26.689999999999962
387,-0.4763269788217742
388,0.0
425,0.0
450,0.0
451,0.0
452,-2.2397791511327854
453,0.0
490,0.0
515,0.0
516,0.0
542,0.0
592,2690265.883785867
632,3708397.373736136
686,0.582829609386068
687,0.49999999999999933
688,1.166666666666665
2,21, 1,21, 0, 7,50.00,60.00,Sunday
250,22.472734334627415
251,6397879.60348183
336,0.0
385,22.50333333333335
386,26.69000000000002
387,-0.5487862842544313
388,0.0
425,0.0
450,0.0
451,0.0
452,-2.459122465110991
453,0.0
490,0.0
515,0.0
516,0.0
542,0.0
592,3578215.1543561127
632,2735409.5178902
686,0.7712038434105288
687,0.6666666666666672
688,1.6666666666666679
2,21, 1,21, 0, 8, 0.00,10.00,Sunday
250,22.713293686344212
251,7594815.688622222
336,0.0
385,23.17
386,26.69
387,-0.6347458928275169
388,0.0
425,0.0
450,0.0
451,0.0
452,-2.723392363407354
453,0.0
490,0.0
515,0.0
516,0.0
542,0.0
592,4837334.088858263
632,3290890.5728971427
686,1.0
687,1.0
688,2.0
2,21, 1,21, 0, 8,10.00,20.00,Sunday
250,23.127031519234944
251,8635709.462027453
336,0.0
385,23.17
386,26.69
387,-0.6968056152333744
388,0.0
425,0.0
450,0.0
451,0.0
452,-2.870322679029869
453,0.0
490,0.0
515,0.0
516,0.0
542,0.0
592,4843111.467739506
632,3653379.6467625303
686,1.0
687,1.0
688,2.0
2,21, 1,21, 0, 8,20.00,30.00,Sunday
250,22.038549015688798
251,6436755.192117443
336,0.0
385,21.836666666666687
386,26.690000000000023
387,-0.7347429594179148
388,0.0
425,0.0
450,0.0
451,0.0
452,-2.868831739142248
453,0.0
490,0.0
515,0.0
516,0.0
542,0.0
592,2707478.8727695867
632,3643019.698486843
686,0.5796867340014981
687,0.5000000000000004
688,1.1666666666666674
2,21, 1,21, 0, 8,30.00,40.00,Sunday
250,22.470492869857033
251,6274745.026727417
336,0.0
385,22.50333333333335
386,26.69000000000002
387,-0.7636490304853776
388,0.0
425,0.0
450,0.0
451,0.0
452,-2.77145874093672
453,0.0
490,0.0
515,0.0
516,0.0
542,0.0
592,3572191.7644053306
632,2628799.439965678
686,0.7605631846193596
687,0.6666666666666672
688,1.6666666666666679
2,21, 1,21, 0, 8,40.00,50.00,Sunday
250,22.710073022373535
251,7390590.671237402
336,0.0
385,23.17
386,26.69
387,-0.7826770952160106
388,0.0
425,0.0
450,0.0
451,0.0
452,-2.5375056772229656
453,0.0
490,0.0
515,0.0
516,0.0
542,0.0
592,4879426.283467599
632,3046406.437593488
686,1.0
687,1.0
688,2.0
2,21, 1,21, 0, 8,50.00,60.00,Sunday
250,23.126586973899947
251,8384863.816531563
336,0.0
385,23.17
386,26.69
387,-0.780701856388161
388,0.0
425,0.0
450,0.0
451,0.0
452,-2.2251060070327027
453,0.0
490,0.0
515,0.0
516,0.0
542,0.0
592,4885171.0856166445
632,3361273.401927604
686,1.0
687,1.0
688,2.0
2,21, 1,21, 0, 9, 0.00,10.00,Sunday
250,22.054397894462898
251,6135060.949486783
336,0.0
385,21.83666666666667
386,26.69
387,-0.7548020362957844
388,0.0
425,0.0
450,0.0
451,0.0
452,-1.846462901141913
453,0.0
490,0.0
515,0.0
516,0.0
542,0.0
592,2679396.145598661
632,3364252.1811505537
686,0.5640521359940259
687,0.5
688,1.1666666666666667
2,21, 1,21, 0, 9,10.00,20.00,Sunday
250,22.465055979984427
251,5931721.797134584
336,0.0
385,22.503333333333334
386,26.689999999999998
387,-0.709802552505829
388,0.0
425,0.0
450,0.0
451,0.0
452,-1.3658804110361191
453,0.0
490,0.0
515,0.0
516,0.0
542,0.0
592,3517624.4103820156
632,2365720.6015152643
686,0.7335791586631194
687,0.6666666666666667
688,1.6666666666666667
2,21, 1,21, 0, 9,20.00,30.00,Sunday
250,22.49693935003362
251,7286940.051176457
336,0.0
385,22.503333333333327
386,26.68999999999999
387,-0.6306890312043534
388,0.0
425,0.0
450,0.0
451,0.0
452,-0.6606610695244325
453,0.0
490,0.0
515,0.0
516,0.0
542,0.0
592,3171482.897226332
632,3959710.206894662
686,0.7621217915394527
687,0.3333333333333332
688,1.3333333333333328
2,21, 1,21, 0, 9,30.00,40.00,Sunday
250,22.498075453870882
251,7252982.699808033
336,0.0
385,22.503333333333345
386,26.690000000000012
387,-0.5447921378551666
388,0.0
425,0.0
450,0.0
451,0.0
452,-0.012885277066974891
453,0.0
490,0.0
515,0.0
516,0.0
542,0.0
592,3192254.070404465
632,3900316.5319629787
686,0.7646487674213975
687,0.3333333333333332
688,1.3333333333333335
2,21, 1,21, 0, 9,40.00,50.00,Sunday
250,22.497763933663148
251,7233543.026269642
336,0.0
385,22.50333333333335
386,26.69000000000002
387,-0.4645043293407276
388,0.0
425,0.0
450,0.0
451,0.0
452,0.6015446202118399
453,0.0
490,0.0
515,0.0
516,0.0
542,0.0
592,3186034.7097566985
632,3889311.9228418698
686,0.7595875472105948
687,0.3333333333333336
688,1.3333333333333344
2,21, 1,21, 0, 9,50.00,60.00,Sunday
250,23.104551270408905
251,7924431.589455439
336,0.0
385,23.17
386,26.69
387,-0.39310267515079156
388,0.0
425,0.0
450,0.0
451,0.0
452,1.107250283105626
453,0.0
490,0.0
515,0.0
516,0.0
542,0.0
592,4990951.515245134
632,2850375.378673424
686,1.0
687,1.0
688,2.0
2,21, 1,21, 0,10, 0.00,10.00,Sunday
250,22.06405372498172
251,5933295.948556706
336,0.0
385,21.83666666666667
386,26.69
387,-0.32115849731499063
388,0.0
425,0.0
450,0.0
451,0.0
452,1.5691779199332974
453,0.0
490,0.0
515,0.0
516,0.0
542,0.0
592,2705465.464289357
632,3133591.3974556215
686,0.5530391380767161
687,0.5
688,1.1666666666666667
2,21, 1,21, 0,10,10.00,20.00,Sunday
250,22.46030800328394
251,5651246.275196931
336,0.0
385,22.503333333333334
386,26.689999999999998
387,-0.2350831141527449
388,0.0
425,0.0
450,0.0
451,0.0
452,2.0765113124625496
453,0.0
490,0.0
515,0.0
516,0.0
542,0.0
592,3535869.185080207
632,2088666.9845119542
686,0.7115996154917625
687,0.6666666666666667
688,1.6666666666666667
2,21, 1,21, 0,10,20.00,30.00,Sunday
250,22.49131331302845
251,6995741.31586446
336,0.0
385,22.503333333333327
386,26.68999999999999
387,-0.10066870762154233
388,0.0
425,0.0
450,0.0
451,0.0
452,2.7649958312945624
453,0.0
490,0.0
515,0.0
516,0.0
542,0.0
592,3040125.6919769812
632,3832334.5003671246
686,0.6991136425638578
687,0.3333333333333332
688,1.3333333333333328
2,21, 1,21, 0,10,30.00,40.00,Sunday
250,22.491510426284606
251,6910663.46576771
336,0.0
385,22.503333333333345
386,26.690000000000012
387,0.029983185138539623
388,0.0
425,0.0
450,0.0
451,0.0
452,3.394679211295971
453,0.0
490,0.0
515,0.0
516,0.0
542,0.0
592,3034676.7513340977
632,3753494.3737347946
686,0.6922643297781977
687,0.3333333333333332
688,1.3333333333333335
2,21, 1,21, 0,10,40.00,50.00,Sunday
250,22.489706533360103
251,6805218.10064485
336,0.0
385,22.50333333333335
386,26.69000000000002
387,0.1681316684081781
388,0.0
425,0.0
450,0.0
451,0.0
452,4.070509734764955
453,0.0
490,0.0
515,0.0
516,0.0
542,0.0
592,2980737.3008564766
632,3712557.3964492525
686,0.6724529754707549
687,0.3333333333333336
688,1.3333333333333344
2,21, 1,21, 0,10,50.00,60.00,Sunday
250,22.4878201966634
251,6697913.362892391
336,0.0
385,22.50333333333335
386,26.69000000000002
387,0.3241494992819832
388,0.0
425,0.0
450,0.0
451,0.0
452,4.827176251633502
453,0.0
490,0.0
515,0.0
516,0.0
542,0.0
592,2923986.0985950483
632,3672925.4052851917
686,0.6521439549176963
687,0.3333333333333336
688,1.3333333333333344
2,21, 1,21, 0,11, 0.00,10.00,Sunday
250,22.4859868659282
251,6591862.356212991
336,0.0
385,22.503333333333337
386,26.69
387,0.4941181194655023
388,0.0
425,0.0
450,0.0
451,0.0
452,5.648138228731469
453,0.0
490,0.0
515,0.0
516,0.0
542,0.0
592,2862668.5331121706
632,3638684.7409731285
686,0.6330395223596564
687,0.3333333333333333
688,1.3333333333333335
2,21, 1,21, 0,11,10.00,20.00,Sunday
250,22.484123929725804
251,6483019.385840794
336,0.0
385,22.503333333333334
386,26.689999999999998
387,0.6755157034393211
388,0.0
425,0.0
450,0.0
451,0.0
452,6.514384264316961
453,0.0
490,0.0
515,0.0
516,0.0
542,0.0
592,2800015.0359651116
632,3603126.7407317953
686,0.6137159890945927
687,0.33333333333333337
688,1.3333333333333333
2,21, 1,21, 0,11,20.00,30.00,Sunday
250,22.26998530184222
251,5629507.743679522
336,0.0
385,22.17
386,26.69
387,0.8258336062652323
388,0.0
425,0.0
450,0.0
451,0.0
452,7.2866782344769785
453,0.0
490,0.0
515,0.0
516,0.0
542,0.0
592,3935593.3428463414
632,1538693.0063315686
686,0.75
687,0.75
688,1.5
2,21, 1,21, 0,11,30.00,40.00,Sunday
250,22.22096462370979
251,6160472.619718249
336,0.0
385,22.17
386,26.69
387,1.0589661728588777
388,0.0
425,0.0
450,0.0
451,0.0
452,8.310717352542964
453,0.0
490,0.0
515,0.0
516,0.0
542,0.0
592,3153403.898309578
632,2927520.62886392
686,0.6368880508794221
687,0.5
688,1.25
2,21, 1,21, 0,11,40.00,50.00,Sunday
250,22.22408694693702
251,5990614.627219252
336,0.0
385,22.17
386,26.69
387,1.2877093979235195
388,0.0
425,0.0
450,0.0
451,0.0
452,9.18288321562391
453,0.0
490,0.0
515,0.0
516,0.0
542,0.0
592,3163988.662140065
632,2751326.475527582
686,0.6367385391420104
687,0.5
688,1.25
2,21, 1,21, 0,11,50.00,60.00,Sunday
250,22.47939706825657
251,4716287.979162462
336,0.0
385,22.50333333333335
386,26.69000000000002
387,1.4654365372859166
388,0.0
425,0.0
450,0.0
451,0.0
452,9.831608273723647
453,0.0
490,0.0
515,0.0
516,0.0
542,0.0
592,3491161.9022211153
632,1220303.8675381665
686,0.6666666666666672
687,0.6368712518413778
688,1.3333333333333344
2,21, 1,21, 0,12, 0.00,10.00,Sunday
250,22.109350939405672
251,4805148.229509374
336,0.0
385,21.970000000000006
386,26.690000000000005
387,1.642042614318491
388,0.0
425,0.0
450,0.0
451,0.0
452,10.396789350930707
453,0.0
490,0.0
515,0.0
516,0.0
542,0.0
592,2426568.811060951
632,2432334.9847019566
686,0.47877805311052135
687,0.4
688,1.0
2,21, 1,21, 0,12,10.00,20.00,Sunday
250,22.434258682861685
251,6475146.713458569
336,0.0
385,22.503333333333334
386,26.689999999999998
387,1.8289565188634498
388,0.0
425,0.0
450,0.0
451,0.0
452,10.888814506833443
453,0.0
490,0.0
515,0.0
516,0.0
542,0.0
592,3786710.599543008
632,2739666.7467415673
686,0.8563114251762132
687,0.33333333333333337
688,1.3333333333333333
2,21, 1,21, 0,12,20.00,30.00,Sunday
250,22.538776966798892
251,4718867.657194506
336,0.0
385,22.503333333333327
386,26.68999999999999
387,2.0821313632969627
388,0.0
425,0.0
450,0.0
451,0.0
452,11.386426352191485
453,0.0
490,0.0
515,0.0
516,0.0
542,0.0
592,3549656.070098671
632,1126398.90224326
686,0.6666666666666664
687,0.6666666666666664
688,1.3333333333333328
2,21, 1,21, 0,12,30.00,40.00,Sunday
250,22.132377438246785
251,4625108.781295774
336,0.0
385,21.969999999999995
386,26.689999999999994
387,2.2265831150761555
388,0.0
425,0.0
450,0.0
451,0.0
452,11.597851341535788
453,0.0
490,0.0
515,0.0
516,0.0
542,0.0
592,2380608.5375397312
632,2292724.5198216774
686,0.46420037546005777
687,0.3999999999999997
688,0.9999999999999993
2,21, 1,21, 0,12,40.00,50.00,Sunday
250,22.433238209421916
251,6314513.3850063
336,0.0
385,22.50333333333335
386,26.69000000000002
387,2.362640318291334
388,0.0
425,0.0
450,0.0
451,0.0
452,11.696904497518947
453,0.0
490,0.0
515,0.0
516,0.0
542,0.0
592,3683995.5942060277
632,2689788.416776353
686,0.8257248620062553
687,0.3333333333333336
688,1.3333333333333344
2,21, 1,21, 0,12,50.00,60.00,Sunday
250,22.5468565906844
251,4639699.063856589
336,0.0
385,22.50333333333335
386,26.69000000000002
387,2.5333620640528656
388,0.0
425,0.0
450,0.0
451,0.0
452,11.694140670467693
453,0.0
490,0.0
515,0.0
516,0.0
542,0.0
592,3564423.3185739997
632,1032594.7297071274
686,0.6666666666666672
687,0.6666666666666672
688,1.3333333333333344
2,21, 1,21, 0,13, 0.00,10.00,Sunday
250,22.142747071285356
251,4523465.966022255
336,0.0
385,21.970000000000006
386,26.690000000000005
387,2.624043465952152
388,0.0
425,0.0
450,0.0
451,0.0
452,11.602276902838714
453,0.0
490,0.0
515,0.0
516,0.0
542,0.0
592,2354344.0571779083
632,2215602.2257079254
686,0.4561120515139679
687,0.4
688,1.0
2,21, 1,21, 0,13,10.00,20.00,Sunday
250,22.431613965660656
251,6138356.80808955
336,0.0
385,22.503333333333334
386,26.689999999999998
387,2.7084540851264096
388,0.0
425,0.0
450,0.0
451,0.0
452,11.509965153648249
453,0.0
490,0.0
515,0.0
516,0.0
542,0.0
592,3567477.5026595877
632,2639421.3007878787
686,0.7956457114395257
687,0.33333333333333337
688,1.3333333333333333
2,21, 1,21, 0,13,20.00,30.00,Sunday
250,22.564969205128044
251,4486742.382955672
336,0.0
385,22.503333333333327
386,26.68999999999999
387,2.8170051623473906
388,0.0
425,0.0
450,0.0
451,0.0
452,11.422046450631342
453,0.0
490,0.0
515,0.0
516,0.0
542,0.0
592,3556910.670178829
632,887370.2079145275
686,0.6666666666666664
687,0.6666666666666664
688,1.3333333333333328
2,21, 1,21, 0,13,30.00,40.00,Sunday
250,22.16121306138069
251,4360121.822168039
336,0.0
385,21.969999999999995
386,26.689999999999994
387,2.8824597195069304
388,0.0
425,0.0
450,0.0
451,0.0
452,11.394508710407917
453,0.0
490,0.0
515,0.0
516,0.0
542,0.0
592,2302725.070931506
632,2100281.427298007
686,0.4439846835622646
687,0.3999999999999997
688,0.9999999999999993
2,21, 1,21, 0,13,40.00,50.00,Sunday
250,22.42990426907858
251,5925871.921550744
336,0.0
385,22.50333333333335
386,26.69000000000002
387,2.949929362198392
388,0.0
425,0.0
450,0.0
451,0.0
452,11.377930217962954
453,0.0
490,0.0
515,0.0
516,0.0
542,0.0
592,3418184.306897766
632,2588126.4079584586
686,0.7589549799042543
687,0.3333333333333336
688,1.3333333333333344
2,21, 1,21, 0,13,50.00,60.00,Sunday
250,22.581698366138646
251,4345545.184351209
336,0.0
385,22.50333333333335
386,26.69000000000002
387,3.0425170115497195
388,0.0
425,0.0
450,0.0
451,0.0
452,11.36304345630002
453,0.0
490,0.0
515,0.0
516,0.0
542,0.0
592,3549390.3736070963
632,753950.4394549466
686,0.6666666666666672
687,0.6666666666666672
688,1.3333333333333344
2,21, 1,21, 0,14, 0.00,10.00,Sunday
250,22.175970699698418
251,4232425.919605839
336,0.0
385,21.970000000000006
386,26.690000000000005
387,3.1042278863435797
388,0.0
425,0.0
450,0.0
451,0.0
452,11.322358997148111
453,0.0
490,0.0
515,0.0
516,0.0
542,0.0
592,2266593.2737396015
632,2005805.2099556641
686,0.4342653548035296
687,0.39968680508595317
688,1.0
2,21, 1,21, 0,14,10.00,20.00,Sunday
250,22.428716768850112
251,5795365.678105389
336,0.0
385,22.503333333333334
386,26.689999999999998
387,3.168037636489813
388,0.0
425,0.0
450,0.0
451,0.0
452,11.21794466977698
453,0.0
490,0.0
515,0.0
516,0.0
542,0.0
592,3333106.398075984
632,2551102.189983918
686,0.7334992390442614
687,0.33333333333333337
688,1.3333333333333333
2,21, 1,21, 0,14,20.00,30.00,Sunday
250,22.589770076209966
251,4277760.368698892
336,0.0
385,22.503333333333327
386,26.68999999999999
387,3.2521642292552784
388,0.0
425,0.0
450,0.0
451,0.0
452,11.016539338189641
453,0.0
490,0.0
515,0.0
516,0.0
542,0.0
592,3572787.6990439105
632,662939.1316523507
686,0.6666666666666664
687,0.6666666666666664
688,1.3333333333333328
2,21, 1,21, 0,14,30.00,40.00,Sunday
250,22.182854773363815