Program Version,EnergyPlus, Version 24.2.0-94a887817b, YMD=2025.02.04 17:10
1,5,Environment Title[],Latitude[deg],Longitude[deg],Time Zone[],Elevation[m]
2,8,Day of Simulation[],Month[],Day of Month[],DST Indicator[1=yes 0=no],Hour[],StartMinute[],EndMinute[],DayType
3,5,Cumulative Day of Simulation[],Month[],Day of Month[],DST Indicator[1=yes 0=no],DayType  ! When Daily Meters Requested
4,2,Cumulative Days of Simulation[],Month[]  ! When Monthly Meters Requested
5,1,Cumulative Days of Simulation[] ! When Run Period Meters Requested
6,1,Calendar Year of Simulation[] ! When Annual Meters Requested
11,9,Electricity:Facility [J] !Monthly [Value,Min,Day,Hour,Minute,Max,Day,Hour,Minute]
23,9,Electricity:Building [J] !Monthly [Value,Min,Day,Hour,Minute,Max,Day,Hour,Minute]
59,9,InteriorLights:Electricity [J] !Monthly [Value,Min,Day,Hour,Minute,Max,Day,Hour,Minute]
521,9,Electricity:HVAC [J] !Monthly [Value,Min,Day,Hour,Minute,Max,Day,Hour,Minute]
637,9,NaturalGas:Facility [J] !Monthly [Value,Min,Day,Hour,Minute,Max,Day,Hour,Minute]
649,9,NaturalGas:HVAC [J] !Monthly [Value,Min,Day,Hour,Minute,Max,Day,Hour,Minute]
13,11,Electricity:Facility [J] !RunPeriod [Value,Min,Month,Day,Hour,Minute,Max,Month,Day,Hour,Minute]
25,11,Electricity:Building [J] !RunPeriod [Value,Min,Month,Day,Hour,Minute,Max,Month,Day,Hour,Minute]
61,11,InteriorLights:Electricity [J] !RunPeriod [Value,Min,Month,Day,Hour,Minute,Max,Month,Day,Hour,Minute]
523,11,Electricity:HVAC [J] !RunPeriod [Value,Min,Month,Day,Hour,Minute,Max,Month,Day,Hour,Minute]
639,11,NaturalGas:Facility [J] !RunPeriod [Value,Min,Month,Day,Hour,Minute,Max,Month,Day,Hour,Minute]
651,11,NaturalGas:HVAC [J] !RunPeriod [Value,Min,Month,Day,Hour,Minute,Max,Month,Day,Hour,Minute]
End of Data Dictionary
1,YEARSIMULATION,  41.98, -87.92,  -6.00, 201.00
4,31, 1
11,8306693223.586483,242782.21512984025,10,19,30,3532187.8489422253,26,16,20
23,1954757304.2565598,105898.6892759485,11,20,50,1090877.916075808,30,13,60
59,1021442479.0156673,31584.492239197614, 1, 1,10,631689.8447839522, 1, 8,10
521,6351935919.329951,0.0,11,13,30,2513649.669716689,27,20,50
637,14586121621.929218,0.0, 1, 9,60,19085197.67798741,31, 7,50
649,14586121621.929218,0.0, 1, 9,60,19085197.67798741,31, 7,50
4,59, 2
11,6784531278.7710285,99999999999999.0,10,19,30,-99999999999999.0,26,16,20
23,1723061678.0996814,99999999999999.0,11,20,50,1090984.9211212455, 1, 9,10
59,892956764.586601,99999999999999.0, 1, 1,10,-99999999999999.0, 1, 8,10
521,5061469600.671323,99999999999999.0,11,13,30,-99999999999999.0,27,20,50
637,11790305847.310764,99999999999999.0, 1, 9,60,19728573.28265497, 3, 7,60
649,11790305847.310764,99999999999999.0, 1, 9,60,19728573.28265497, 3, 7,60
4,90, 3
11,6649247763.110889,92990.26001415298,31,16,60,-99999999999999.0,26,16,20
23,1873682524.5548186,92990.26001415298,31,16,60,-99999999999999.0, 1, 9,10
59,983162074.4217556,99999999999999.0, 1, 1,10,-99999999999999.0, 1, 8,10
521,4775565238.556073,99999999999999.0,11,13,30,-99999999999999.0,27,20,50
637,8579600147.476279,99999999999999.0, 1, 9,60,-99999999999999.0, 3, 7,60
649,8579600147.476279,99999999999999.0, 1, 9,60,-99999999999999.0, 3, 7,60
4,120, 4
11,4102139149.134028,31584.492239197614, 5, 2,20,-99999999999999.0,26,16,20
23,1690544544.2967694,31584.492239197614, 5, 1,40,-99999999999999.0, 1, 9,10
59,940333502.945407,99999999999999.0, 1, 1,10,-99999999999999.0, 1, 8,10
521,2411594604.8372583,99999999999999.0,11,13,30,-99999999999999.0,27,20,50
637,3327349899.1024485,99999999999999.0, 1, 9,60,-99999999999999.0, 3, 7,60
649,3327349899.1024485,99999999999999.0, 1, 9,60,-99999999999999.0, 3, 7,60
4,151, 5
11,3318569659.705049,99999999999999.0, 5, 2,20,-99999999999999.0,26,16,20
23,1722191319.9437773,99999999999999.0, 5, 1,40,-99999999999999.0, 1, 9,10
59,1021442479.0156673,99999999999999.0, 1, 1,10,-99999999999999.0, 1, 8,10
521,1596378339.7613072,99999999999999.0,11,13,30,-99999999999999.0,27,20,50
637,669111291.225818,99999999999999.0, 1, 9,60,-99999999999999.0, 3, 7,60
649,669111291.225818,99999999999999.0, 1, 9,60,-99999999999999.0, 3, 7,60
4,181, 6
11,3430148597.5445466,99999999999999.0, 5, 2,20,-99999999999999.0,26,16,20
23,1500741059.4664333,99999999999999.0, 5, 1,40,-99999999999999.0, 1, 9,10
59,940333502.9454005,99999999999999.0, 1, 1,10,-99999999999999.0, 1, 8,10
521,1929407538.0781434,99999999999999.0,11,13,30,-99999999999999.0,27,20,50
637,29495367.030903358,99999999999999.0, 1, 9,60,-99999999999999.0, 3, 7,60
649,29495367.030903358,99999999999999.0, 1, 9,60,-99999999999999.0, 3, 7,60
4,212, 7
11,4232036465.992044,99999999999999.0, 5, 2,20,-99999999999999.0,26,16,20
23,1494487915.0053647,99999999999999.0, 5, 1,40,-99999999999999.0, 1, 9,10
59,983162074.4217592,99999999999999.0, 1, 1,10,-99999999999999.0, 1, 8,10
521,2737548550.9867554,99999999999999.0,11,13,30,-99999999999999.0,27,20,50
637,0.0,99999999999999.0, 1, 9,60,-99999999999999.0, 3, 7,60
649,0.0,99999999999999.0, 1, 9,60,-99999999999999.0, 3, 7,60
4,243, 8
11,3891613623.265117,99999999999999.0, 5, 2,20,-99999999999999.0,26,16,20
23,1572493570.5066764,99999999999999.0, 5, 1,40,-99999999999999.0, 1, 9,10
59,1021442479.0156653,99999999999999.0, 1, 1,10,-99999999999999.0, 1, 8,10
521,2319120052.758503,99999999999999.0,11,13,30,-99999999999999.0,27,20,50
637,4247211.854300739,99999999999999.0, 1, 9,60,-99999999999999.0, 3, 7,60
649,4247211.854300739,99999999999999.0, 1, 9,60,-99999999999999.0, 3, 7,60
4,273, 9
11,2945687950.432294,99999999999999.0, 5, 2,20,-99999999999999.0,26,16,20
23,1474882658.7917714,99999999999999.0, 5, 1,40,-99999999999999.0, 1, 9,10
59,902053098.3515029,99999999999999.0, 1, 1,10,-99999999999999.0, 1, 8,10
521,1470805291.6405334,99999999999999.0,11,13,30,-99999999999999.0,27,20,50
637,38882508.8518438,99999999999999.0, 1, 9,60,-99999999999999.0, 3, 7,60
649,38882508.8518438,99999999999999.0, 1, 9,60,-99999999999999.0, 3, 7,60
4,304,10
11,3451382925.758849,99999999999999.0, 5, 2,20,-99999999999999.0,26,16,20
23,1781029569.6752396,99999999999999.0, 5, 1,40,-99999999999999.0, 1, 9,10
59,1021442479.0156673,99999999999999.0, 1, 1,10,-99999999999999.0, 1, 8,10
521,1670353356.0836153,99999999999999.0,11,13,30,-99999999999999.0,27,20,50
637,1573192188.9588397,99999999999999.0, 1, 9,60,-99999999999999.0, 3, 7,60
649,1573192188.9588397,99999999999999.0, 1, 9,60,-99999999999999.0, 3, 7,60
4,334,11
11,5614772748.44836,99999999999999.0, 5, 2,20,-99999999999999.0,26,16,20
23,1811020865.4905567,99999999999999.0, 5, 1,40,-99999999999999.0, 1, 9,10
59,978613907.5393054,99999999999999.0, 1, 1,10,-99999999999999.0, 1, 8,10
521,3803751882.957802,99999999999999.0,11,13,30,-99999999999999.0,27,20,50
637,6997712020.359573,99999999999999.0, 1, 9,60,-99999999999999.0, 3, 7,60
649,6997712020.359573,99999999999999.0, 1, 9,60,-99999999999999.0, 3, 7,60
4,365,12
11,6921557533.112634,99999999999999.0, 5, 2,20,-99999999999999.0,26,16,20
23,1792274396.764744,99999999999999.0, 5, 1,40,-99999999999999.0, 1, 9,10
59,944881669.8278551,99999999999999.0, 1, 1,10,-99999999999999.0, 1, 8,10
521,5129283136.347922,99999999999999.0,11,13,30,-99999999999999.0,27,20,50
637,9024286117.386963,99999999999999.0, 1, 9,60,-99999999999999.0, 3, 7,60
649,9024286117.386963,99999999999999.0, 1, 9,60,-99999999999999.0, 3, 7,60
5,365
13,59648380918.86255,31584.492239197614, 4, 5, 2,20,3532187.8489422253, 1,26,16,20
25,20391167406.848877,31584.492239197614, 4, 5, 1,40,1090984.9211212455, 2, 1, 9,10
61,11651266511.09433,31584.492239197614, 1, 1, 1,10,631689.8447839522, 1, 1, 8,10
523,39257213512.00929,0.0, 1,11,13,30,2513649.669716689, 1,27,20,50
639,56620304221.487206,0.0, 1, 1, 9,60,19728573.28265497, 2, 3, 7,60
651,56620304221.487206,0.0, 1, 1, 9,60,19728573.28265497, 2, 3, 7,60
End of Data
 Number of Records Written=          78
