Program Version,EnergyPlus, Version 24.2.0-94a887817b, YMD=2025.02.12 11:46
1,5,Environment Title[],Latitude[deg],Longitude[deg],Time Zone[],Elevation[m]
2,8,Day of Simulation[],Month[],Day of Month[],DST Indicator[1=yes 0=no],Hour[],StartMinute[],EndMinute[],DayType
3,5,Cumulative Day of Simulation[],Month[],Day of Month[],DST Indicator[1=yes 0=no],DayType  ! When Daily Meters Requested
4,2,Cumulative Days of Simulation[],Month[]  ! When Monthly Meters Requested
5,1,Cumulative Days of Simulation[] ! When Run Period Meters Requested
6,1,Calendar Year of Simulation[] ! When Annual Meters Requested
11,9,Electricity:Facility [J] !Monthly [Value,Min,Day,Hour,Minute,Max,Day,Hour,Minute]
23,9,Electricity:Building [J] !Monthly [Value,Min,Day,Hour,Minute,Max,Day,Hour,Minute]
59,9,InteriorLights:Electricity [J] !Monthly [Value,Min,Day,Hour,Minute,Max,Day,Hour,Minute]
521,9,Electricity:HVAC [J] !Monthly [Value,Min,Day,Hour,Minute,Max,Day,Hour,Minute]
637,9,NaturalGas:Facility [J] !Monthly [Value,Min,Day,Hour,Minute,Max,Day,Hour,Minute]
649,9,NaturalGas:HVAC [J] !Monthly [Value,Min,Day,Hour,Minute,Max,Day,Hour,Minute]
13,11,Electricity:Facility [J] !RunPeriod [Value,Min,Month,Day,Hour,Minute,Max,Month,Day,Hour,Minute]
25,11,Electricity:Building [J] !RunPeriod [Value,Min,Month,Day,Hour,Minute,Max,Month,Day,Hour,Minute]
61,11,InteriorLights:Electricity [J] !RunPeriod [Value,Min,Month,Day,Hour,Minute,Max,Month,Day,Hour,Minute]
523,11,Electricity:HVAC [J] !RunPeriod [Value,Min,Month,Day,Hour,Minute,Max,Month,Day,Hour,Minute]
639,11,NaturalGas:Facility [J] !RunPeriod [Value,Min,Month,Day,Hour,Minute,Max,Month,Day,Hour,Minute]
651,11,NaturalGas:HVAC [J] !RunPeriod [Value,Min,Month,Day,Hour,Minute,Max,Month,Day,Hour,Minute]
End of Data Dictionary
1,RUN PERIOD 1,  41.98, -87.92,  -6.00, 201.00
4,31, 1
11,9373484145.906258,357655.35750825854,11,19,10,3527502.5603035293,23,14,10
23,1873378472.8633373,109013.4248753103,11,20,50,1032216.9186584936,30,13,60
59,896670786.9298034,27726.369416506805, 1, 1,10,554527.3883301361, 1, 8,10
521,7500105673.042948,0.0,11,13,50,2576111.998828902,27,19,60
637,17606001155.05521,0.0, 1, 8,30,21151930.39250477,31, 7,60
649,17606001155.05521,0.0, 1, 8,30,21151930.39250477,31, 7,60
4,59, 2
11,7848590334.255363,297777.3939422618, 9,15,60,-99999999999999.0,23,14,10
23,1652847446.487576,99999999999999.0,11,20,50,-99999999999999.0,30,13,60
59,783879916.143474,99999999999999.0, 1, 1,10,-99999999999999.0, 1, 8,10
521,6195742887.767796,99999999999999.0,11,13,50,2614078.2479472393, 5, 2,20
637,14052964105.63836,99999999999999.0, 1, 8,30,21740712.000652276, 3, 8,30
649,14052964105.63836,99999999999999.0, 1, 8,30,21740712.000652276, 3, 8,30
4,90, 3
11,7838705629.541399,94111.2367707264,31,16,60,-99999999999999.0,23,14,10
23,1743308785.551551,94111.2367707264,31,16,60,1041378.6959743239,18, 9,60
59,829462067.464198,99999999999999.0, 1, 1,10,-99999999999999.0, 1, 8,10
521,6095396843.989855,99999999999999.0,11,13,50,-99999999999999.0, 5, 2,20
637,10489554502.908148,99999999999999.0, 1, 8,30,-99999999999999.0, 3, 8,30
649,10489554502.908148,99999999999999.0, 1, 8,30,-99999999999999.0, 3, 8,30
4,120, 4
11,4653344836.506415,27726.369416506805,12,19,20,-99999999999999.0,23,14,10
23,1682067609.302798,27726.369416506805,12,19,10,-99999999999999.0,18, 9,60
59,859073830.0010242,99999999999999.0, 1, 1,10,-99999999999999.0, 1, 8,10
521,2971277227.203624,99999999999999.0,11,13,50,-99999999999999.0, 5, 2,20
637,4408124896.80723,99999999999999.0, 1, 8,30,-99999999999999.0, 3, 8,30
649,4408124896.80723,99999999999999.0, 1, 8,30,-99999999999999.0, 3, 8,30
4,151, 5
11,3149174010.769221,99999999999999.0,12,19,20,-99999999999999.0,23,14,10
23,1668426591.7375531,99999999999999.0,12,19,10,-99999999999999.0,18, 9,60
59,896670786.9298197,99999999999999.0, 1, 1,10,-99999999999999.0, 1, 8,10
521,1480747419.0316546,99999999999999.0,11,13,50,-99999999999999.0, 5, 2,20
637,1177701677.5607598,99999999999999.0, 1, 8,30,-99999999999999.0, 3, 8,30
649,1177701677.5607598,99999999999999.0, 1, 8,30,-99999999999999.0, 3, 8,30
4,181, 6
11,2781870987.479815,99999999999999.0,12,19,20,-99999999999999.0,23,14,10
23,1414199068.236658,99999999999999.0,12,19,10,-99999999999999.0,18, 9,60
59,791865110.5354195,99999999999999.0, 1, 1,10,-99999999999999.0, 1, 8,10
521,1367671919.2431235,99999999999999.0,11,13,50,-99999999999999.0, 5, 2,20
637,85642324.75047696,99999999999999.0, 1, 8,30,-99999999999999.0, 3, 8,30
649,85642324.75047696,99999999999999.0, 1, 8,30,-99999999999999.0, 3, 8,30
4,212, 7
11,3495998288.194445,99999999999999.0,12,19,20,-99999999999999.0,23,14,10
23,1527530932.6188405,99999999999999.0,12,19,10,-99999999999999.0,18, 9,60
59,896670786.9298034,99999999999999.0, 1, 1,10,-99999999999999.0, 1, 8,10
521,1968467355.5755687,99999999999999.0,11,13,50,-99999999999999.0, 5, 2,20
637,5285401.372758521,99999999999999.0, 1, 8,30,-99999999999999.0, 3, 8,30
649,5285401.372758521,99999999999999.0, 1, 8,30,-99999999999999.0, 3, 8,30
4,243, 8
11,3080806766.297162,99999999999999.0,12,19,20,-99999999999999.0,23,14,10
23,1506049687.9721143,99999999999999.0,12,19,10,-99999999999999.0,18, 9,60
59,863066427.197013,99999999999999.0, 1, 1,10,-99999999999999.0, 1, 8,10
521,1574757078.3250206,99999999999999.0,11,13,50,-99999999999999.0, 5, 2,20
637,20850939.750559725,99999999999999.0, 1, 8,30,-99999999999999.0, 3, 8,30
649,20850939.750559725,99999999999999.0, 1, 8,30,-99999999999999.0, 3, 8,30
4,273, 9
11,2574122687.3667703,99999999999999.0,12,19,20,-99999999999999.0,23,14,10
23,1492077651.5993898,99999999999999.0,12,19,10,-99999999999999.0,18, 9,60
59,825469470.2682219,99999999999999.0, 1, 1,10,-99999999999999.0, 1, 8,10
521,1082045035.7673733,99999999999999.0,11,13,50,-99999999999999.0, 5, 2,20
637,101323263.36885737,99999999999999.0, 1, 8,30,-99999999999999.0, 3, 8,30
649,101323263.36885737,99999999999999.0, 1, 8,30,-99999999999999.0, 3, 8,30
4,304,10
11,3659517175.6005855,99999999999999.0,12,19,20,-99999999999999.0,23,14,10
23,1707918656.5483663,99999999999999.0,12,19,10,-99999999999999.0,18, 9,60
59,896670786.9298034,99999999999999.0, 1, 1,10,-99999999999999.0, 1, 8,10
521,1951598519.052207,99999999999999.0,11,13,50,-99999999999999.0, 5, 2,20
637,2427861425.7107887,99999999999999.0, 1, 8,30,-99999999999999.0, 3, 8,30
649,2427861425.7107887,99999999999999.0, 1, 8,30,-99999999999999.0, 3, 8,30
4,334,11
11,6506657072.110668,99999999999999.0,12,19,20,-99999999999999.0,23,14,10
23,1679921097.72637,99999999999999.0,12,19,10,-99999999999999.0,18, 9,60
59,825469470.2682256,99999999999999.0, 1, 1,10,-99999999999999.0, 1, 8,10
521,4826735974.384307,99999999999999.0,11,13,50,-99999999999999.0, 5, 2,20
637,8950010515.739174,99999999999999.0, 1, 8,30,-99999999999999.0, 3, 8,30
649,8950010515.739174,99999999999999.0, 1, 8,30,-99999999999999.0, 3, 8,30
4,365,12
11,8229805980.440436,99999999999999.0,12,19,20,3536967.794210195,18,12,10
23,1771661714.4242046,99999999999999.0,12,19,10,-99999999999999.0,18, 9,60
59,863066427.197001,99999999999999.0, 1, 1,10,-99999999999999.0, 1, 8,10
521,6458144266.016244,99999999999999.0,11,13,50,-99999999999999.0, 5, 2,20
637,10636592159.393276,99999999999999.0, 1, 8,30,-99999999999999.0, 3, 8,30
649,10636592159.393276,99999999999999.0, 1, 8,30,-99999999999999.0, 3, 8,30
5,365
13,63192077914.46784,27726.369416506805, 4,12,19,20,3536967.794210195,12,18,12,10
25,19719387715.07186,27726.369416506805, 4,12,19,10,1041378.6959743239, 3,18, 9,60
61,10228035866.797722,27726.369416506805, 1, 1, 1,10,554527.3883301361, 1, 1, 8,10
523,43472690199.39979,0.0, 1,11,13,50,2614078.2479472393, 2, 5, 2,20
639,69961912368.05536,0.0, 1, 1, 8,30,21740712.000652276, 2, 3, 8,30
651,69961912368.05536,0.0, 1, 1, 8,30,21740712.000652276, 2, 3, 8,30
1,RUN PERIOD 2,  41.98, -87.92,  -6.00, 201.00
4,1, 7
11,105251874.63887088,99999999999999.0,12,19,20,-99999999999999.0,18,12,10
23,64209640.065701015,99999999999999.0,12,19,10,-99999999999999.0,18, 9,60
59,37596956.92878313,99999999999999.0, 1, 1,10,-99999999999999.0, 1, 8,10
521,41042234.57316981,99999999999999.0,11,13,50,-99999999999999.0, 5, 2,20
637,0.0,99999999999999.0, 1, 8,30,-99999999999999.0, 3, 8,30
649,0.0,99999999999999.0, 1, 8,30,-99999999999999.0, 3, 8,30
5,1
13,105251874.63887088,99999999999999.0, 4,12,19,20,-99999999999999.0,12,18,12,10
25,64209640.065701015,99999999999999.0, 4,12,19,10,-99999999999999.0, 3,18, 9,60
61,37596956.92878313,99999999999999.0, 1, 1, 1,10,-99999999999999.0, 1, 1, 8,10
523,41042234.57316981,99999999999999.0, 1,11,13,50,-99999999999999.0, 2, 5, 2,20
639,0.0,99999999999999.0, 1, 1, 8,30,-99999999999999.0, 2, 3, 8,30
651,0.0,99999999999999.0, 1, 1, 8,30,-99999999999999.0, 2, 3, 8,30
End of Data
 Number of Records Written=          90
