Program Version,EnergyPlus, Version 24.2.0-94a887817b, YMD=2025.02.12 11:46
1,5,Environment Title[],Latitude[deg],Longitude[deg],Time Zone[],Elevation[m]
2,8,Day of Simulation[],Month[],Day of Month[],DST Indicator[1=yes 0=no],Hour[],StartMinute[],EndMinute[],DayType
3,5,Cumulative Day of Simulation[],Month[],Day of Month[],DST Indicator[1=yes 0=no],DayType  ! When Daily Report Variables Requested
4,2,Cumulative Days of Simulation[],Month[]  ! When Monthly Report Variables Requested
5,1,Cumulative Days of Simulation[] ! When Run Period Report Variables Requested
6,1,Calendar Year of Simulation[] ! When Annual Report Variables Requested
250,1,LIVING ZONE,Zone Air Temperature [C] !TimeStep,REPORTSCH
251,1,LIVING ZONE,Zone Air System Sensible Heating Energy [J] !TimeStep,REPORTSCH
336,1,LIVING ZONE,Zone Air System Sensible Cooling Energy [J] !TimeStep,REPORTSCH
385,1,LIVING ZONE,Zone Thermostat Heating Setpoint Temperature [C] !TimeStep,REPORTSCH
386,1,LIVING ZONE,Zone Thermostat Cooling Setpoint Temperature [C] !TimeStep,REPORTSCH
387,1,GARAGE ZONE,Zone Air Temperature [C] !TimeStep,REPORTSCH
388,1,GARAGE ZONE,Zone Air System Sensible Heating Energy [J] !TimeStep,REPORTSCH
425,1,GARAGE ZONE,Zone Air System Sensible Cooling Energy [J] !TimeStep,REPORTSCH
450,1,GARAGE ZONE,Zone Thermostat Heating Setpoint Temperature [C] !TimeStep,REPORTSCH
451,1,GARAGE ZONE,Zone Thermostat Cooling Setpoint Temperature [C] !TimeStep,REPORTSCH
452,1,ATTIC ZONE,Zone Air Temperature [C] !TimeStep,REPORTSCH
453,1,ATTIC ZONE,Zone Air System Sensible Heating Energy [J] !TimeStep,REPORTSCH
490,1,ATTIC ZONE,Zone Air System Sensible Cooling Energy [J] !TimeStep,REPORTSCH
515,1,ATTIC ZONE,Zone Thermostat Heating Setpoint Temperature [C] !TimeStep,REPORTSCH
516,1,ATTIC ZONE,Zone Thermostat Cooling Setpoint Temperature [C] !TimeStep,REPORTSCH
542,1,ACDXCOIL 1,Cooling Coil Total Cooling Energy [J] !TimeStep,REPORTSCH
592,1,HEAT PUMP DX HEATING COIL 1,Heating Coil Heating Energy [J] !TimeStep,REPORTSCH
632,1,SUPP HEATING COIL 1,Heating Coil Heating Energy [J] !TimeStep,REPORTSCH
686,1,TWOSPEED HEAT PUMP 1,Unitary System DX Coil Cycling Ratio [] !TimeStep,REPORTSCH
687,1,TWOSPEED HEAT PUMP 1,Unitary System DX Coil Speed Ratio [] !TimeStep,REPORTSCH
688,1,TWOSPEED HEAT PUMP 1,Unitary System DX Coil Speed Level [] !TimeStep,REPORTSCH
End of Data Dictionary
1,RUN PERIOD 1,  41.98, -87.92,  -6.00, 201.00
2,21, 1,21, 0, 1, 0.00,10.00,Monday
250,23.782762736071465
251,6314010.201398748
336,0.0
385,23.576666666666668
386,27.640000000000004
387,0.6582622285077531
388,0.0
425,0.0
450,0.0
451,0.0
452,-1.587024001629505
453,0.0
490,0.0
515,0.0
516,0.0
542,0.0
592,2702719.449944936
632,3523677.371707781
686,0.5751530584798983
687,0.5
688,1.1666666666666667
2,21, 1,21, 0, 1,10.00,20.00,Monday
250,24.209753738935717
251,6200008.044444142
336,0.0
385,24.243333333333332
386,27.64
387,0.6321774284987273
388,0.0
425,0.0
450,0.0
451,0.0
452,-1.5765342373118654
453,0.0
490,0.0
515,0.0
516,0.0
542,0.0
592,3558636.940425006
632,2570088.3317242414
686,0.7574759938701926
687,0.6666666666666667
688,1.6666666666666667
2,21, 1,21, 0, 1,20.00,30.00,Monday
250,24.447374469767862
251,7400487.0996155655
336,0.0
385,24.91
386,27.64
387,0.6016107509310793
388,0.0
425,0.0
450,0.0
451,0.0
452,-1.5660822815651387
453,0.0
490,0.0
515,0.0
516,0.0
542,0.0
592,4846035.850533319
632,3089499.0149518033
686,1.0
687,1.0
688,2.0
2,21, 1,21, 0, 1,30.00,40.00,Monday
250,24.86614277754472
251,8521990.77592271
336,0.0
385,24.91
386,27.64
387,0.5751134308857816
388,0.0
425,0.0
450,0.0
451,0.0
452,-1.559631318770073
453,0.0
490,0.0
515,0.0
516,0.0
542,0.0
592,4828658.3772280915
632,3555666.5058625527
686,1.0
687,1.0
688,2.0
2,21, 1,21, 0, 1,40.00,50.00,Monday
250,23.77953428958527
251,6377138.682563959
336,0.0
385,23.576666666666632
386,27.639999999999965
387,0.5530885921525818
388,0.0
425,0.0
450,0.0
451,0.0
452,-1.556772023847567
453,0.0
490,0.0
515,0.0
516,0.0
542,0.0
592,2681549.287832019
632,3608919.124521098
686,0.5791567962124856
687,0.49999999999999933
688,1.166666666666665
2,21, 1,21, 0, 1,50.00,60.00,Monday
250,24.211046734980705
251,6270215.89703505
336,0.0
385,24.243333333333354
386,27.640000000000022
387,0.5297279470373758
388,0.0
425,0.0
450,0.0
451,0.0
452,-1.5549865367843292
453,0.0
490,0.0
515,0.0
516,0.0
542,0.0
592,3534334.9522756743
632,2658612.4413064728
686,0.7638396331346143
687,0.6666666666666672
688,1.6666666666666679
2,21, 1,21, 0, 2, 0.00,10.00,Monday
250,24.449042340809925
251,7452094.154641835
336,0.0
385,24.91
386,27.64
387,0.5014956912297144
388,0.0
425,0.0
450,0.0
451,0.0
452,-1.5549049046891572
453,0.0
490,0.0
515,0.0
516,0.0
542,0.0
592,4798557.340734607
632,3187407.6898364555
686,1.0
687,1.0
688,2.0
2,21, 1,21, 0, 2,10.00,20.00,Monday
250,24.866326982785136
251,8560185.776365455
336,0.0
385,24.91
386,27.64
387,0.47640015033319005
388,0.0
425,0.0
450,0.0
451,0.0
452,-1.558340416031693
453,0.0
490,0.0
515,0.0
516,0.0
542,0.0
592,4797025.27600521
632,3625085.830790271
686,1.0
687,1.0
688,2.0
2,21, 1,21, 0, 2,20.00,30.00,Monday
250,23.778383600302888
251,6399730.864448915
336,0.0
385,23.576666666666682
386,27.64000000000002
387,0.4549311353629523
388,0.0
425,0.0
450,0.0
451,0.0
452,-1.5657483414269537
453,0.0
490,0.0
515,0.0
516,0.0
542,0.0
592,2677495.753480724
632,3635916.1817863025
686,0.5805316374869423
687,0.5000000000000004
688,1.1666666666666674
2,21, 1,21, 0, 2,30.00,40.00,Monday
250,24.211142229412236
251,6280268.15649923
336,0.0
385,24.243333333333354
386,27.640000000000022
387,0.4317381919894563
388,0.0
425,0.0
450,0.0
451,0.0
452,-1.5766650836842107
453,0.0
490,0.0
515,0.0
516,0.0
542,0.0
592,3536562.7574195415
632,2665998.1154324575
686,0.7644833166993961
687,0.6666666666666672
688,1.6666666666666679
2,21, 1,21, 0, 2,40.00,50.00,Monday
250,24.449373537980055
251,7460401.9318264015
336,0.0
385,24.91
386,27.64
387,0.4032252394836801
388,0.0
425,0.0
450,0.0
451,0.0
452,-1.592416397119488
453,0.0
490,0.0
515,0.0
516,0.0
542,0.0
592,4798556.3687728625
632,3195780.720667324
686,1.0
687,1.0
688,2.0
2,21, 1,21, 0, 2,50.00,60.00,Monday
250,24.866363267070003
251,8567105.123405559
336,0.0
385,24.91
386,27.64
387,0.37760615238781226
388,0.0
425,0.0
450,0.0
451,0.0
452,-1.6088397853463883
453,0.0
490,0.0
515,0.0
516,0.0
542,0.0
592,4797025.27600521
632,3631933.4312233324
686,1.0
687,1.0
688,2.0
2,21, 1,21, 0, 3, 0.00,10.00,Monday
250,23.777512986243266
251,6416384.823590398
336,0.0
385,23.576666666666668
386,27.640000000000004
387,0.3560278978108517
388,0.0
425,0.0
450,0.0
451,0.0
452,-1.6233214854302265
453,0.0
490,0.0
515,0.0
516,0.0
542,0.0
592,2680446.9794593165
632,3649911.676432087
686,0.5813843101994034
687,0.5
688,1.1666666666666667
2,21, 1,21, 0, 3,10.00,20.00,Monday
250,24.211618509195354
251,6310186.000722024
336,0.0
385,24.243333333333332
386,27.64
387,0.333437819744118
388,0.0
425,0.0
450,0.0
451,0.0
452,-1.6350465954392455
453,0.0
490,0.0
515,0.0
516,0.0
542,0.0
592,3544430.623219424
632,2685869.1373646273
686,0.766756592672043
687,0.6666666666666667
688,1.6666666666666667
2,21, 1,21, 0, 3,20.00,30.00,Monday
250,24.45020444973184
251,7500251.95032102
336,0.0
385,24.91
386,27.64
387,0.3066341235284517
388,0.0
425,0.0
450,0.0
451,0.0
452,-1.6426801365325012
453,0.0
490,0.0
515,0.0
516,0.0
542,0.0
592,4798552.289123008
632,3235342.9345895536
686,1.0
687,1.0
688,2.0
2,21, 1,21, 0, 3,30.00,40.00,Monday
250,24.866473417630957
251,8618200.895922922
336,0.0
385,24.91
386,27.64
387,0.2837806804399588
388,0.0
425,0.0
450,0.0
451,0.0
452,-1.6430699148908219
453,0.0
490,0.0
515,0.0
516,0.0
542,0.0
592,4797025.27600521
632,3682823.0504399375
686,1.0
687,1.0
688,2.0
2,21, 1,21, 0, 3,40.00,50.00,Monday
250,23.77494907858066
251,6465167.247365698
336,0.0
385,23.576666666666632
386,27.639999999999965
387,0.2654372363323705
388,0.0
425,0.0
450,0.0
451,0.0
452,-1.6384787857836969
453,0.0
490,0.0
515,0.0
516,0.0
542,0.0
592,2688992.1262051943
632,3691005.5274926145
686,0.5838531996261587
687,0.49999999999999933
688,1.166666666666665
2,21, 1,21, 0, 3,50.00,60.00,Monday
250,24.21240017345093
251,6361860.975229169
336,0.0
385,24.243333333333354
386,27.640000000000022
387,0.24663475649397987
388,0.0
425,0.0
450,0.0
451,0.0
452,-1.6308225220842623
453,0.0
490,0.0
515,0.0
516,0.0
542,0.0
592,3558297.111207111
632,2720015.1183159836
686,0.7707630608514937
687,0.6666666666666672
688,1.6666666666666679
2,21, 1,21, 0, 4, 0.00,10.00,Monday
250,24.451750653708054
251,7615969.395186208
336,0.0
385,24.91
386,27.64
387,0.22019965049124546
388,0.0
425,0.0
450,0.0
451,0.0
452,-1.6206611507681659
453,0.0
490,0.0
515,0.0
516,0.0
542,0.0
592,4793781.416983554
632,3355291.08004501
686,1.0
687,1.0
688,2.0
2,21, 1,21, 0, 4,10.00,20.00,Monday
250,24.8667082192366
251,8804380.193989012
336,0.0
385,24.91
386,27.64
387,0.19228059323447924
388,0.0
425,0.0
450,0.0
451,0.0
452,-1.6133502606344892
453,0.0
490,0.0
515,0.0
516,0.0
542,0.0
592,4787110.239197659
632,3878526.835961511
686,1.0
687,1.0
688,2.0
2,21, 1,21, 0, 4,20.00,30.00,Monday
250,23.761442426740786
251,6720629.760423668
336,0.0
385,23.576666666666682
386,27.64000000000002
387,0.16520155566373237
388,0.0
425,0.0
450,0.0
451,0.0
452,-1.610854849604219
453,0.0
490,0.0
515,0.0
516,0.0
542,0.0
592,2725767.383642543
632,3914195.035149708
686,0.5970676571536917
687,0.5000000000000004
688,1.1666666666666674
2,21, 1,21, 0, 4,30.00,40.00,Monday
250,24.218123703995943
251,6711714.4610549165
336,0.0
385,24.243333333333354
386,27.640000000000022
387,0.13472045201998423
388,0.0
425,0.0
450,0.0
451,0.0
452,-1.6122491301669197
453,0.0
490,0.0
515,0.0
516,0.0
542,0.0
592,3642010.3152852654
632,2959157.4405470593
686,0.7996792113680862
687,0.6666666666666672
688,1.6666666666666679
2,21, 1,21, 0, 4,40.00,50.00,Monday
250,24.45845869224921
251,7934833.642074649
336,0.0
385,24.91
386,27.64
387,0.0958767287336762
388,0.0
425,0.0
450,0.0
451,0.0
452,-1.6190137543677876
453,0.0
490,0.0
515,0.0
516,0.0
542,0.0
592,4773106.997907872
632,3688352.8943059784
686,1.0
687,1.0
688,2.0
2,21, 1,21, 0, 4,50.00,60.00,Monday
250,24.867491967513846
251,9132648.546918206
336,0.0
385,24.91
386,27.64
387,0.05985000758473249
388,0.0
425,0.0
450,0.0
451,0.0
452,-1.6290656480347447
453,0.0
490,0.0
515,0.0
516,0.0
542,0.0
592,4765435.086161589
632,4226722.8460826175
686,1.0
687,1.0
688,2.0
2,21, 1,21, 0, 5, 0.00,10.00,Monday
250,23.75030971355573
251,6932131.837463472
336,0.0
385,23.576666666666668
386,27.640000000000004
387,0.03702008849408717
388,0.0
425,0.0
450,0.0
451,0.0
452,-1.6367046906896805
453,0.0
490,0.0
515,0.0
516,0.0
542,0.0
592,2751482.205890233
632,4103684.0822462207
686,0.6083062255255856
687,0.5
688,1.1666666666666667
2,21, 1,21, 0, 5,10.00,20.00,Monday
250,24.219539088576617
251,6818402.867862284
336,0.0
385,24.243333333333332
386,27.64
387,0.019446087624538706
388,0.0
425,0.0
450,0.0
451,0.0
452,-1.6391894556934679
453,0.0
490,0.0
515,0.0
516,0.0
542,0.0
592,3655285.822135301
632,3045564.661660835
686,0.8086290683454941
687,0.6666666666666667
688,1.6666666666666667
2,21, 1,21, 0, 5,20.00,30.00,Monday
250,24.460140986410867
251,7909083.805829578
336,0.0
385,24.91
386,27.64
387,0.0038668771808857863
388,0.0
425,0.0
450,0.0
451,0.0
452,-1.6330793431256572
453,0.0
490,0.0
515,0.0
516,0.0
542,0.0
592,4749123.120071095
632,3684409.2838757476
686,1.0
687,1.0
688,2.0
2,21, 1,21, 0, 5,30.00,40.00,Monday
250,24.86761885201847
251,8992181.695092356
336,0.0
385,24.91
386,27.64
387,-0.0058144220043008805
388,0.0
425,0.0
450,0.0
451,0.0
452,-1.6179260776770583
453,0.0
490,0.0
515,0.0
516,0.0
542,0.0
592,4740495.740094985
632,4110746.629017749
686,1.0
687,1.0
688,2.0
2,21, 1,21, 0, 5,40.00,50.00,Monday
250,23.757855986343326
251,6789879.539066221
336,0.0
385,23.576666666666632
386,27.639999999999965
387,-0.010219163555599998
388,0.0
425,0.0
450,0.0
451,0.0
452,-1.5960491342942906
453,0.0
490,0.0
515,0.0
516,0.0
542,0.0
592,2713523.1928038807
632,3996749.770498672
686,0.6015431720602386
687,0.49999999999999933
688,1.166666666666665
2,21, 1,21, 0, 5,50.00,60.00,Monday
250,24.21725696545911
251,6665672.997652637
336,0.0
385,24.243333333333354
386,27.640000000000022
387,-0.012886537602138069
388,0.0
425,0.0
450,0.0
451,0.0
452,-1.5674974318127068
453,0.0
490,0.0
515,0.0
516,0.0
542,0.0
592,3592556.765356157
632,2966523.334222388
686,0.7963749216368536
687,0.6666666666666672
688,1.6666666666666679
2,21, 1,21, 0, 6, 0.00,10.00,Monday
250,24.458126071095922
251,7861559.303912297
336,0.0
385,24.91
386,27.64
387,-0.02234465852535166
388,0.0
425,0.0
450,0.0
451,0.0
452,-1.535326614548941
453,0.0
490,0.0
515,0.0
516,0.0
542,0.0
592,4722980.508239682
632,3666252.5754323155
686,1.0
687,1.0
688,2.0
2,21, 1,21, 0, 6,10.00,20.00,Monday
250,24.867444475683698
251,9029089.229840163
336,0.0
385,24.91
386,27.64
387,-0.039006477645797205
388,0.0
425,0.0
450,0.0
451,0.0
452,-1.5177751079567887
453,0.0
490,0.0
515,0.0
516,0.0
542,0.0
592,4717184.630480875
632,4171510.670664992
686,1.0
687,1.0
688,2.0
2,21, 1,21, 0, 6,20.00,30.00,Monday
250,23.751225342317806
251,6915061.459862228
336,0.0
385,23.576666666666682
386,27.64000000000002
387,-0.059515009716134507
388,0.0
425,0.0
450,0.0
451,0.0
452,-1.5170954438132969
453,0.0
490,0.0
515,0.0
516,0.0
542,0.0
592,2724976.8955092495
632,4112671.4738949356
686,0.6084316700826838
687,0.5000000000000004
688,1.1666666666666674
2,21, 1,21, 0, 6,30.00,40.00,Monday
250,24.22118318684412
251,6895046.5739722615
336,0.0
385,24.243333333333354
386,27.640000000000022
387,-0.0843574170478042
388,0.0
425,0.0
450,0.0
451,0.0
452,-1.5265762607762436
453,0.0
490,0.0
515,0.0
516,0.0
542,0.0
592,3645380.816876547
632,3124579.0835077595
686,0.8160402528272291
687,0.6666666666666672
688,1.6666666666666679
2,21, 1,21, 0, 6,40.00,50.00,Monday
250,24.46232677128144
251,8072169.3299080795
336,0.0
385,24.91
386,27.64
387,-0.11786020233887512
388,0.0
425,0.0
450,0.0
451,0.0
452,-1.5482745291586324
453,0.0
490,0.0
515,0.0
516,0.0
542,0.0
592,4705463.969249484
632,3889944.819230534
686,1.0
687,1.0
688,2.0
2,21, 1,21, 0, 6,50.00,60.00,Monday
250,24.867921391904616
251,9244448.908521503
336,0.0
385,24.91
386,27.64
387,-0.15009528357378618
388,0.0
425,0.0
450,0.0
451,0.0
452,-1.5764897021569035
453,0.0
490,0.0
515,0.0
516,0.0
542,0.0
592,4698633.733564452
632,4404331.110439986
686,1.0
687,1.0
688,2.0
2,21, 1,21, 0, 7, 0.00,10.00,Monday
250,23.7406317572608
251,7115290.550326011
336,0.0
385,23.576666666666668
386,27.640000000000004
387,-0.18364598112606992
388,0.0
425,0.0
450,0.0
451,0.0
452,-1.6216688956763288
453,0.0
490,0.0
515,0.0
516,0.0
542,0.0
592,2763346.068193382
632,4278167.405765941
686,0.6186145422994147
687,0.5
688,1.1666666666666667
2,21, 1,21, 0, 7,10.00,20.00,Monday
250,24.223802157243203
251,7080048.804254821
336,0.0
385,24.243333333333332
386,27.64
387,-0.22668664761110913
388,0.0
425,0.0
450,0.0
451,0.0
452,-1.7022361140013227
453,0.0
490,0.0
515,0.0
516,0.0
542,0.0
592,3720252.568318039
632,3222035.2019810923
686,0.8307693697157725
687,0.6666666666666667
688,1.6666666666666667
2,21, 1,21, 0, 7,20.00,30.00,Monday
250,24.464941267420496
251,8194352.268784285
336,0.0
385,24.91
386,27.64
387,-0.2880198376891057
388,0.0
425,0.0
450,0.0
451,0.0
452,-1.8389538673259496
453,0.0
490,0.0
515,0.0
516,0.0
542,0.0
592,4763694.199885579
632,3950146.1142012025
686,1.0
687,1.0
688,2.0
2,21, 1,21, 0, 7,30.00,40.00,Monday
250,24.868171108244475
251,9324021.878282301
336,0.0
385,24.91
386,27.64
387,-0.3504509209272506
388,0.0
425,0.0
450,0.0
451,0.0
452,-2.000952525001558
453,0.0
490,0.0
515,0.0
516,0.0
542,0.0
592,4781101.268487236
632,4400717.113570223
686,1.0
687,1.0
688,2.0
2,21, 1,21, 0, 7,40.00,50.00,Monday
250,23.73763961662112
251,7170514.139292818
336,0.0
385,23.576666666666632
386,27.639999999999965
387,-0.4121204986719842
388,0.0
425,0.0
450,0.0
451,0.0
452,-2.1813592630521397
453,0.0
490,0.0
515,0.0
516,0.0
542,0.0
592,2813344.9137981692
632,4284656.104161797
686,0.6196442533251446
687,0.49999999999999933
688,1.166666666666665
2,21, 1,21, 0, 7,50.00,60.00,Monday
250,24.224258304037768
251,7138065.055520402
336,0.0
385,24.243333333333354
386,27.640000000000022
387,-0.4847107368744527
388,0.0
425,0.0
450,0.0
451,0.0
452,-2.4010803819426583
453,0.0
490,0.0
515,0.0
516,0.0
542,0.0
592,3790330.7404379444
632,3207699.7503753086
686,0.8336004134036725
687,0.6666666666666672
688,1.6666666666666679
2,21, 1,21, 0, 8, 0.00,10.00,Monday
250,24.465580685882276
251,7907954.242664785
336,0.0
385,24.91
386,27.64
387,-0.5709771774803224
388,0.0
425,0.0
450,0.0
451,0.0
452,-2.665207778807004
453,0.0
490,0.0
515,0.0
516,0.0
542,0.0
592,4831971.818575957
632,3594572.078706551
686,1.0
687,1.0
688,2.0
2,21, 1,21, 0, 8,10.00,20.00,Monday
250,24.86821979473384
251,8951123.25260363
336,0.0
385,24.91
386,27.64
387,-0.6332393349881091
388,0.0
425,0.0
450,0.0
451,0.0
452,-2.8113627012319697
453,0.0
490,0.0
515,0.0
516,0.0
542,0.0
592,4839846.964497664
632,3968861.443294708
686,1.0
687,1.0
688,2.0
2,21, 1,21, 0, 8,20.00,30.00,Monday
250,23.760323669209303
251,6741784.397770739
336,0.0
385,23.576666666666682
386,27.64000000000002
387,-0.6711822658156305
388,0.0
425,0.0
450,0.0
451,0.0
452,-2.8091509468141855
453,0.0
490,0.0
515,0.0
516,0.0
542,0.0
592,2765192.690333269
632,3896370.5643810146
686,0.597450572706897
687,0.5000000000000004
688,1.1666666666666674
2,21, 1,21, 0, 8,30.00,40.00,Monday
250,24.215573533964196
251,6594035.0576772485
336,0.0
385,24.243333333333354
386,27.640000000000022
387,-0.6999610525799144
388,0.0
425,0.0
450,0.0
451,0.0
452,-2.710696459212992
453,0.0
490,0.0
515,0.0
516,0.0
542,0.0
592,3663955.4335213103
632,2831526.9441648824
686,0.7879350041113398
687,0.6666666666666672
688,1.6666666666666679
2,21, 1,21, 0, 8,40.00,50.00,Monday
250,24.456100932957245
251,7654832.89154343
336,0.0
385,24.91
386,27.64
387,-0.7187874627222738
388,0.0
425,0.0
450,0.0
451,0.0
452,-2.475363854280591
453,0.0
490,0.0
515,0.0
516,0.0
542,0.0
592,4874195.362032858
632,3309572.8821833534
686,1.0
687,1.0
688,2.0
2,21, 1,21, 0, 8,50.00,60.00,Monday
250,24.867160327214975
251,8665066.682904167
336,0.0
385,24.91
386,27.64
387,-0.716468149486271
388,0.0
425,0.0
450,0.0
451,0.0
452,-2.1596105755298916
453,0.0
490,0.0
515,0.0
516,0.0
542,0.0
592,4881868.24507294
632,3643221.828302428
686,1.0
687,1.0
688,2.0
2,21, 1,21, 0, 9, 0.00,10.00,Monday
250,23.793313082017992
251,6118134.769890083
336,0.0
385,23.576666666666668
386,27.640000000000004
387,-0.6901134014020707
388,0.0
425,0.0
450,0.0
451,0.0
452,-1.780396178656853
453,0.0
490,0.0
515,0.0
516,0.0
542,0.0
592,2682552.88852471
632,3344353.325364275
686,0.5660364664876526
687,0.5
688,1.1666666666666667
2,21, 1,21, 0, 9,10.00,20.00,Monday
250,24.204510416931107
251,5893872.6455959715
336,0.0
385,24.243333333333332
386,27.64
387,-0.6444318457255808
388,0.0
425,0.0
450,0.0
451,0.0
452,-1.2989242174414746
453,0.0
490,0.0
515,0.0
516,0.0
542,0.0
592,3507572.280106063
632,2340145.098357578
686,0.731682179506131
687,0.6666666666666667
688,1.6666666666666667
2,21, 1,21, 0, 9,20.00,30.00,Monday
250,24.236366234859236
251,7233458.845578306
336,0.0
385,24.243333333333325
386,27.639999999999986
387,-0.5638388948922025
388,0.0
425,0.0
450,0.0
451,0.0
452,-0.5932508926735864
453,0.0
490,0.0
515,0.0
516,0.0
542,0.0
592,3153443.184278105
632,3927130.703820185
686,0.758597739426411
687,0.3333333333333332
688,1.3333333333333328
2,21, 1,21, 0, 9,30.00,40.00,Monday
250,24.237406815237858
251,7193463.461161802
336,0.0
385,24.243333333333343
386,27.640000000000008
387,-0.4761919744433337
388,0.0
425,0.0
450,0.0
451,0.0
452,0.05495707032419235
453,0.0
490,0.0
515,0.0
516,0.0
542,0.0
592,3170067.6760921124
632,3866446.549153296
686,0.7599422503448319
687,0.3333333333333332
688,1.3333333333333335
2,21, 1,21, 0, 9,40.00,50.00,Monday
250,24.23699873141982
251,7168570.291000526
336,0.0
385,24.243333333333354
386,27.640000000000022
387,-0.3953078686842312
388,0.0
425,0.0
450,0.0
451,0.0
452,0.6698544017987489
453,0.0
490,0.0
515,0.0
516,0.0
542,0.0
592,3160467.817972927
632,3853930.9384448994
686,0.7539182794490056
687,0.3333333333333336
688,1.3333333333333344
2,21, 1,21, 0, 9,50.00,60.00,Monday
250,24.84439877606937
251,7857666.243925447
336,0.0
385,24.91
386,27.64
387,-0.3235818679285063
388,0.0
425,0.0
450,0.0
451,0.0
452,1.1766346346567715
453,0.0
490,0.0
515,0.0
516,0.0
542,0.0
592,4987886.410218769
632,2786920.264432937
686,1.0
687,1.0
688,2.0
2,21, 1,21, 0,10, 0.00,10.00,Monday
250,23.805363766069856
251,5871382.522753453
336,0.0
385,23.576666666666668
386,27.640000000000004
387,-0.2512195742324628
388,0.0
425,0.0
450,0.0
451,0.0
452,1.6400486944458703
453,0.0
490,0.0
515,0.0
516,0.0
542,0.0
592,2701457.311110028
632,3075097.425791511
686,0.5527008281181027
687,0.5
688,1.1666666666666667
2,21, 1,21, 0,10,10.00,20.00,Monday
250,24.199164663330915
251,5573232.763850825
336,0.0
385,24.243333333333332
386,27.64
387,-0.16451176094434972
388,0.0
425,0.0
450,0.0
451,0.0
452,2.1490378220053463
453,0.0
490,0.0
515,0.0
516,0.0
542,0.0
592,3516009.40215782
632,2035399.0577275387
686,0.7068847089333259
687,0.6666666666666667
688,1.6666666666666667
2,21, 1,21, 0,10,20.00,30.00,Monday
250,24.230111406084298
251,6908481.5162703395
336,0.0
385,24.243333333333325
386,27.639999999999986
387,-0.029019916498752345
388,0.0
425,0.0
450,0.0
451,0.0
452,2.8388069204778974
453,0.0
490,0.0
515,0.0
516,0.0
542,0.0
592,3000712.8336233627
632,3790723.304958817
686,0.6896574685361742
687,0.3333333333333332
688,1.3333333333333328
2,21, 1,21, 0,10,30.00,40.00,Monday
250,24.230236290254325
251,6819425.523854282
336,0.0
385,24.243333333333343
386,27.640000000000008
387,0.10292664390710107
388,0.0
425,0.0
450,0.0
451,0.0
452,3.469649964410178
453,0.0
490,0.0
515,0.0
516,0.0
542,0.0
592,2992502.9015861424
632,3711081.224717262
686,0.6820965127863129
687,0.3333333333333332
688,1.3333333333333335
2,21, 1,21, 0,10,40.00,50.00,Monday
250,24.228345218586124
251,6709483.841483347
336,0.0
385,24.243333333333354
386,27.640000000000022
387,0.2438971249045851
388,0.0
425,0.0
450,0.0
451,0.0
452,4.146761446673385
453,0.0
490,0.0
515,0.0
516,0.0
542,0.0
592,2935739.0561732496
632,3668932.858451563
686,0.6615453197188045
687,0.3333333333333336
688,1.3333333333333344
2,21, 1,21, 0,10,50.00,60.00,Monday
250,24.226373594221577
251,6597872.4286735365
336,0.0
385,24.243333333333354
386,27.640000000000022
387,0.40253106534656885
388,0.0
425,0.0
450,0.0
451,0.0
452,4.904564061587576
453,0.0
490,0.0
515,0.0
516,0.0
542,0.0
592,2876253.28530105
632,3628170.011471848
686,0.6405296098955384
687,0.3333333333333336
688,1.3333333333333344
2,21, 1,21, 0,11, 0.00,10.00,Monday
250,24.224456179235002
251,6487738.646141736
336,0.0
385,24.243333333333332
386,27.64
387,0.5727955480703161
388,0.0
425,0.0
450,0.0
451,0.0
452,5.726577998374802
453,0.0
490,0.0
515,0.0
516,0.0
542,0.0
592,2812364.9784704293
632,3592849.520650739
686,0.6207365389625767
687,0.3333333333333333
688,1.3333333333333335
2,21, 1,21, 0,11,10.00,20.00,Monday
250,24.2225118259518
251,6374995.9228134435
336,0.0
385,24.243333333333332
386,27.64
387,0.7543366165101444
388,0.0
425,0.0
450,0.0
451,0.0
452,6.59397855552983
453,0.0
490,0.0
515,0.0
516,0.0
542,0.0
592,2747259.9471652685
632,3556255.657512512
686,0.6007607245602666
687,0.33333333333333337
688,1.3333333333333333
2,21, 1,21, 0,11,20.00,30.00,Monday
250,24.014537672925513
251,5515427.33386407
336,0.0
385,23.91
386,27.64
387,0.9047519216325569
388,0.0
425,0.0
450,0.0
451,0.0
452,7.368111685159141
453,0.0
490,0.0
515,0.0
516,0.0
542,0.0
592,3932679.435613185
632,1425750.5725154425
686,0.75
687,0.75
688,1.5
2,21, 1,21, 0,11,30.00,40.00,Monday
250,23.966109287198528
251,6046945.800871342
336,0.0
385,23.91
386,27.64
387,1.1374182592500988
388,0.0
425,0.0
450,0.0
451,0.0
452,8.393609018619346
453,0.0
490,0.0
515,0.0
516,0.0
542,0.0
592,3130750.633650347
632,2834727.136211916
686,0.6318821768471045
687,0.5
688,1.25
2,21, 1,21, 0,11,40.00,50.00,Monday
250,23.969487357646667
251,5874251.668284563
336,0.0
385,23.91
386,27.64
387,1.3656699980847857
388,0.0
425,0.0
450,0.0
451,0.0
452,9.267627066414514
453,0.0
490,0.0
515,0.0
516,0.0
542,0.0
592,3139846.481037521
632,2657055.9329831842
686,0.6313822669931282
687,0.5
688,1.25
2,21, 1,21, 0,11,50.00,60.00,Monday
250,24.22823487769335
251,4632000.379106692
336,0.0
385,24.243333333333354
386,27.640000000000022
387,1.5430620932120718
388,0.0
425,0.0
450,0.0
451,0.0
452,9.91690204030567
453,0.0
490,0.0
515,0.0
516,0.0
542,0.0
592,3457682.9688697187
632,1169395.2837171725
686,0.6666666666666672
687,0.6161672065792512
688,1.3333333333333344
2,21, 1,21, 0,12, 0.00,10.00,Monday
250,23.858167997772114
251,4706264.105297707
336,0.0
385,23.71
386,27.64
387,1.720329568839394
388,0.0
425,0.0
450,0.0
451,0.0
452,10.483601049156665
453,0.0
490,0.0
515,0.0
516,0.0
542,0.0
592,2408171.1479964596
632,2349711.074553115
686,0.47457189733443406
687,0.4
688,1.0
2,21, 1,21, 0,12,10.00,20.00,Monday
250,24.17344259118905
251,6347971.452756825
336,0.0
385,24.243333333333332
386,27.64
387,1.9079225859509894
388,0.0
425,0.0
450,0.0
451,0.0
452,10.977092504558687
453,0.0
490,0.0
515,0.0
516,0.0
542,0.0
592,3710311.036749472
632,2694353.6697221263
686,0.8401534835324613
687,0.33333333333333337
688,1.3333333333333333
2,21, 1,21, 0,12,20.00,30.00,Monday
250,24.285990941298646
251,4647784.409859599
336,0.0
385,24.243333333333325
386,27.639999999999986
387,2.1621305465114236
388,0.0
425,0.0
450,0.0
451,0.0
452,11.47614026282546
453,0.0
490,0.0
515,0.0
516,0.0
542,0.0
592,3547445.3555280203
632,1057686.6369546694
686,0.6666666666666664
687,0.6666666666666664
688,1.3333333333333328
2,21, 1,21, 0,12,30.00,40.00,Monday
250,23.880950578241123
251,4526753.038765702
336,0.0
385,23.70999999999999
386,27.639999999999986
387,2.3070622669891647
388,0.0
425,0.0
450,0.0
451,0.0
452,11.687781065406758
453,0.0
490,0.0
515,0.0
516,0.0
542,0.0
592,2361888.6859245943
632,2211105.5684421067
686,0.4599073232523237
687,0.3999999999999997
688,0.9999999999999993
2,21, 1,21, 0,12,40.00,50.00,Monday
250,24.172050271475815
251,6186752.76337045
336,0.0
385,24.243333333333354
386,27.640000000000022
387,2.4436073601518875
388,0.0
425,0.0
450,0.0
451,0.0
452,11.787870081260518
453,0.0
490,0.0
515,0.0
516,0.0
542,0.0
592,3607306.3802532847
632,2644268.752776594
686,0.8093055621374908
687,0.3333333333333336
688,1.3333333333333344
2,21, 1,21, 0,12,50.00,60.00,Monday
250,24.293996276748704
251,4568942.716027886
336,0.0
385,24.243333333333354
386,27.640000000000022
387,2.615001700907283
388,0.0
425,0.0
450,0.0
451,0.0
452,11.785987286877816
453,0.0
490,0.0
515,0.0
516,0.0
542,0.0
592,3562201.741799793
632,964292.7523683647
686,0.6666666666666672
687,0.6666666666666672
688,1.3333333333333344
2,21, 1,21, 0,13, 0.00,10.00,Monday
250,23.887755727676662
251,4458807.463952341
336,0.0
385,23.71
386,27.64
387,2.706100318760457
388,0.0
425,0.0
450,0.0
451,0.0
452,11.694470280917127
453,0.0
490,0.0
515,0.0
516,0.0
542,0.0
592,2344343.550506364
632,2159512.871790746
686,0.45407873710988655
687,0.4
688,1.0
2,21, 1,21, 0,13,10.00,20.00,Monday
250,24.170949322982885
251,6055343.441141007
336,0.0
385,24.243333333333332
386,27.64
387,2.790980577788588
388,0.0
425,0.0
450,0.0
451,0.0
452,11.602521597683154
453,0.0
490,0.0
515,0.0
516,0.0
542,0.0
592,3523576.244615309
632,2603211.3874097974
686,0.7875232915824213
687,0.33333333333333337
688,1.3333333333333333
2,21, 1,21, 0,13,20.00,30.00,Monday
250,24.308844709821813
251,4440079.970404595
336,0.0
385,24.243333333333325
386,27.639999999999986
387,2.9001561514758594
388,0.0
425,0.0
450,0.0
451,0.0
452,11.51524842046153
453,0.0
490,0.0
515,0.0
516,0.0
542,0.0
592,3554691.3010860663
632,843124.3594241696
686,0.6666666666666664
687,0.6666666666666664
688,1.3333333333333328
2,21, 1,21, 0,13,30.00,40.00,Monday
250,23.90634510244149
251,4286109.047923307
336,0.0
385,23.70999999999999
386,27.639999999999986
387,2.9660422821012524
388,0.0
425,0.0
450,0.0
451,0.0
452,11.4880821534888
453,0.0
490,0.0
515,0.0
516,0.0
542,0.0
592,2288907.8459175075
632,2038943.7201278438
686,0.44092962333941965
687,0.3999999999999997
688,0.9999999999999993
2,21, 1,21, 0,13,40.00,50.00,Monday
250,24.16912221290973
251,5836565.226886265
336,0.0
385,24.243333333333354
386,27.640000000000022
387,3.0340075710478467
388,0.0
425,0.0
450,0.0
451,0.0
452,11.471913137597332
453,0.0
490,0.0
515,0.0
516,0.0
542,0.0
592,3370102.7030777554
632,2550462.2259868565
686,0.7494133133114084
687,0.3333333333333336
688,1.3333333333333344
2,21, 1,21, 0,13,50.00,60.00,Monday
250,24.326338336728977
251,4293561.492858775
336,0.0
385,24.243333333333354
386,27.640000000000022
387,3.1272960997681
388,0.0
425,0.0
450,0.0
451,0.0
452,11.457635467345973
453,0.0
490,0.0
515,0.0
516,0.0
542,0.0
592,3547173.0656147324
632,704366.0599942014
686,0.6666666666666672
687,0.6666666666666672
688,1.3333333333333344
2,21, 1,21, 0,14, 0.00,10.00,Monday
250,23.923382859502173
251,4152564.8124904037
336,0.0
385,23.71
386,27.64
387,3.1893321401839096
388,0.0
425,0.0
450,0.0
451,0.0
452,11.417384142665377
453,0.0
490,0.0
515,0.0
516,0.0
542,0.0
592,2197527.4860653603
632,1996591.424800856
686,0.43197557577755535
687,0.36053564949518146
688,1.0
2,21, 1,21, 0,14,10.00,20.00,Monday
250,24.16741298839365
251,5651230.897405479
336,0.0
385,24.243333333333332
386,27.64
387,3.253415509881176
388,0.0
425,0.0
450,0.0
451,0.0
452,11.313411441194399
453,0.0
490,0.0
515,0.0
516,0.0
542,0.0
592,3248617.3779079705
632,2498691.8180490052
686,0.7142269700251247
687,0.33333333333333337
688,1.3333333333333333
2,21, 1,21, 0,14,20.00,30.00,Monday
250,24.338877664766173
251,4192673.8416346824
336,0.0
385,24.243333333333325
386,27.639999999999986
387,3.3378633940197977
388,0.0
425,0.0
450,0.0
451,0.0
452,11.112706031963802
453,0.0
490,0.0
515,0.0
516,0.0
542,0.0
592,3570964.859740202
632,579880.1281742014
686,0.6666666666666664
687,0.6666666666666664
688,1.3333333333333328
2,21, 1,21, 0,14,30.00,40.00,Monday
250,23.931538875960012
251,4085959.8888484254
336,0.0
385,23.70999999999999
386,27.639999999999986
387,3.3805065856941288
388,0.0