Program Version,EnergyPlus, Version 24.2.0-94a887817b, YMD=2025.02.04 15:52
1,5,Environment Title[],Latitude[deg],Longitude[deg],Time Zone[],Elevation[m]
2,8,Day of Simulation[],Month[],Day of Month[],DST Indicator[1=yes 0=no],Hour[],StartMinute[],EndMinute[],DayType
3,5,Cumulative Day of Simulation[],Month[],Day of Month[],DST Indicator[1=yes 0=no],DayType  ! When Daily Meters Requested
4,2,Cumulative Days of Simulation[],Month[]  ! When Monthly Meters Requested
5,1,Cumulative Days of Simulation[] ! When Run Period Meters Requested
6,1,Calendar Year of Simulation[] ! When Annual Meters Requested
11,9,Electricity:Facility [J] !Monthly [Value,Min,Day,Hour,Minute,Max,Day,Hour,Minute]
23,9,Electricity:Building [J] !Monthly [Value,Min,Day,Hour,Minute,Max,Day,Hour,Minute]
59,9,InteriorLights:Electricity [J] !Monthly [Value,Min,Day,Hour,Minute,Max,Day,Hour,Minute]
521,9,Electricity:HVAC [J] !Monthly [Value,Min,Day,Hour,Minute,Max,Day,Hour,Minute]
637,9,NaturalGas:Facility [J] !Monthly [Value,Min,Day,Hour,Minute,Max,Day,Hour,Minute]
649,9,NaturalGas:HVAC [J] !Monthly [Value,Min,Day,Hour,Minute,Max,Day,Hour,Minute]
13,11,Electricity:Facility [J] !RunPeriod [Value,Min,Month,Day,Hour,Minute,Max,Month,Day,Hour,Minute]
25,11,Electricity:Building [J] !RunPeriod [Value,Min,Month,Day,Hour,Minute,Max,Month,Day,Hour,Minute]
61,11,InteriorLights:Electricity [J] !RunPeriod [Value,Min,Month,Day,Hour,Minute,Max,Month,Day,Hour,Minute]
523,11,Electricity:HVAC [J] !RunPeriod [Value,Min,Month,Day,Hour,Minute,Max,Month,Day,Hour,Minute]
639,11,NaturalGas:Facility [J] !RunPeriod [Value,Min,Month,Day,Hour,Minute,Max,Month,Day,Hour,Minute]
651,11,NaturalGas:HVAC [J] !RunPeriod [Value,Min,Month,Day,Hour,Minute,Max,Month,Day,Hour,Minute]
End of Data Dictionary
1,RUN PERIOD 1,  41.98, -87.92,  -6.00, 201.00
4,31, 1
11,12548463433.765285,283440.5679502537,12, 1,20,4946191.602513514,31,14,20
23,4889665868.750106,158320.03786553303,19,16,60,3047804.8499976923,31,14,20
59,2332223660.3561497,72115.75944205714, 1, 1,10,1442315.1888411427, 1, 8,10
521,7658797565.01511,119999.99999999997,10, 7,20,2531669.915330174,27,20,50
637,3492509357.959223,0.0, 1, 1,10,11731266.462699216,27, 5,10
649,3492509357.959223,0.0, 1, 1,10,11731266.462699216,27, 5,10
4,59, 2
11,11233134597.390503,277705.01411433937, 9,14,10,4947245.101287268, 4, 9,60
23,4284991353.6934557,157705.01411433937, 9,14,10,3048858.3487714464, 4, 9,60
59,2038856750.9458694,99999999999999.0, 1, 1,10,-99999999999999.0, 1, 8,10
521,6948143243.69699,0.0,15, 7,30,-99999999999999.0,27,20,50
637,5137973510.8671055,99999999999999.0, 1, 1,10,19664691.368596174, 3, 8,20
649,5137973510.8671055,99999999999999.0, 1, 1,10,19664691.368596174, 3, 8,20
4,90, 3
11,11447202914.668196,134204.36111711865,31,16,60,4961570.812215911,18,13,60
23,4517989594.571101,134204.36111711865,31,16,60,3059618.410903598,18, 9,60
59,2157415059.4685884,99999999999999.0, 1, 1,10,-99999999999999.0, 1, 8,10
521,6929213320.097049,99999999999999.0,15, 7,30,-99999999999999.0,27,20,50
637,2461049344.618432,99999999999999.0, 1, 1,10,-99999999999999.0, 3, 8,20
649,2461049344.618432,99999999999999.0, 1, 1,10,-99999999999999.0, 3, 8,20
4,120, 4
11,11048453184.785955,72115.75944205714,13,21,30,5113491.969750596,15,14,60
23,4588432724.627104,72115.75944205714,13,12,10,-99999999999999.0,18, 9,60
59,2234434690.552723,99999999999999.0, 1, 1,10,-99999999999999.0, 1, 8,10
521,6460020460.158753,99999999999999.0,15, 7,30,-99999999999999.0,27,20,50
637,671845166.8454224,99999999999999.0, 1, 1,10,-99999999999999.0, 3, 8,20
649,671845166.8454224,99999999999999.0, 1, 1,10,-99999999999999.0, 3, 8,20
4,151, 5
11,11405156075.439905,99999999999999.0,13,21,30,5244887.05160694,30,16,60
23,4727096041.223615,99999999999999.0,13,12,10,-99999999999999.0,18, 9,60
59,2332223660.3561497,99999999999999.0, 1, 1,10,-99999999999999.0, 1, 8,10
521,6678060034.216267,99999999999999.0,15, 7,30,-99999999999999.0,27,20,50
637,65218662.91562373,99999999999999.0, 1, 1,10,-99999999999999.0, 3, 8,20
649,65218662.91562373,99999999999999.0, 1, 1,10,-99999999999999.0, 3, 8,20
4,181, 6
11,10472250804.380325,99999999999999.0,13,21,30,5267632.065790647,24,16,60
23,4110524318.8776326,99999999999999.0,13,12,10,-99999999999999.0,18, 9,60
59,2059626089.6651728,99999999999999.0, 1, 1,10,-99999999999999.0, 1, 8,10
521,6361726485.502554,99999999999999.0,15, 7,30,-99999999999999.0,27,20,50
637,6863789.190589047,99999999999999.0, 1, 1,10,-99999999999999.0, 3, 8,20
649,6863789.190589047,99999999999999.0, 1, 1,10,-99999999999999.0, 3, 8,20
4,212, 7
11,12108938254.497482,99999999999999.0,13,21,30,-99999999999999.0,24,16,60
23,4629824134.92809,99999999999999.0,13,12,10,-99999999999999.0,18, 9,60
59,2332223660.3561497,99999999999999.0, 1, 1,10,-99999999999999.0, 1, 8,10
521,7479114119.569238,99999999999999.0,15, 7,30,-99999999999999.0,27,20,50
637,0.0,99999999999999.0, 1, 1,10,-99999999999999.0, 3, 8,20
649,0.0,99999999999999.0, 1, 1,10,-99999999999999.0, 3, 8,20
4,243, 8
11,11594738394.24738,99999999999999.0,13,21,30,5401740.403599162,23,16,60
23,4461552916.000957,99999999999999.0,13,12,10,-99999999999999.0,18, 9,60
59,2244819359.9123588,99999999999999.0, 1, 1,10,-99999999999999.0, 1, 8,10
521,7133185478.246327,99999999999999.0,15, 7,30,-99999999999999.0,27,20,50
637,0.0,99999999999999.0, 1, 1,10,-99999999999999.0, 3, 8,20
649,0.0,99999999999999.0, 1, 1,10,-99999999999999.0, 3, 8,20
4,273, 9
11,10564734671.340607,99999999999999.0,13,21,30,-99999999999999.0,23,16,60
23,4308828256.529231,99999999999999.0,13,12,10,-99999999999999.0,18, 9,60
59,2147030390.1089463,99999999999999.0, 1, 1,10,-99999999999999.0, 1, 8,10
521,6255906414.811239,99999999999999.0,15, 7,30,-99999999999999.0,27,20,50
637,4307140.783912422,99999999999999.0, 1, 1,10,-99999999999999.0, 3, 8,20
649,4307140.783912422,99999999999999.0, 1, 1,10,-99999999999999.0, 3, 8,20
4,304,10
11,11200797742.354792,99999999999999.0,13,21,30,-99999999999999.0,23,16,60
23,4760981794.793083,99999999999999.0,13,12,10,-99999999999999.0,18, 9,60
59,2332223660.3561497,99999999999999.0, 1, 1,10,-99999999999999.0, 1, 8,10
521,6439815947.561659,99999999999999.0,15, 7,30,-99999999999999.0,27,20,50
637,54407125.769532084,99999999999999.0, 1, 1,10,-99999999999999.0, 3, 8,20
649,54407125.769532084,99999999999999.0, 1, 1,10,-99999999999999.0, 3, 8,20
4,334,11
11,10971781158.688505,99999999999999.0,13,21,30,-99999999999999.0,23,16,60
23,4451884487.28651,99999999999999.0,13,12,10,-99999999999999.0,18, 9,60
59,2147030390.1089602,99999999999999.0, 1, 1,10,-99999999999999.0, 1, 8,10
521,6519896671.401922,99999999999999.0,15, 7,30,-99999999999999.0,27,20,50
637,1751011881.3156147,99999999999999.0, 1, 1,10,-99999999999999.0, 3, 8,20
649,1751011881.3156147,99999999999999.0, 1, 1,10,-99999999999999.0, 3, 8,20
4,365,12
11,11616938114.483137,99999999999999.0,13,21,30,-99999999999999.0,23,16,60
23,4669567482.484306,99999999999999.0,13,12,10,-99999999999999.0,18, 9,60
59,2244819359.9123745,99999999999999.0, 1, 1,10,-99999999999999.0, 1, 8,10
521,6947370631.99877,99999999999999.0,15, 7,30,-99999999999999.0,27,20,50
637,2516639831.2247777,99999999999999.0, 1, 1,10,-99999999999999.0, 3, 8,20
649,2516639831.2247777,99999999999999.0, 1, 1,10,-99999999999999.0, 3, 8,20
5,365
13,136212589346.04175,72115.75944205714, 4,13,21,30,5401740.403599162, 8,23,16,60
25,54401338973.76521,72115.75944205714, 4,13,12,10,3059618.410903598, 3,18, 9,60
61,26602926732.093056,72115.75944205714, 1, 1, 1,10,1442315.1888411427, 1, 1, 8,10
523,81811250372.30762,0.0, 2,15, 7,30,2531669.915330174, 1,27,20,50
639,16161825811.490217,0.0, 1, 1, 1,10,19664691.368596174, 2, 3, 8,20
651,16161825811.490217,0.0, 1, 1, 1,10,19664691.368596174, 2, 3, 8,20
1,RUN PERIOD 2,  41.98, -87.92,  -6.00, 201.00
4,1, 7
11,483416228.7113001,99999999999999.0,13,21,30,-99999999999999.0,23,16,60
23,196314212.9605928,99999999999999.0,13,12,10,-99999999999999.0,18, 9,60
59,97788969.80342966,99999999999999.0, 1, 1,10,-99999999999999.0, 1, 8,10
521,287102015.7507074,99999999999999.0,15, 7,30,-99999999999999.0,27,20,50
637,0.0,99999999999999.0, 1, 1,10,-99999999999999.0, 3, 8,20
649,0.0,99999999999999.0, 1, 1,10,-99999999999999.0, 3, 8,20
5,1
13,483416228.7113001,99999999999999.0, 4,13,21,30,-99999999999999.0, 8,23,16,60
25,196314212.9605928,99999999999999.0, 4,13,12,10,-99999999999999.0, 3,18, 9,60
61,97788969.80342966,99999999999999.0, 1, 1, 1,10,-99999999999999.0, 1, 1, 8,10
523,287102015.7507074,99999999999999.0, 2,15, 7,30,-99999999999999.0, 1,27,20,50
639,0.0,99999999999999.0, 1, 1, 1,10,-99999999999999.0, 2, 3, 8,20
651,0.0,99999999999999.0, 1, 1, 1,10,-99999999999999.0, 2, 3, 8,20
End of Data
 Number of Records Written=          90
