Program Version,EnergyPlus, Version 24.1.0-9d7789a3ac, YMD=2025.04.05 15:40
1,5,Environment Title[],Latitude[deg],Longitude[deg],Time Zone[],Elevation[m]
2,8,Day of Simulation[],Month[],Day of Month[],DST Indicator[1=yes 0=no],Hour[],StartMinute[],EndMinute[],DayType
3,5,Cumulative Day of Simulation[],Month[],Day of Month[],DST Indicator[1=yes 0=no],DayType  ! When Daily Report Variables Requested
4,2,Cumulative Days of Simulation[],Month[]  ! When Monthly Report Variables Requested
5,1,Cumulative Days of Simulation[] ! When Run Period Report Variables Requested
6,1,Calendar Year of Simulation[] ! When Annual Report Variables Requested
250,1,LIVING ZONE,Zone Air Temperature [C] !TimeStep,REPORTSCH
251,1,LIVING ZONE,Zone Air System Sensible Heating Energy [J] !TimeStep,REPORTSCH
336,1,LIVING ZONE,Zone Air System Sensible Cooling Energy [J] !TimeStep,REPORTSCH
385,1,LIVING ZONE,Zone Thermostat Heating Setpoint Temperature [C] !TimeStep,REPORTSCH
386,1,LIVING ZONE,Zone Thermostat Cooling Setpoint Temperature [C] !TimeStep,REPORTSCH
387,1,GARAGE ZONE,Zone Air Temperature [C] !TimeStep,REPORTSCH
388,1,GARAGE ZONE,Zone Air System Sensible Heating Energy [J] !TimeStep,REPORTSCH
425,1,GARAGE ZONE,Zone Air System Sensible Cooling Energy [J] !TimeStep,REPORTSCH
450,1,GARAGE ZONE,Zone Thermostat Heating Setpoint Temperature [C] !TimeStep,REPORTSCH
451,1,GARAGE ZONE,Zone Thermostat Cooling Setpoint Temperature [C] !TimeStep,REPORTSCH
452,1,ATTIC ZONE,Zone Air Temperature [C] !TimeStep,REPORTSCH
453,1,ATTIC ZONE,Zone Air System Sensible Heating Energy [J] !TimeStep,REPORTSCH
490,1,ATTIC ZONE,Zone Air System Sensible Cooling Energy [J] !TimeStep,REPORTSCH
515,1,ATTIC ZONE,Zone Thermostat Heating Setpoint Temperature [C] !TimeStep,REPORTSCH
516,1,ATTIC ZONE,Zone Thermostat Cooling Setpoint Temperature [C] !TimeStep,REPORTSCH
542,1,ACDXCOIL 1,Cooling Coil Total Cooling Energy [J] !TimeStep,REPORTSCH
592,1,HEAT PUMP DX HEATING COIL 1,Heating Coil Heating Energy [J] !TimeStep,REPORTSCH
632,1,SUPP HEATING COIL 1,Heating Coil Heating Energy [J] !TimeStep,REPORTSCH
686,1,TWOSPEED HEAT PUMP 1,Unitary System DX Coil Cycling Ratio [] !TimeStep,REPORTSCH
687,1,TWOSPEED HEAT PUMP 1,Unitary System DX Coil Speed Ratio [] !TimeStep,REPORTSCH
688,1,TWOSPEED HEAT PUMP 1,Unitary System DX Coil Speed Level [] !TimeStep
End of Data Dictionary
1,RUN PERIOD 1,  41.98, -87.92,  -6.00, 201.00
2,21, 1,21, 0, 1, 0.00,10.00,Monday
250,23.939488579238354
251,6956584.4691126365
336,0.0
385,23.93
386,27.33
387,0.6546892083207653
388,0.0
425,0.0
450,0.0
451,0.0
452,-1.5788876137414207
453,0.0
490,0.0
515,0.0
516,0.0
542,0.0
592,3447604.733757236
632,3464154.4235541318
686,0.75
687,0.5954696345927881
688,1.5
2,21, 1,21, 0, 1,10.00,20.00,Monday
250,23.93851061856997
251,6958257.839791665
336,0.0
385,23.93
386,27.33
387,0.6272866192833875
388,0.0
425,0.0
450,0.0
451,0.0
452,-1.5668284782134818
453,0.0
490,0.0
515,0.0
516,0.0
542,0.0
592,3442764.7228452535
632,3469904.9278289466
686,0.75
687,0.6001583184281784
688,1.5
2,21, 1,21, 0, 1,20.00,30.00,Monday
250,23.937460021169738
251,6977201.698895078
336,0.0
385,23.93
386,27.33
387,0.6010212431351586
388,0.0
425,0.0
450,0.0
451,0.0
452,-1.5580610116033442
453,0.0
490,0.0
515,0.0
516,0.0
542,0.0
592,3440225.252320925
632,3491341.9839187316
686,0.75
687,0.6065816693182642
688,1.5
2,21, 1,21, 0, 1,30.00,40.00,Monday
250,23.936359107536408
251,6996379.911931918
336,0.0
385,23.93
386,27.33
387,0.5754670679549297
388,0.0
425,0.0
450,0.0
451,0.0
452,-1.5523885715792218
453,0.0
490,0.0
515,0.0
516,0.0
542,0.0
592,3437817.261640748
632,3512927.437213094
686,0.75
687,0.6131441097750467
688,1.5
2,21, 1,21, 0, 1,40.00,50.00,Monday
250,23.935262809824795
251,7015697.0666877115
336,0.0
385,23.93
386,27.33
387,0.5503450295581049
388,0.0
425,0.0
450,0.0
451,0.0
452,-1.549097545163467
453,0.0
490,0.0
515,0.0
516,0.0
542,0.0
592,3435435.97581165
632,3534607.0398399057
686,0.75
687,0.6197688679891246
688,1.5
2,21, 1,21, 0, 1,50.00,60.00,Monday
250,23.934175180098602
251,7034897.192654347
336,0.0
385,23.93
386,27.33
387,0.5254982345493615
388,0.0
425,0.0
450,0.0
451,0.0
452,-1.5475943211896517
453,0.0
490,0.0
515,0.0
516,0.0
542,0.0
592,3433016.543672614
632,3556203.0645578154
686,0.75
687,0.626408008092769
688,1.5
2,21, 1,21, 0, 2, 0.00,10.00,Monday
250,23.933720684432817
251,7044877.343032223
336,0.0
385,23.93
386,27.33
387,0.5008364977731502
388,0.0
425,0.0
450,0.0
451,0.0
452,-1.5484158319256656
453,0.0
490,0.0
515,0.0
516,0.0
542,0.0
592,3435697.9357952545
632,3563618.2103117495
686,0.75
687,0.6284149509281549
688,1.5
2,21, 1,21, 0, 2,10.00,20.00,Monday
250,23.933290851545394
251,7052568.041128434
336,0.0
385,23.93
386,27.33
387,0.476248865560262
388,0.0
425,0.0
450,0.0
451,0.0
452,-1.5529150475864688
453,0.0
490,0.0
515,0.0
516,0.0
542,0.0
592,3438010.2863387787
632,3569039.317490846
686,0.75
687,0.630145699998624
688,1.5
2,21, 1,21, 0, 2,20.00,30.00,Monday
250,23.932889730686203
251,7059825.105079617
336,0.0
385,23.93
386,27.33
387,0.4515953807941854
388,0.0
425,0.0
450,0.0
451,0.0
452,-1.5615452752811283
453,0.0
490,0.0
515,0.0
516,0.0
542,0.0
592,3440181.2061142563
632,3574163.4465340734
686,0.75
687,0.6317705929270871
688,1.5
2,21, 1,21, 0, 2,30.00,40.00,Monday
250,23.932513765126473
251,7066645.787020139
336,0.0
385,23.93
386,27.33
387,0.426767129442362
388,0.0
425,0.0
450,0.0
451,0.0
452,-1.573799992626701
453,0.0
490,0.0
515,0.0
516,0.0
542,0.0
592,3442225.390088362
632,3578969.1972873947
686,0.75
687,0.6333006299338696
688,1.5
2,21, 1,21, 0, 2,40.00,50.00,Monday
250,23.93216130826999
251,7073059.094376995
336,0.0
385,23.93
386,27.33
387,0.401708830751545
388,0.0
425,0.0
450,0.0
451,0.0
452,-1.5890371329542101
453,0.0
490,0.0
515,0.0
516,0.0
542,0.0
592,3444148.8281250354
632,3583483.2095173504
686,0.75
687,0.6347402926133534
688,1.5
2,21, 1,21, 0, 2,50.00,60.00,Monday
250,23.931827924448452
251,7079126.895817501
336,0.0
385,23.93
386,27.33
387,0.37629535149852655
388,0.0
425,0.0
450,0.0
451,0.0
452,-1.6069602156674914
453,0.0
490,0.0
515,0.0
516,0.0
542,0.0
592,3445971.000627497
632,3587748.6286074677
686,0.75
687,0.6361041614017701
688,1.5
2,21, 1,21, 0, 3, 0.00,10.00,Monday
250,23.930912203515508
251,7093379.06042448
336,0.0
385,23.93
386,27.33
387,0.351052973223838
388,0.0
425,0.0
450,0.0
451,0.0
452,-1.6246305334750388
453,0.0
490,0.0
515,0.0
516,0.0
542,0.0
592,3450499.9029240375
632,3597428.881371077
686,0.75
687,0.6394940234393215
688,1.5
2,21, 1,21, 0, 3,10.00,20.00,Monday
250,23.93001226568269
251,7109194.2406898355
336,0.0
385,23.93
386,27.33
387,0.3267196687004048
388,0.0
425,0.0
450,0.0
451,0.0
452,-1.637194402285411
453,0.0
490,0.0
515,0.0
516,0.0
542,0.0
592,3455173.8551526675
632,3608600.183112666
686,0.75
687,0.6429924259375922
688,1.5
2,21, 1,21, 0, 3,20.00,30.00,Monday
250,23.92912216371453
251,7124762.317670349
336,0.0
385,23.93
386,27.33
387,0.3034410545329773
388,0.0
425,0.0
450,0.0
451,0.0
452,-1.6424003528418205
453,0.0
490,0.0
515,0.0
516,0.0
542,0.0
592,3459787.0586387618
632,3619582.7777223694
686,0.75
687,0.6464453597025013
688,1.5
2,21, 1,21, 0, 3,30.00,40.00,Monday
250,23.92824710572082
251,7140093.063709384
336,0.0
385,23.93
386,27.33
387,0.28121714136281084
388,0.0
425,0.0
450,0.0
451,0.0
452,-1.6412721512819068
453,0.0
490,0.0
515,0.0
516,0.0
542,0.0
592,3464327.4845322054
632,3630399.7519686054
686,0.75
687,0.6498438207191856
688,1.5
2,21, 1,21, 0, 3,40.00,50.00,Monday
250,23.92739032844625
251,7155120.389003024
336,0.0
385,23.93
386,27.33
387,0.2600779103129647
388,0.0
425,0.0
450,0.0
451,0.0
452,-1.635799103367531
453,0.0
490,0.0
515,0.0
516,0.0
542,0.0
592,3468776.5212913626
632,3641003.6381956274
686,0.75
687,0.653173878340526
688,1.5
2,21, 1,21, 0, 3,50.00,60.00,Monday
250,23.926553542377782
251,7169807.925455038
336,0.0
385,23.93
386,27.33
387,0.24000534658243433
388,0.0
425,0.0
450,0.0
451,0.0
452,-1.6270760529649784
453,0.0
490,0.0
515,0.0
516,0.0
542,0.0
592,3473123.9248508974
632,3651368.3164089373
686,0.75
687,0.6564278649283406
688,1.5
2,21, 1,21, 0, 4, 0.00,10.00,Monday
250,23.922264166553365
251,7232384.055967536
336,0.0
385,23.93
386,27.33
387,0.2163791754868012
388,0.0
425,0.0
450,0.0
451,0.0
452,-1.6176458622536138
453,0.0
490,0.0
515,0.0
516,0.0
542,0.0
592,3490790.395437482
632,3695949.0806005904
686,0.75
687,0.6723762684874975
688,1.5
2,21, 1,21, 0, 4,10.00,20.00,Monday
250,23.917911813310937
251,7306422.6667036675
336,0.0
385,23.93
386,27.33
387,0.18734411145770102
388,0.0
425,0.0
450,0.0
451,0.0
452,-1.6104328279593174
453,0.0
490,0.0
515,0.0
516,0.0
542,0.0
592,3509974.8635081686
632,3750909.1772222836
686,0.75
687,0.6895424380201022
688,1.5
2,21, 1,21, 0, 4,20.00,30.00,Monday
250,23.91349144454121
251,7381342.182123643
336,0.0
385,23.93
386,27.33
387,0.1554828125488465
388,0.0
425,0.0
450,0.0
451,0.0
452,-1.6073084719378115
453,0.0
490,0.0
515,0.0
516,0.0
542,0.0
592,3529404.2964188275
632,3806502.6638605716
686,0.75
687,0.706975274623059
688,1.5
2,21, 1,21, 0, 4,30.00,40.00,Monday
250,23.909034494101142
251,7457076.229624523
336,0.0
385,23.93
386,27.33
387,0.12201171272349048
388,0.0
425,0.0
450,0.0
451,0.0
452,-1.6094809234834666
453,0.0
490,0.0
515,0.0
516,0.0
542,0.0
592,3548985.6252936525
632,3862753.701545909
686,0.75
687,0.7246066885074681
688,1.5
2,21, 1,21, 0, 4,40.00,50.00,Monday
250,24.400649324349388
251,9844548.814068804
336,0.0
385,24.43
386,27.33
387,0.08727090289240413
388,0.0
425,0.0
450,0.0
451,0.0
452,-1.6174677088911074
453,0.0
490,0.0
515,0.0
516,0.0
542,0.0
592,4761435.855095113
632,4980214.665063952
686,1.0
687,0.992398424277614
688,2.0
2,21, 1,21, 0, 4,50.00,60.00,Monday
250,23.91755524635413
251,7532053.319388958
336,0.0
385,23.93
386,27.33
387,0.05099100724713263
388,0.0
425,0.0
450,0.0
451,0.0
452,-1.6298228732700037
453,0.0
490,0.0
515,0.0
516,0.0
542,0.0
592,3557445.4683161126
632,4040169.690317002
686,0.75
687,0.7367220057358876
688,1.5
2,21, 1,21, 0, 5, 0.00,10.00,Monday
250,23.973670385042155
251,7037213.491206644
336,0.0
385,23.93
386,27.33
387,0.022913626483259175
388,0.0
425,0.0
450,0.0
451,0.0
452,-1.6398870105873624
453,0.0
490,0.0
515,0.0
516,0.0
542,0.0
592,3570192.575272847
632,3389958.9308571885
686,0.75
687,0.75
688,1.5
2,21, 1,21, 0, 5,10.00,20.00,Monday
250,24.83647868876922
251,8321571.660387706
336,0.0
385,24.93
386,27.33
387,0.008527580421806957
388,0.0
425,0.0
450,0.0
451,0.0
452,-1.6412138104892542
453,0.0
490,0.0
515,0.0
516,0.0
542,0.0
592,4753796.85020029
632,3577679.777227943
686,1.0
687,1.0
688,2.0
2,21, 1,21, 0, 5,20.00,30.00,Monday
250,24.923828970688675
251,7961402.755245016
336,0.0
385,24.93
386,27.33
387,-0.0006087360516430967
388,0.0
425,0.0
450,0.0
451,0.0
452,-1.6320990591579514
453,0.0
490,0.0
515,0.0
516,0.0
542,0.0
592,4747356.631969321
632,2984793.0560453613
686,1.0
687,1.0
688,2.0
2,21, 1,21, 0, 5,30.00,40.00,Monday
250,23.80803946985122
251,6247502.113678871
336,0.0
385,23.59666666666665
386,27.329999999999977
387,-0.005506626992699402
388,0.0
425,0.0
450,0.0
451,0.0
452,-1.614785507843256
453,0.0
490,0.0
515,0.0
516,0.0
542,0.0
592,2623156.039477761
632,3544852.378474409
686,0.573918126390495
687,0.49999999999999967
688,1.1666666666666659
2,21, 1,21, 0, 5,40.00,50.00,Monday
250,24.228816996860758
251,6104699.097286218
336,0.0
385,24.26333333333335
386,27.33000000000002
387,-0.008210816919669458
388,0.0
425,0.0
450,0.0
451,0.0
452,-1.5898637557098947
453,0.0
490,0.0
515,0.0
516,0.0
542,0.0
592,3448232.790401382
632,2603338.794768046
686,0.752431337111202
687,0.6666666666666672
688,1.6666666666666679
2,21, 1,21, 0, 5,50.00,60.00,Monday
250,24.46516214264623
251,7256687.592235037
336,0.0
385,24.93
386,27.33
387,-0.009489690409940672
388,0.0
425,0.0
450,0.0
451,0.0
452,-1.5537344717634822
453,0.0
490,0.0
515,0.0
516,0.0
542,0.0
592,4727060.840165812
632,3084074.5510940715
686,1.0
687,1.0
688,2.0
2,21, 1,21, 0, 6, 0.00,10.00,Monday
250,24.885881554036942
251,8423905.81148349
336,0.0
385,24.93
386,27.33
387,-0.017582687410048644
388,0.0
425,0.0
450,0.0
451,0.0
452,-1.5241388949880028
453,0.0
490,0.0
515,0.0
516,0.0
542,0.0
592,4721419.738568601
632,3583954.9417802934
686,1.0
687,1.0
688,2.0
2,21, 1,21, 0, 6,10.00,20.00,Monday
250,23.80299036685431
251,6309084.22262387
336,0.0
385,23.596666666666664
386,27.33
387,-0.032687608181919715
388,0.0
425,0.0
450,0.0
451,0.0
452,-1.50920881262416
453,0.0
490,0.0
515,0.0
516,0.0
542,0.0
592,2623221.6719831214
632,3608299.315022908
686,0.577730477518926
687,0.5
688,1.1666666666666665
2,21, 1,21, 0, 6,20.00,30.00,Monday
250,24.231169439055364
251,6237398.255655971
336,0.0
385,24.263333333333325
386,27.329999999999988
387,-0.053103893105581945
388,0.0
425,0.0
450,0.0
451,0.0
452,-1.504715707823547
453,0.0
490,0.0
515,0.0
516,0.0
542,0.0
592,3472037.576435533
632,2701440.818592016
686,0.7638944374521462
687,0.6666666666666664
688,1.666666666666666
2,21, 1,21, 0, 6,30.00,40.00,Monday
250,24.468275455137956
251,7463417.720102866
336,0.0
385,24.93000000000001
386,27.33000000000001
387,-0.08223249370892723
388,0.0
425,0.0
450,0.0
451,0.0
452,-1.5120548144287516
453,0.0
490,0.0
515,0.0
516,0.0
542,0.0
592,4710259.143444912
632,3305267.0775223216
686,1.0000000000000004
687,1.0000000000000004
688,2.000000000000001
2,21, 1,21, 0, 6,40.00,50.00,Monday
250,24.886255968552504
251,8623208.855607321
336,0.0
385,24.93
386,27.33
387,-0.11130941660858282
388,0.0
425,0.0
450,0.0
451,0.0
452,-1.5301859961916557
453,0.0
490,0.0
515,0.0
516,0.0
542,0.0
592,4703510.587502492
632,3800367.824452492
686,1.0
687,1.0
688,2.0
2,21, 1,21, 0, 6,50.00,60.00,Monday
250,23.792474480530487
251,6507193.483933641
336,0.0
385,23.596666666666636
386,27.32999999999996
387,-0.13909021300171862
388,0.0
425,0.0
450,0.0
451,0.0
452,-1.556761487483492
453,0.0
490,0.0
515,0.0
516,0.0
542,0.0
592,2648236.1125553134
632,3784987.143619788
686,0.5882823953107807
687,0.49999999999999933
688,1.166666666666665
2,21, 1,21, 0, 7, 0.00,10.00,Monday
250,24.234355019914133
251,6436666.391782944
336,0.0
385,24.263333333333332
386,27.33
387,-0.17436680968293655
388,0.0
425,0.0
450,0.0
451,0.0
452,-1.6031443532363485
453,0.0
490,0.0
515,0.0
516,0.0
542,0.0
592,3533395.0332411574
632,2824420.67185738
686,0.7805207003090519
687,0.6666666666666666
688,1.6666666666666665
2,21, 1,21, 0, 7,10.00,20.00,Monday
250,24.471438368534976
251,7595966.222104156
336,0.0
385,24.93
386,27.33
387,-0.22584413396704875
388,0.0
425,0.0
450,0.0
451,0.0
452,-1.6924948099173112
453,0.0
490,0.0
515,0.0
516,0.0
542,0.0
592,4743503.493716407
632,3400280.333183252
686,1.0
687,1.0
688,2.0
2,21, 1,21, 0, 7,20.00,30.00,Monday
250,24.886566380802506
251,8711719.200682685
336,0.0
385,24.93
386,27.33
387,-0.2799623250994935
388,0.0
425,0.0
450,0.0
451,0.0
452,-1.8152140736660067
453,0.0
490,0.0
515,0.0
516,0.0
542,0.0
592,4761369.8277678015
632,3830166.151348103
686,1.0
687,1.0
688,2.0
2,21, 1,21, 0, 7,30.00,40.00,Monday
250,23.789928002385118
251,6553725.073946049
336,0.0
385,23.59666666666665
386,27.329999999999977
387,-0.3348444438918981
388,0.0
425,0.0
450,0.0
451,0.0
452,-1.9662880703462204
453,0.0
490,0.0
515,0.0
516,0.0
542,0.0
592,2697709.0328893447
632,3783116.292203028
686,0.5892490590913032
687,0.49999999999999967
688,1.1666666666666659
2,21, 1,21, 0, 7,40.00,50.00,Monday
250,24.234505965315677
251,6467299.680524686
336,0.0
385,24.26333333333335
386,27.33000000000002
387,-0.40047946843893334
388,0.0
425,0.0
450,0.0
451,0.0
452,-2.1574251197685306
453,0.0
490,0.0
515,0.0
516,0.0
542,0.0
592,3597185.9327317006
632,2790412.786131975
686,0.7817809797319595
687,0.6666666666666672
688,1.6666666666666679
2,21, 1,21, 0, 7,50.00,60.00,Monday
250,24.471543279052355
251,7621865.968475486
336,0.0
385,24.93
386,27.33
387,-0.4885142871087614
388,0.0
425,0.0
450,0.0
451,0.0
452,-2.4134594845115744
453,0.0
490,0.0
515,0.0
516,0.0
542,0.0
592,4821742.162516965
632,3347244.0224668137
686,1.0
687,1.0
688,2.0
2,21, 1,21, 0, 8, 0.00,10.00,Monday
250,24.886577051997335
251,8365005.912310973
336,0.0
385,24.93
386,27.33
387,-0.5635710498177964
388,0.0
425,0.0
450,0.0
451,0.0
452,-2.6443882785664163
453,0.0
490,0.0
515,0.0
516,0.0
542,0.0
592,4829340.300401132
632,3415408.492123501
686,1.0
687,1.0
688,2.0
2,21, 1,21, 0, 8,10.00,20.00,Monday
250,23.81348689771875
251,6109990.901537872
336,0.0
385,23.596666666666664
386,27.33
387,-0.6137080849669049
388,0.0
425,0.0
450,0.0
451,0.0
452,-2.7588320342079578
453,0.0
490,0.0
515,0.0
516,0.0
542,0.0
592,2651661.6264360705
632,3377296.316242251
686,0.5665181825612594
687,0.5
688,1.1666666666666665
2,21, 1,21, 0, 8,20.00,30.00,Monday
250,24.225853163177568
251,5941717.777603521
336,0.0
385,24.263333333333325
386,27.329999999999988
387,-0.6568872590731653
388,0.0
425,0.0
450,0.0
451,0.0
452,-2.776466440470564
453,0.0
490,0.0
515,0.0
516,0.0
542,0.0
592,3482396.172750178
632,2419946.3671607617
686,0.7380919461981454
687,0.6666666666666664
688,1.666666666666666
2,21, 1,21, 0, 8,30.00,40.00,Monday
250,24.4619781398273
251,7072844.865749491
336,0.0
385,24.93000000000001
386,27.33000000000001
387,-0.6951096743445239
388,0.0
425,0.0
450,0.0
451,0.0
452,-2.6789247057548473
453,0.0
490,0.0
515,0.0
516,0.0
542,0.0
592,4863965.10046479
632,2766263.69201592
686,1.0000000000000004
687,1.0000000000000004
688,2.000000000000001
2,21, 1,21, 0, 8,40.00,50.00,Monday
250,24.885474598663535
251,8089735.720821504
336,0.0
385,24.93
386,27.33
387,-0.7119479456745095
388,0.0
425,0.0
450,0.0
451,0.0
452,-2.46856815998611
453,0.0
490,0.0
515,0.0
516,0.0
542,0.0
592,4871363.731218228
632,3100567.4379596445
686,1.0
687,1.0
688,2.0
2,21, 1,21, 0, 8,50.00,60.00,Monday
250,23.82871356347038
251,5821111.702011197
336,0.0
385,23.596666666666636
386,27.32999999999996
387,-0.7052830152652118
388,0.0
425,0.0
450,0.0
451,0.0
452,-2.1633571530441844
453,0.0
490,0.0
515,0.0
516,0.0
542,0.0
592,2621815.844351856
632,3113155.13910498
686,0.55144132399258
687,0.49999999999999933
688,1.166666666666665
2,21, 1,21, 0, 9, 0.00,10.00,Monday
250,24.21431610666093
251,5288761.562609825
336,0.0
385,24.263333333333332
386,27.33
387,-0.6786230240472806
388,0.0
425,0.0
450,0.0
451,0.0
452,-1.7661341065772351
453,0.0
490,0.0
515,0.0
516,0.0
542,0.0
592,3334842.8326470954
632,1966691.2271533275
686,0.6861778990371509
687,0.6666666666666666
688,1.6666666666666665
2,21, 1,21, 0, 9,10.00,20.00,Monday
250,24.85929944397625
251,7257818.417044023
336,0.0
385,24.93
386,27.33
387,-0.631683620480044
388,0.0
425,0.0
450,0.0
451,0.0
452,-1.2606407388335112
453,0.0
490,0.0
515,0.0
516,0.0
542,0.0
592,4916735.505984352
632,2287777.188135245
686,1.0
687,1.0
688,2.0
2,21, 1,21, 0, 9,20.00,30.00,Monday
250,23.60107005639477
251,5496449.362480832
336,0.0
385,23.596666666666657
386,27.329999999999988
387,-0.5696006992574223
388,0.0
425,0.0
450,0.0
451,0.0
452,-0.7081800055703259
453,0.0
490,0.0
515,0.0
516,0.0
542,0.0
592,3290549.53332221
632,2053647.205049594
686,0.6666666666666664
687,0.6666666666666664
688,1.3333333333333328
2,21, 1,21, 0, 9,30.00,40.00,Monday
250,24.208145890033364
251,5099228.001179613
336,0.0
385,24.263333333333343
386,27.33000000000001
387,-0.47264132159561223
388,0.0
425,0.0
450,0.0
451,0.0
452,0.0350660583928388
453,0.0
490,0.0
515,0.0
516,0.0
542,0.0
592,3036692.390162405
632,2104478.2065360346
686,0.704873894238533
687,0.3784609122301173
688,1.666666666666667
2,21, 1,21, 0, 9,40.00,50.00,Monday
250,24.24179860925624
251,6415267.424259468
336,0.0
385,24.26333333333335
386,27.33000000000002
387,-0.3880528555866882
388,0.0
425,0.0
450,0.0
451,0.0
452,0.6714926791043896
453,0.0
490,0.0
515,0.0
516,0.0
542,0.0
592,2677100.7706108154
632,3676226.0791194015
686,0.6187320866950845
687,0.3333333333333336
688,1.3333333333333344
2,21, 1,21, 0, 9,50.00,60.00,Monday
250,24.861389310526345
251,7071364.568191781
336,0.0
385,24.93
386,27.33
387,-0.314748359122453
388,0.0
425,0.0
450,0.0
451,0.0
452,1.1860330848347944
453,0.0
490,0.0
515,0.0
516,0.0
542,0.0
592,4987886.410218772
632,2022901.7576101879
686,1.0
687,1.0
688,2.0
2,21, 1,21, 0,10, 0.00,10.00,Monday
250,23.861596797578997
251,5144800.696205346
336,0.0
385,23.59666666666666
386,27.33
387,-0.24176502814904527
388,0.0
425,0.0
450,0.0
451,0.0
452,1.6522011465852726
453,0.0
490,0.0
515,0.0
516,0.0
542,0.0
592,2378218.0809422825
632,2687044.4616640294
686,0.5159881342953451
687,0.36459673880463084
688,1.1666666666666665
2,21, 1,21, 0,10,10.00,20.00,Monday
250,24.822351654443143
251,7072575.383023886
336,0.0
385,24.930000000000007
386,27.330000000000005
387,-0.1512109390477359
388,0.0
425,0.0
450,0.0
451,0.0
452,2.1784726035350306
453,0.0
490,0.0
515,0.0
516,0.0
542,0.0
592,5054562.476580616
632,2056605.128124799
686,1.0000000000000002
687,1.0000000000000002
688,2.0000000000000004
2,21, 1,21, 0,10,20.00,30.00,Monday
250,23.636284314607526
251,5076177.092962945
336,0.0
385,23.596666666666657
386,27.329999999999988
387,-0.051203442950046495
388,0.0
425,0.0
450,0.0
451,0.0
452,2.7246494288030454
453,0.0
490,0.0
515,0.0
516,0.0
542,0.0
592,3392669.303193181
632,1521688.6544437322
686,0.6666666666666664
687,0.6666666666666664
688,1.3333333333333328
2,21, 1,21, 0,10,30.00,40.00,Monday
250,24.202196573168525
251,4704901.5013871025
336,0.0
385,24.263333333333343
386,27.33000000000001
387,0.09875540033583002
388,0.0
425,0.0
450,0.0
451,0.0
452,3.4516305722506475
453,0.0
490,0.0
515,0.0
516,0.0
542,0.0
592,2823749.2561250827
632,1958011.3444461618
686,0.6363101467504853
687,0.3333333333333332
688,1.3333333333333335
2,21, 1,21, 0,10,40.00,50.00,Monday
250,24.232709747594285
251,5917026.9368654825
336,0.0
385,24.26333333333335
386,27.33000000000002
387,0.24642443899189767
388,0.0
425,0.0
450,0.0
451,0.0
452,4.1479984484475985
453,0.0
490,0.0
515,0.0
516,0.0
542,0.0
592,2426232.647951403
632,3479032.293913948
686,0.5241994530478954
687,0.3333333333333336
688,1.3333333333333344
2,21, 1,21, 0,10,50.00,60.00,Monday
250,24.23281245914891
251,5820639.459598181
336,0.0
385,24.26333333333335
386,27.33000000000002
387,0.4071074162578704
388,0.0
425,0.0
450,0.0
451,0.0
452,4.911627595107508
453,0.0
490,0.0
515,0.0
516,0.0
542,0.0
592,2387343.6988970703
632,3423866.184971201
686,0.5095825215490033
687,0.3333333333333336
688,1.3333333333333344
2,21, 1,21, 0,11, 0.00,10.00,Monday
250,24.23125547777523
251,5724652.223129452
336,0.0
385,24.263333333333332
386,27.33
387,0.5796053160587629
388,0.0
425,0.0
450,0.0
451,0.0
452,5.7380828612147265
453,0.0
490,0.0
515,0.0
516,0.0
542,0.0
592,2334479.697464301
632,3389202.735419791
686,0.49319780163261595
687,0.3333333333333333
688,1.3333333333333335
2,21, 1,21, 0,11,10.00,20.00,Monday
250,24.23586137592015
251,5641705.934954871
336,0.0
385,24.263333333333325
386,27.329999999999988
387,0.7621900557471144
388,0.0
425,0.0
450,0.0
451,0.0
452,6.607959046709176
453,0.0
490,0.0
515,0.0
516,0.0
542,0.0
592,2293335.6239947267
632,3351561.747835582
686,0.480046396660681
687,0.3333333333333332
688,0.9999999999999996
2,21, 1,21, 0,11,20.00,30.00,Monday
250,23.904517628727074
251,4363198.563076509
336,0.0
385,23.730000000000004
386,27.330000000000002
387,0.9101267615936272
388,0.0
425,0.0
450,0.0
451,0.0
452,7.3744612913567895
453,0.0
490,0.0
515,0.0
516,0.0
542,0.0
592,2281113.662771177
632,2140936.0637811045
686,0.44847847268132107
687,0.4
688,1.0
2,21, 1,21, 0,11,30.00,40.00,Monday
250,24.004871525116542
251,4440905.773898387
336,0.0
385,23.930000000000007
386,27.33000000000001
387,1.0808664669223336
388,0.0
425,0.0
450,0.0
451,0.0
452,8.207497121204856
453,0.0
490,0.0
515,0.0
516,0.0
542,0.0
592,1964347.795221958
632,2601137.9687838955
686,0.42115439335122723
687,0.25
688,1.0000000000000004
2,21, 1,21, 0,11,40.00,50.00,Monday
250,24.03705222170527
251,5285687.1513325935
336,0.0
385,23.93
386,27.33
387,1.3466908414168695
388,0.0
425,0.0
450,0.0
451,0.0
452,9.235653318359594
453,0.0
490,0.0
515,0.0
516,0.0
542,0.0
592,3149328.4015062386
632,2096662.992604674
686,0.6338018587047312
687,0.5
688,1.25
2,21, 1,21, 0,11,50.00,60.00,Monday
250,24.041424349884995
251,5204233.43209884
336,0.0
385,23.93
386,27.33
387,1.5864680873779249
388,0.0
425,0.0
450,0.0
451,0.0
452,10.018307600703835
453,0.0
490,0.0
515,0.0
516,0.0
542,0.0
592,3137308.9270040137
632,2023552.842893515
686,0.6277551219175609
687,0.5
688,1.25
2,21, 1,21, 0,12, 0.00,10.00,Monday
250,24.043023004273202
251,5163815.119339417
336,0.0
385,23.93
386,27.33
387,1.807155116494423
388,0.0
425,0.0
450,0.0
451,0.0
452,10.658716659433065
453,0.0
490,0.0
515,0.0
516,0.0
542,0.0
592,3128280.106089194
632,1991890.4017546042
686,0.6242479853001955
687,0.5
688,1.25
2,21, 1,21, 0,12,10.00,20.00,Monday
250,24.044690150277276
251,5157283.450670341
336,0.0
385,23.93
386,27.33
387,2.0142052793603766
388,0.0
425,0.0
450,0.0
451,0.0
452,11.161618992660129
453,0.0
490,0.0
515,0.0
516,0.0
542,0.0
592,3134875.503562198
632,1978598.4015772534
686,0.624835401601855
687,0.5
688,1.25
2,21, 1,21, 0,12,20.00,30.00,Monday
250,24.046514709924
251,5133073.724885112
336,0.0
385,23.93
386,27.33
387,2.2057340826803973
388,0.0
425,0.0
450,0.0
451,0.0
452,11.534723644031512
453,0.0
490,0.0
515,0.0
516,0.0
542,0.0
592,3132794.835699436
632,1956451.746689906
686,0.6231557558950009
687,0.5
688,1.25
2,21, 1,21, 0,12,30.00,40.00,Monday
250,24.047775325586393
251,5110863.567150904
336,0.0
385,23.93
386,27.33
387,2.3776691690343545
388,0.0
425,0.0
450,0.0
451,0.0
452,11.780694779683802
453,0.0
490,0.0
515,0.0
516,0.0
542,0.0
592,3130479.813576499
632,1936498.019159217
686,0.6214195841253897
687,0.5
688,1.25
2,21, 1,21, 0,12,40.00,50.00,Monday
250,24.0486970529819
251,5092935.4298664695
336,0.0
385,23.93
386,27.33
387,2.526605181241945
388,0.0
425,0.0
450,0.0
451,0.0
452,11.876480549525175
453,0.0
490,0.0
515,0.0
516,0.0
542,0.0
592,3128817.0753172776
632,1920219.2415369896
686,0.6198579358893388
687,0.5
688,1.25
2,21, 1,21, 0,12,50.00,60.00,Monday
250,24.04948180100067
251,5075859.446031307
336,0.0
385,23.93
386,27.33
387,2.6517170280387576
388,0.0
425,0.0
450,0.0
451,0.0
452,11.830849545230025
453,0.0
490,0.0
515,0.0
516,0.0
542,0.0
592,3126833.163606616
632,1905156.3424982994
686,0.6182169576899194
687,0.5
688,1.25
2,21, 1,21, 0,13, 0.00,10.00,Monday
250,24.05021768271027
251,5055942.927511952
336,0.0
385,23.93
386,27.33
387,2.756300957537809
388,0.0
425,0.0
450,0.0
451,0.0
452,11.712899790759982
453,0.0
490,0.0
515,0.0
516,0.0
542,0.0
592,3117674.355548716
632,1894472.6003381729
686,0.6164053993162465
687,0.5
688,1.25
2,21, 1,21, 0,13,10.00,20.00,Monday
250,24.053795946968098
251,4984778.577977008
336,0.0
385,23.93
386,27.33
387,2.8459801171621875
388,0.0
425,0.0
450,0.0
451,0.0
452,11.603844195306436
453,0.0
490,0.0
515,0.0
516,0.0
542,0.0
592,3088692.2287371764
632,1852818.830892394
686,0.6094295944624226
687,0.5
688,1.25
2,21, 1,21, 0,13,20.00,30.00,Monday
250,24.057243704171377
251,4938480.296580244
336,0.0
385,23.93
386,27.33
387,2.9258506411848404
388,0.0
425,0.0
450,0.0
451,0.0
452,11.53707646006555
453,0.0
490,0.0
515,0.0
516,0.0
542,0.0
592,3076289.5558006163
632,1818806.2210361974
686,0.6067641743584439
687,0.5
688,1.25
2,21, 1,21, 0,13,30.00,40.00,Monday
250,24.060350027753902
251,4889193.341311348
336,0.0
385,23.93
386,27.33
387,3.0008655106325834
388,0.0
425,0.0
450,0.0
451,0.0
452,11.503712777571613
453,0.0
490,0.0
515,0.0
516,0.0
542,0.0
592,3043251.745568356
632,1804267.248240198
686,0.6034481603250919
687,0.48784475822141227
688,1.25
2,21, 1,21, 0,13,40.00,50.00,Monday
250,24.063177415595213
251,4838112.139823062
336,0.0
385,23.93
386,27.33
387,3.0740962596108985
388,0.0
425,0.0
450,0.0
451,0.0
452,11.487062159555586
453,0.0
490,0.0
515,0.0
516,0.0
542,0.0
592,2993921.138325597
632,1805779.9337862446
686,0.599734068133718
687,0.46576605012121086
688,1.25
2,21, 1,21, 0,13,50.00,60.00,Monday
250,24.065970854534115
251,4786816.937839309
336,0.0
385,23.93
386,27.33
387,3.1461724253431913
388,0.0
425,0.0
450,0.0
451,0.0
452,11.476251867148072
453,0.0
490,0.0
515,0.0
516,0.0
542,0.0
592,2944921.0790479784
632,1806761.0273760199
686,0.5959480187202285
687,0.44404954239222916
688,1.25
2,21, 1,21, 0,14, 0.00,10.00,Monday
250,24.069666331792163
251,4723087.897144803
336,0.0
385,23.93
386,27.33
387,3.2187027705725293
388,0.0
425,0.0
450,0.0
451,0.0
452,11.434752297469288
453,0.0
490,0.0
515,0.0
516,0.0
542,0.0
592,2891866.276837093
632,1800268.0734860403
686,0.5907526546105167
687,0.417294820785271
688,1.25
2,21, 1,21, 0,14,10.00,20.00,Monday
250,24.071017037450392
251,4684496.050970339
336,0.0
385,23.93
386,27.33
387,3.289837450369319
388,0.0
425,0.0
450,0.0
451,0.0
452,11.318992111459044
453,0.0
490,0.0
515,0.0
516,0.0
542,0.0
592,2852004.9950385313
632,1804870.9798194938
686,0.5877099626120221
687,0.393986756908139
688,1.25
2,21, 1,21, 0,14,20.00,30.00,Monday
250,24.072555889430344
251,4655538.611274313
336,0.0
385,23.93
386,27.33
387,3.3548805502443373
388,0.0
425,0.0
450,0.0
451,0.0
452,11.12792686307965
453,0.0
490,0.0
515,0.0
516,0.0
542,0.0
592,2828144.8221772136
632,1802007.709009204
686,0.5853044079124621
687,0.3798514787783612
688,1.25
2,21, 1,21, 0,14,30.00,40.00,Monday
250,24.073031522797333
251,4640673.532676405
336,0.0
385,23.93
386,27.33
387,3.406296336096335
388,0.0
425,0.0
450,0.0
451,0.0
452,10.84657117243167
453,0.0
490,0.0
515,0.0
516,0.0
542,0.0
592,2813256.3386814483
632,1803676.7341951637
686,0.5841140840545392
687,0.36865900284938
688,1.25
2,21, 1,21, 0,14,40.00,50.00,Monday
250,24.0729770556727
251,4636024.593537363
336,0.0
385,23.93
386,27.33
387,3.437945386744233
388,0.0
425,0.0
450,0.0
451,0.0
452,10.439742542743003
453,0.0
490,0.0
515,0.0
516,0.0
542,0.0
592,2811300.2082893024
632,1801588.2061430207
686,0.5835188520282333
687,0.36461909636302353
688,1.25
2,21, 1,21, 0,14,50.00,60.00,Monday
250,24.07255593237685
251,4638209.074876359
336,0.0
385,23.93
386,27.33
387,3.4488305802492016
388,0.0
425,0.0
450,0.0
451,0.0
452,9.911916127543577
453,0.0
490,0.0
515,0.0
516,0.0
542,0.0
592,2817291.881930761
632,1797751.4551071587
686,0.5833532683552219
687,0.36480538614048563
688,1.25
2,21, 1,21, 0,15, 0.00,10.00,Monday
250,24.071316107069702
251,4650754.671911607
336,0.0
385,23.93
386,27.33