Program Version,EnergyPlus, Version 24.2.0-94a887817b, YMD=2025.02.04 15:52
1,5,Environment Title[],Latitude[deg],Longitude[deg],Time Zone[],Elevation[m]
2,8,Day of Simulation[],Month[],Day of Month[],DST Indicator[1=yes 0=no],Hour[],StartMinute[],EndMinute[],DayType
3,5,Cumulative Day of Simulation[],Month[],Day of Month[],DST Indicator[1=yes 0=no],DayType  ! When Daily Report Variables Requested
4,2,Cumulative Days of Simulation[],Month[]  ! When Monthly Report Variables Requested
5,1,Cumulative Days of Simulation[] ! When Run Period Report Variables Requested
6,1,Calendar Year of Simulation[] ! When Annual Report Variables Requested
250,1,LIVING ZONE,Zone Air Temperature [C] !TimeStep,REPORTSCH
251,1,LIVING ZONE,Zone Air System Sensible Heating Energy [J] !TimeStep,REPORTSCH
336,1,LIVING ZONE,Zone Air System Sensible Cooling Energy [J] !TimeStep,REPORTSCH
385,1,LIVING ZONE,Zone Thermostat Heating Setpoint Temperature [C] !TimeStep,REPORTSCH
386,1,LIVING ZONE,Zone Thermostat Cooling Setpoint Temperature [C] !TimeStep,REPORTSCH
387,1,GARAGE ZONE,Zone Air Temperature [C] !TimeStep,REPORTSCH
388,1,GARAGE ZONE,Zone Air System Sensible Heating Energy [J] !TimeStep,REPORTSCH
425,1,GARAGE ZONE,Zone Air System Sensible Cooling Energy [J] !TimeStep,REPORTSCH
450,1,GARAGE ZONE,Zone Thermostat Heating Setpoint Temperature [C] !TimeStep,REPORTSCH
451,1,GARAGE ZONE,Zone Thermostat Cooling Setpoint Temperature [C] !TimeStep,REPORTSCH
452,1,ATTIC ZONE,Zone Air Temperature [C] !TimeStep,REPORTSCH
453,1,ATTIC ZONE,Zone Air System Sensible Heating Energy [J] !TimeStep,REPORTSCH
490,1,ATTIC ZONE,Zone Air System Sensible Cooling Energy [J] !TimeStep,REPORTSCH
515,1,ATTIC ZONE,Zone Thermostat Heating Setpoint Temperature [C] !TimeStep,REPORTSCH
516,1,ATTIC ZONE,Zone Thermostat Cooling Setpoint Temperature [C] !TimeStep,REPORTSCH
542,1,ACDXCOIL 1,Cooling Coil Total Cooling Energy [J] !TimeStep,REPORTSCH
592,1,HEAT PUMP DX HEATING COIL 1,Heating Coil Heating Energy [J] !TimeStep,REPORTSCH
632,1,SUPP HEATING COIL 1,Heating Coil Heating Energy [J] !TimeStep,REPORTSCH
686,1,TWOSPEED HEAT PUMP 1,Unitary System DX Coil Cycling Ratio [] !TimeStep,REPORTSCH
687,1,TWOSPEED HEAT PUMP 1,Unitary System DX Coil Speed Ratio [] !TimeStep,REPORTSCH
688,1,TWOSPEED HEAT PUMP 1,Unitary System DX Coil Speed Level [] !TimeStep,REPORTSCH
End of Data Dictionary
1,RUN PERIOD 1,  41.98, -87.92,  -6.00, 201.00
2,21, 1,21, 0, 1, 0.00,10.00,Monday
250,25.52851882151646
251,0.0
336,6772163.682119241
385,20.79
386,23.851428571428574
387,0.7739135072334953
388,0.0
425,0.0
450,0.0
451,0.0
452,-1.639483502988332
453,0.0
490,0.0
515,0.0
516,0.0
542,7680803.653813196
592,0.0
632,0.0
686,0.8571428571428572
687,0.8351064404790524
688,1.7142857142857144
2,21, 1,21, 0, 1,10.00,20.00,Monday
250,24.923734785144326
251,0.0
336,6638111.004256529
385,20.79
386,23.28
387,0.7469505303791155
388,0.0
425,0.0
450,0.0
451,0.0
452,-1.6281695637110483
453,0.0
490,0.0
515,0.0
516,0.0
542,9329990.60855653
592,0.0
632,0.0
686,1.0
687,1.0
688,2.0
2,21, 1,21, 0, 1,20.00,30.00,Monday
250,26.611917182102633
251,0.0
336,5303539.85566503
385,20.79
386,23.28
387,0.7236663020169187
388,0.0
425,0.0
450,0.0
451,0.0
452,-1.616118306602725
453,0.0
490,0.0
515,0.0
516,0.0
542,10611042.448525479
592,0.0
632,0.0
686,1.0
687,1.0
688,2.0
2,21, 1,21, 0, 1,30.00,40.00,Monday
250,26.866582861650148
251,0.0
336,3869666.151099735
385,20.79
386,23.28
387,0.6994352510780282
388,0.0
425,0.0
450,0.0
451,0.0
452,-1.5996567000111697
453,0.0
490,0.0
515,0.0
516,0.0
542,10801940.453041485
592,0.0
632,0.0
686,1.0
687,1.0
688,2.0
2,21, 1,21, 0, 1,40.00,50.00,Monday
250,27.6053934355024
251,0.0
336,3250553.719780176
385,20.79
386,23.28
387,0.6804330827808578
388,0.0
425,0.0
450,0.0
451,0.0
452,-1.58172100677682
453,0.0
490,0.0
515,0.0
516,0.0
542,10801940.453041486
592,0.0
632,0.0
686,1.0
687,1.0
688,2.0
2,21, 1,21, 0, 1,50.00,60.00,Monday
250,27.93384619905168
251,0.0
336,2657368.417924044
385,20.79
386,23.28
387,0.6608657201937552
388,0.0
425,0.0
450,0.0
451,0.0
452,-1.55786895645404
453,0.0
490,0.0
515,0.0
516,0.0
542,10801940.453041483
592,0.0
632,0.0
686,1.0
687,1.0
688,2.0
2,21, 1,21, 0, 2, 0.00,10.00,Monday
250,28.019873451709426
251,0.0
336,2607495.7625438278
385,20.79
386,23.28
387,0.6448979405845384
388,0.0
425,0.0
450,0.0
451,0.0
452,-1.5350483547618032
453,0.0
490,0.0
515,0.0
516,0.0
542,10801940.45304148
592,0.0
632,0.0
686,1.0
687,1.0
688,2.0
2,21, 1,21, 0, 2,10.00,20.00,Monday
250,28.06304980072309
251,0.0
336,2546677.1926621646
385,20.79
386,23.28
387,0.6311925711607248
388,0.0
425,0.0
450,0.0
451,0.0
452,-1.5159609947207244
453,0.0
490,0.0
515,0.0
516,0.0
542,10801940.45304148
592,0.0
632,0.0
686,1.0
687,1.0
688,2.0
2,21, 1,21, 0, 2,20.00,30.00,Monday
250,28.146668280733845
251,0.0
336,2564362.0075986153
385,20.79
386,23.28
387,0.6179697670910944
388,0.0
425,0.0
450,0.0
451,0.0
452,-1.5018136014554757
453,0.0
490,0.0
515,0.0
516,0.0
542,10801940.453041486
592,0.0
632,0.0
686,1.0
687,1.0
688,2.0
2,21, 1,21, 0, 2,30.00,40.00,Monday
250,28.22986171379927
251,0.0
336,2554571.026438256
385,20.79
386,23.28
387,0.6042026164017614
388,0.0
425,0.0
450,0.0
451,0.0
452,-1.4924086253121043
453,0.0
490,0.0
515,0.0
516,0.0
542,10801940.45304148
592,0.0
632,0.0
686,1.0
687,1.0
688,2.0
2,21, 1,21, 0, 2,40.00,50.00,Monday
250,28.288676171186044
251,0.0
336,2531449.2131420714
385,20.79
386,23.28
387,0.5896782373275153
388,0.0
425,0.0
450,0.0
451,0.0
452,-1.4872640528267231
453,0.0
490,0.0
515,0.0
516,0.0
542,10801940.45304148
592,0.0
632,0.0
686,1.0
687,1.0
688,2.0
2,21, 1,21, 0, 2,50.00,60.00,Monday
250,28.337499442881985
251,0.0
336,2519176.148216092
385,20.79
386,23.28
387,0.574193568626105
388,0.0
425,0.0
450,0.0
451,0.0
452,-1.486035986408403
453,0.0
490,0.0
515,0.0
516,0.0
542,10801940.453041486
592,0.0
632,0.0
686,1.0
687,1.0
688,2.0
2,21, 1,21, 0, 3, 0.00,10.00,Monday
250,28.380830285405118
251,0.0
336,2510568.034083378
385,20.79
386,23.28
387,0.5582410970491509
388,0.0
425,0.0
450,0.0
451,0.0
452,-1.4860043706876687
453,0.0
490,0.0
515,0.0
516,0.0
542,10801940.453041486
592,0.0
632,0.0
686,1.0
687,1.0
688,2.0
2,21, 1,21, 0, 3,10.00,20.00,Monday
250,28.420246421375147
251,0.0
336,2503474.3014975335
385,20.79
386,23.28
387,0.5423897980652642
388,0.0
425,0.0
450,0.0
451,0.0
452,-1.482770550110358
453,0.0
490,0.0
515,0.0
516,0.0
542,10801940.453041486
592,0.0
632,0.0
686,1.0
687,1.0
688,2.0
2,21, 1,21, 0, 3,20.00,30.00,Monday
250,28.45668689506685
251,0.0
336,2497357.163666426
385,20.79
386,23.28
387,0.5269297634533034
388,0.0
425,0.0
450,0.0
451,0.0
452,-1.473628697289614
453,0.0
490,0.0
515,0.0
516,0.0
542,10801940.45304148
592,0.0
632,0.0
686,1.0
687,1.0
688,2.0
2,21, 1,21, 0, 3,30.00,40.00,Monday
250,28.490084437845454
251,0.0
336,2491544.664480784
385,20.79
386,23.28
387,0.5119709011227234
388,0.0
425,0.0
450,0.0
451,0.0
452,-1.459140039322405
453,0.0
490,0.0
515,0.0
516,0.0
542,10801940.45304148
592,0.0
632,0.0
686,1.0
687,1.0
688,2.0
2,21, 1,21, 0, 3,40.00,50.00,Monday
250,28.52120794921369
251,0.0
336,2486511.022721951
385,20.79
386,23.28
387,0.49759422800608727
388,0.0
425,0.0
450,0.0
451,0.0
452,-1.4413969120968035
453,0.0
490,0.0
515,0.0
516,0.0
542,10801940.453041486
592,0.0
632,0.0
686,1.0
687,1.0
688,2.0
2,21, 1,21, 0, 3,50.00,60.00,Monday
250,28.550507232157017
251,0.0
336,2481989.480920922
385,20.79
386,23.28
387,0.48387158062101154
388,0.0
425,0.0
450,0.0
451,0.0
452,-1.4217115527406834
453,0.0
490,0.0
515,0.0
516,0.0
542,10801940.45304148
592,0.0
632,0.0
686,1.0
687,1.0
688,2.0
2,21, 1,21, 0, 4, 0.00,10.00,Monday
250,28.54330814421745
251,0.0
336,2458020.4318470783
385,20.79
386,23.28
387,0.4682975437999519
388,0.0
425,0.0
450,0.0
451,0.0
452,-1.4019786586235077
453,0.0
490,0.0
515,0.0
516,0.0
542,10801940.453041486
592,0.0
632,0.0
686,1.0
687,1.0
688,2.0
2,21, 1,21, 0, 4,10.00,20.00,Monday
250,28.522566107388673
251,0.0
336,2451309.6999120214
385,20.79
386,23.28
387,0.4491466302635709
388,0.0
425,0.0
450,0.0
451,0.0
452,-1.384871660249245
453,0.0
490,0.0
515,0.0
516,0.0
542,10801940.45304148
592,0.0
632,0.0
686,1.0
687,1.0
688,2.0
2,21, 1,21, 0, 4,20.00,30.00,Monday
250,28.50820776384858
251,0.0
336,2457287.4078986812
385,20.79
386,23.28
387,0.4268231489786889
388,0.0
425,0.0
450,0.0
451,0.0
452,-1.3726896808643814
453,0.0
490,0.0
515,0.0
516,0.0
542,10801940.453041486
592,0.0
632,0.0
686,1.0
687,1.0
688,2.0
2,21, 1,21, 0, 4,30.00,40.00,Monday
250,28.496027284599663
251,0.0
336,2460192.0853189705
385,20.79
386,23.28
387,0.40245880217355195
388,0.0
425,0.0
450,0.0
451,0.0
452,-1.3666767165593035
453,0.0
490,0.0
515,0.0
516,0.0
542,10801940.45304148
592,0.0
632,0.0
686,1.0
687,1.0
688,2.0
2,21, 1,21, 0, 4,40.00,50.00,Monday
250,28.479647046304667
251,0.0
336,2459279.5489293607
385,20.79
386,23.28
387,0.37675069495462365
388,0.0
425,0.0
450,0.0
451,0.0
452,-1.3672088849479827
453,0.0
490,0.0
515,0.0
516,0.0
542,10801940.45304148
592,0.0
632,0.0
686,1.0
687,1.0
688,2.0
2,21, 1,21, 0, 4,50.00,60.00,Monday
250,28.459415366006876
251,0.0
336,2459035.89374561
385,20.79
386,23.28
387,0.34949950460267726
388,0.0
425,0.0
450,0.0
451,0.0
452,-1.3725088300693473
453,0.0
490,0.0
515,0.0
516,0.0
542,10801940.453041486
592,0.0
632,0.0
686,1.0
687,1.0
688,2.0
2,21, 1,21, 0, 5, 0.00,10.00,Monday
250,28.497541522297382
251,0.0
336,2494532.580632914
385,20.79
386,23.28
387,0.32603398025022395
388,0.0
425,0.0
450,0.0
451,0.0
452,-1.377735853806295
453,0.0
490,0.0
515,0.0
516,0.0
542,10801940.453041486
592,0.0
632,0.0
686,1.0
687,1.0
688,2.0
2,21, 1,21, 0, 5,10.00,20.00,Monday
250,28.555096087331766
251,0.0
336,2501057.0261191903
385,20.79
386,23.28
387,0.3096673164716651
388,0.0
425,0.0
450,0.0
451,0.0
452,-1.3769358756573082
453,0.0
490,0.0
515,0.0
516,0.0
542,10801940.453041472
592,0.0
632,0.0
686,1.0
687,1.0
688,2.0
2,21, 1,21, 0, 5,20.00,30.00,Monday
250,28.59730267944512
251,0.0
336,2485924.039911404
385,20.79
386,23.28
387,0.29920344245075486
388,0.0
425,0.0
450,0.0
451,0.0
452,-1.366262646037696
453,0.0
490,0.0
515,0.0
516,0.0
542,10801940.45304148
592,0.0
632,0.0
686,1.0
687,1.0
688,2.0
2,21, 1,21, 0, 5,30.00,40.00,Monday
250,28.631636439861143
251,0.0
336,2476711.606074226
385,20.79
386,23.28
387,0.2922096946172031
388,0.0
425,0.0
450,0.0
451,0.0
452,-1.3456264090443828
453,0.0
490,0.0
515,0.0
516,0.0
542,10801940.453041486
592,0.0
632,0.0
686,1.0
687,1.0
688,2.0
2,21, 1,21, 0, 5,40.00,50.00,Monday
250,28.669900495047017
251,0.0
336,2475003.5784540717
385,20.79
386,23.28
387,0.28737602105189075
388,0.0
425,0.0
450,0.0
451,0.0
452,-1.3169291966894552
453,0.0
490,0.0
515,0.0
516,0.0
542,10801940.45304148
592,0.0
632,0.0
686,1.0
687,1.0
688,2.0
2,21, 1,21, 0, 5,50.00,60.00,Monday
250,28.710386650833108
251,0.0
336,2471904.48183035
385,20.79
386,23.28
387,0.2843261971446359
388,0.0
425,0.0
450,0.0
451,0.0
452,-1.2825319326359845
453,0.0
490,0.0
515,0.0
516,0.0
542,10801940.453041486
592,0.0
632,0.0
686,1.0
687,1.0
688,2.0
2,21, 1,21, 0, 6, 0.00,10.00,Monday
250,28.704714586025258
251,0.0
336,2440986.585786713
385,20.79
386,23.28
387,0.2784149081715337
388,0.0
425,0.0
450,0.0
451,0.0
452,-1.249883841805871
453,0.0
490,0.0
515,0.0
516,0.0
542,10801940.453041486
592,0.0
632,0.0
686,1.0
687,1.0
688,2.0
2,21, 1,21, 0, 6,10.00,20.00,Monday
250,28.68207866189887
251,0.0
336,2432178.690744659
385,20.79
386,23.28
387,0.2665105065011484
388,0.0
425,0.0
450,0.0
451,0.0
452,-1.228520524214713
453,0.0
490,0.0
515,0.0
516,0.0
542,10801940.453041496
592,0.0
632,0.0
686,1.0
687,1.0
688,2.0
2,21, 1,21, 0, 6,20.00,30.00,Monday
250,28.669650742244936
251,0.0
336,2440497.1543849222
385,20.79
386,23.28
387,0.24916718368017707
388,0.0
425,0.0
450,0.0
451,0.0
452,-1.2228731596279094
453,0.0
490,0.0
515,0.0
516,0.0
542,10801940.453041486
592,0.0
632,0.0
686,1.0
687,1.0
688,2.0
2,21, 1,21, 0, 6,30.00,40.00,Monday
250,28.662067709388445
251,0.0
336,2444670.6315719434
385,20.79
386,23.28
387,0.22823471270264037
388,0.0
425,0.0
450,0.0
451,0.0
452,-1.2315993727085452
453,0.0
490,0.0
515,0.0
516,0.0
542,10801940.45304148
592,0.0
632,0.0
686,1.0
687,1.0
688,2.0
2,21, 1,21, 0, 6,40.00,50.00,Monday
250,28.65020756542048
251,0.0
336,2443189.985968786
385,20.79
386,23.28
387,0.20493706859054717
388,0.0
425,0.0
450,0.0
451,0.0
452,-1.2513136289117965
453,0.0
490,0.0
515,0.0
516,0.0
542,10801940.45304148
592,0.0
632,0.0
686,1.0
687,1.0
688,2.0
2,21, 1,21, 0, 6,50.00,60.00,Monday
250,28.635276318908815
251,0.0
336,2442864.0160911554
385,20.79
386,23.28
387,0.17950229731977102
388,0.0
425,0.0
450,0.0
451,0.0
452,-1.2795503306939813
453,0.0
490,0.0
515,0.0
516,0.0
542,10801940.45304148
592,0.0
632,0.0
686,1.0
687,1.0
688,2.0
2,21, 1,21, 0, 7, 0.00,10.00,Monday
250,23.5388200294982
251,0.0
336,796451.8812807014
385,20.790000000000003
386,24.28
387,0.15439853720284516
388,0.0
425,0.0
450,0.0
451,0.0
452,-1.3209394279888669
453,0.0
490,0.0
515,0.0
516,0.0
542,4320776.181216595
592,0.0
632,0.0
686,0.4
687,0.4
688,0.8
2,21, 1,21, 0, 7,10.00,20.00,Monday
250,22.186838930176652
251,2074661.7485142318
336,0.0
385,21.19
386,25.28
387,0.10820033080736285
388,0.0
425,0.0
450,0.0
451,0.0
452,-1.4125630958593576
453,0.0
490,0.0
515,0.0
516,0.0
542,0.0
592,492971.2270899754
632,1659058.791504879
686,0.1052797544002662
687,0.1
688,0.30000000000000004
2,21, 1,21, 0, 7,20.00,30.00,Monday
250,21.90322832908049
251,2503047.626215009
336,0.0
385,21.59
386,25.280000000000005
387,0.06417760335475117
388,0.0
425,0.0
450,0.0
451,0.0
452,-1.5288382480051879
453,0.0
490,0.0
515,0.0
516,0.0
542,0.0
592,1056224.2644957064
632,1582534.1487058848
686,0.229510457352237
687,0.2
688,0.6000000000000001
2,21, 1,21, 0, 7,30.00,40.00,Monday
250,21.940178135013078
251,2846903.0469363662
336,0.0
385,21.79
386,25.28
387,0.007444470771497192
388,0.0
425,0.0
450,0.0
451,0.0
452,-1.6903704923521232
453,0.0
490,0.0
515,0.0
516,0.0
542,0.0
592,1363221.478440756
632,1639148.7117982935
686,0.29762998818762804
687,0.25
688,0.75
2,21, 1,21, 0, 7,40.00,50.00,Monday
250,21.73759791385813
251,3043015.0767632136
336,0.0
385,21.29
386,25.28
387,-0.08409017607182995
388,0.0
425,0.0
450,0.0
451,0.0
452,-1.9405035723422017
453,0.0
490,0.0
515,0.0
516,0.0
542,0.0
592,1677196.6224824942
632,1485334.5959120528
686,0.38546238600014116
687,0.25
688,0.75
2,21, 1,21, 0, 7,50.00,60.00,Monday
250,21.77690194582551
251,668384.5267368912
336,0.0
385,21.29
386,25.28
387,-0.1766167870775154
388,0.0
425,0.0
450,0.0
451,0.0
452,-2.1997770154585155
453,0.0
490,0.0
515,0.0
516,0.0
542,0.0
592,606647.9394907902
632,0.0
686,0.17207085708007905
687,0.0
688,0.25
2,21, 1,21, 0, 8, 0.00,10.00,Monday
250,24.223197059571046
251,364282.0374461132
336,4039363.4482453875
385,21.190000000000005
386,24.08
387,-0.24110550537309733
388,0.0
425,0.0
450,0.0
451,0.0
452,-2.404689573015102
453,0.0
490,0.0
515,0.0
516,0.0
542,6094812.153405265
592,387557.92284186184
632,0.0
686,0.7689656949144594
687,0.6271823669024141
688,1.4999999999999998
2,21, 1,21, 0, 8,10.00,20.00,Monday
250,23.461371701984866
251,0.0
336,4473772.439198638
385,20.79
386,23.28
387,-0.3039558861469541
388,0.0
425,0.0
450,0.0
451,0.0
452,-2.5509124507847103
453,0.0
490,0.0
515,0.0
516,0.0
542,7018926.940059063
592,0.0
632,0.0
686,0.9001719417920175
687,0.33333333333333337
688,1.3333333333333333
2,21, 1,21, 0, 8,20.00,30.00,Monday
250,24.52695672955257
251,0.0
336,3298330.2138625574
385,20.790000000000017
386,24.28000000000002
387,-0.3550026681531771
388,0.0
425,0.0
450,0.0
451,0.0
452,-2.579498958705782
453,0.0
490,0.0
515,0.0
516,0.0
542,6037667.642559846
592,0.0
632,0.0
686,0.6464779076076537
687,0.5000000000000004
688,1.1666666666666676
2,21, 1,21, 0, 8,30.00,40.00,Monday
250,23.58610616645616
251,0.0
336,4478899.290253952
385,20.790000000000013
386,23.28000000000002
387,-0.39387783572776625
388,0.0
425,0.0
450,0.0
451,0.0
452,-2.4990854971458694
453,0.0
490,0.0
515,0.0
516,0.0
542,8620134.04926832
592,0.0
632,0.0
686,0.9499238940630597
687,0.6666666666666672
688,1.6666666666666679
2,21, 1,21, 0, 8,40.00,50.00,Monday
250,24.620820995781663
251,0.0
336,3311505.7260413063
385,20.78999999999997
386,24.27999999999997
387,-0.4126184503705236
388,0.0
425,0.0
450,0.0
451,0.0
452,-2.294912215094976
453,0.0
490,0.0
515,0.0
516,0.0
542,6673319.64056927
592,0.0
632,0.0
686,0.6666666666666657
687,0.6083107512572241
688,1.3333333333333315
2,21, 1,21, 0, 8,50.00,60.00,Monday
250,23.739618332633746
251,0.0
336,4580756.281467985
385,20.790000000000013
386,23.28000000000002
387,-0.4119354356755962
388,0.0
425,0.0
450,0.0
451,0.0
452,-1.9771893342277138
453,0.0
490,0.0
515,0.0
516,0.0
542,9636416.644192524
592,0.0
632,0.0
686,1.0000000000000009
687,0.8155606736895962
688,2.0000000000000018
2,21, 1,21, 0, 9, 0.00,10.00,Monday
250,28.7281487373028
251,0.0
336,5981339.712822732
385,20.790000000000003
386,23.279999999999998
387,-0.38769197690371116
388,0.0
425,0.0
450,0.0
451,0.0
452,-1.5923961580205934
453,0.0
490,0.0
515,0.0
516,0.0
542,10650044.894056283
592,0.0
632,0.0
686,0.9999999999999999
687,0.9999999999999999
688,1.9999999999999998
2,21, 1,21, 0, 9,10.00,20.00,Monday
250,26.567722438880665
251,0.0
336,3681109.926014779
385,20.79
386,23.28
387,-0.3411399968776907
388,0.0
425,0.0
450,0.0
451,0.0
452,-1.0962755928645438
453,0.0
490,0.0
515,0.0
516,0.0
542,10801940.453041483
592,0.0
632,0.0
686,1.0
687,1.0
688,2.0
2,21, 1,21, 0, 9,20.00,30.00,Monday
250,30.038718420660935
251,0.0
336,4156240.67044051
385,20.789999999999974
386,23.27999999999998
387,-0.27683396136214483
388,0.0
425,0.0
450,0.0
451,0.0
452,-0.547309209499946
453,0.0
490,0.0
515,0.0
516,0.0
542,10801940.453041485
592,0.0
632,0.0
686,0.9999999999999989
687,0.9999999999999989
688,1.9999999999999978
2,21, 1,21, 0, 9,30.00,40.00,Monday
250,27.78308060820458
251,0.0
336,2531332.2229037294
385,20.789999999999992
386,23.279999999999994
387,-0.19708843956786667
388,0.0
425,0.0
450,0.0
451,0.0
452,0.053172580193696146
453,0.0
490,0.0
515,0.0
516,0.0
542,10801940.453041486
592,0.0
632,0.0
686,0.9999999999999997
687,0.9999999999999997
688,1.9999999999999993
2,21, 1,21, 0, 9,40.00,50.00,Monday
250,30.457207027803697
251,0.0
336,3512478.6676835413
385,20.790000000000003
386,23.28
387,-0.11235075529080948
388,0.0
425,0.0
450,0.0
451,0.0
452,0.6588709981008879
453,0.0
490,0.0
515,0.0
516,0.0
542,10801940.453041485
592,0.0
632,0.0
686,1.0
687,1.0
688,2.0
2,21, 1,21, 0, 9,50.00,60.00,Monday
250,28.36543414465451
251,0.0
336,2219162.767745141
385,20.79
386,23.28
387,-0.02849693400814497
388,0.0
425,0.0
450,0.0
451,0.0
452,1.2488886222488884
453,0.0
490,0.0
515,0.0
516,0.0
542,10801940.453041488
592,0.0
632,0.0
686,1.0
687,1.0
688,2.0
2,21, 1,21, 0,10, 0.00,10.00,Monday
250,30.015899868582324
251,0.0
336,3315915.9930863148
385,20.79
386,23.28
387,0.10401836796515102
388,0.0
425,0.0
450,0.0
451,0.0
452,1.995335546133998
453,0.0
490,0.0
515,0.0
516,0.0
542,10801940.453041483
592,0.0
632,0.0
686,1.0
687,1.0
688,2.0
2,21, 1,21, 0,10,10.00,20.00,Monday
250,28.690317527484538
251,0.0
336,2257685.900660057
385,20.79
386,23.28
387,0.20585015728505324
388,0.0
425,0.0
450,0.0
451,0.0
452,2.525692584475191
453,0.0
490,0.0
515,0.0
516,0.0
542,10801940.453041483
592,0.0
632,0.0
686,1.0
687,1.0
688,2.0
2,21, 1,21, 0,10,20.00,30.00,Monday
250,30.03776278189932
251,0.0
336,3055791.403283766
385,20.789999999999992
386,23.27999999999999
387,0.35587564582988584
388,0.0
425,0.0
450,0.0
451,0.0
452,3.1981391199889293
453,0.0
490,0.0
515,0.0
516,0.0
542,10801940.453041479
592,0.0
632,0.0
686,0.9999999999999996
687,0.9999999999999996
688,1.9999999999999991
2,21, 1,21, 0,10,30.00,40.00,Monday
250,29.781452115809444
251,0.0
336,2258572.7472618073
385,20.790000000000006
386,23.28000000000001
387,0.5137148835101979
388,0.0
425,0.0
450,0.0
451,0.0
452,3.85125418830658
453,0.0
490,0.0
515,0.0
516,0.0
542,10801940.453041483
592,0.0
632,0.0
686,1.0000000000000004
687,1.0000000000000004
688,2.000000000000001
2,21, 1,21, 0,10,40.00,50.00,Monday
250,30.18596100352415
251,0.0
336,2508961.3154039886
385,20.790000000000013
386,23.28000000000002
387,0.68109603381201
388,0.0
425,0.0
450,0.0
451,0.0
452,4.555417555760753
453,0.0
490,0.0
515,0.0
516,0.0
542,10801940.453041483
592,0.0
632,0.0
686,1.0000000000000009
687,1.0000000000000009
688,2.0000000000000018
2,21, 1,21, 0,10,50.00,60.00,Monday
250,30.082329574652015
251,0.0
336,2176201.910851639
385,20.790000000000013
386,23.28000000000002
387,0.8566631952291996
388,0.0
425,0.0
450,0.0
451,0.0
452,5.338496595851853
453,0.0
490,0.0
515,0.0
516,0.0
542,10801940.45304148
592,0.0
632,0.0
686,1.0000000000000009
687,1.0000000000000009
688,2.0000000000000018
2,21, 1,21, 0,11, 0.00,10.00,Monday
250,30.270846553724276
251,0.0
336,2397155.910111258
385,20.79
386,23.28
387,1.041910197753975
388,0.0
425,0.0
450,0.0
451,0.0
452,6.185335411378924
453,0.0
490,0.0
515,0.0
516,0.0
542,10801940.453041483
592,0.0
632,0.0
686,1.0
687,1.0
688,2.0
2,21, 1,21, 0,11,10.00,20.00,Monday
250,30.22270255728032
251,0.0
336,2214498.9731915253
385,20.79
386,23.28
387,1.2379972217405735
388,0.0
425,0.0
450,0.0
451,0.0
452,7.077574216194444
453,0.0
490,0.0
515,0.0
516,0.0
542,10801940.453041479
592,0.0
632,0.0
686,1.0
687,1.0
688,2.0
2,21, 1,21, 0,11,20.00,30.00,Monday
250,30.595145451771074
251,0.0
336,2339693.5039223037
385,20.79
386,23.28
387,1.400708031905682
388,0.0
425,0.0
450,0.0
451,0.0
452,7.874830153036443
453,0.0
490,0.0
515,0.0
516,0.0
542,10801940.45304148
592,0.0
632,0.0
686,1.0
687,1.0
688,2.0
2,21, 1,21, 0,11,30.00,40.00,Monday
250,30.320543791936483
251,0.0
336,2176664.6858737264
385,20.79
386,23.28
387,1.6509434133268281
388,0.0
425,0.0
450,0.0
451,0.0
452,8.928266121969415
453,0.0
490,0.0
515,0.0
516,0.0
542,10801940.453041485
592,0.0
632,0.0
686,1.0
687,1.0
688,2.0
2,21, 1,21, 0,11,40.00,50.00,Monday
250,30.5784989046793
251,0.0
336,2339876.0429352056
385,20.79
386,23.28
387,1.8958783034996056
388,0.0
425,0.0
450,0.0
451,0.0
452,9.828085481450394
453,0.0
490,0.0
515,0.0
516,0.0
542,10801940.453041486
592,0.0
632,0.0
686,1.0
687,1.0
688,2.0
2,21, 1,21, 0,11,50.00,60.00,Monday
250,30.258968477041343
251,0.0
336,2166149.306097408
385,20.790000000000013
386,23.28000000000002
387,2.087133698388168
388,0.0
425,0.0
450,0.0
451,0.0
452,10.504881779242442
453,0.0
490,0.0
515,0.0
516,0.0
542,10801940.45304149
592,0.0
632,0.0
686,1.0000000000000009
687,1.0000000000000009
688,2.0000000000000018
2,21, 1,21, 0,12, 0.00,10.00,Monday
250,30.620054242324798
251,0.0
336,2385861.3017203966
385,20.79
386,23.28
387,2.3484839095231713
388,0.0
425,0.0
450,0.0
451,0.0
452,11.244849139269954
453,0.0
490,0.0
515,0.0
516,0.0
542,10801940.453041486
592,0.0
632,0.0
686,1.0
687,1.0
688,2.0
2,21, 1,21, 0,12,10.00,20.00,Monday
250,30.376094633016724
251,0.0
336,2147199.8720753603
385,20.79
386,23.28
387,2.5479234911097652
388,0.0
425,0.0
450,0.0
451,0.0
452,11.730954164297223
453,0.0
490,0.0
515,0.0
516,0.0
542,10801940.45304148
592,0.0
632,0.0
686,1.0
687,1.0
688,2.0
2,21, 1,21, 0,12,20.00,30.00,Monday
250,30.600078214637044
251,0.0
336,2365360.7770439144
385,20.79
386,23.28
387,2.780154647230155
388,0.0
425,0.0
450,0.0
451,0.0
452,12.16423789476627
453,0.0
490,0.0
515,0.0
516,0.0
542,10801940.453041486
592,0.0
632,0.0
686,1.0
687,1.0
688,2.0
2,21, 1,21, 0,12,30.00,40.00,Monday
250,30.641385192927334
251,0.0
336,2169319.2859989475
385,20.79
386,23.28
387,2.985095144257001
388,0.0
425,0.0
450,0.0
451,0.0
452,12.444475371624286
453,0.0
490,0.0
515,0.0
516,0.0
542,10801940.453041486
592,0.0
632,0.0
686,1.0
687,1.0
688,2.0
2,21, 1,21, 0,12,40.00,50.00,Monday
250,30.636830020138728
251,0.0
336,2235280.603820672
385,20.79
386,23.28
387,3.1529695813461998
388,0.0
425,0.0
450,0.0
451,0.0
452,12.550277767061168
453,0.0
490,0.0
515,0.0
516,0.0
542,10801940.45304148
592,0.0
632,0.0
686,1.0
687,1.0
688,2.0
2,21, 1,21, 0,12,50.00,60.00,Monday
250,30.655066932510234
251,0.0
336,2248434.6108414945
385,20.79
386,23.28
387,3.2871011971625443
388,0.0
425,0.0
450,0.0
451,0.0
452,12.504685673403875
453,0.0
490,0.0
515,0.0
516,0.0
542,10801940.453041486
592,0.0
632,0.0
686,1.0
687,1.0
688,2.0
2,21, 1,21, 0,13, 0.00,10.00,Monday
250,28.463930408925787
251,0.0
336,2080877.214698743
385,20.79
386,23.28
387,3.368184548438781
388,0.0
425,0.0
450,0.0
451,0.0
452,12.404292646098899
453,0.0
490,0.0
515,0.0
516,0.0
542,10801940.453041479
592,0.0
632,0.0
686,1.0
687,1.0
688,2.0
2,21, 1,21, 0,13,10.00,20.00,Monday
250,28.366336177084456
251,0.0
336,2809995.2710137023
385,20.79
386,23.28
387,3.4480910992453504
388,0.0
425,0.0
450,0.0
451,0.0
452,12.312886004678518
453,0.0
490,0.0
515,0.0
516,0.0
542,10801940.453041486
592,0.0
632,0.0
686,1.0
687,1.0
688,2.0
2,21, 1,21, 0,13,20.00,30.00,Monday
250,27.700460722070986
251,0.0
336,3046783.662405478
385,20.79
386,23.28
387,3.533050856667879
388,0.0
425,0.0
450,0.0
451,0.0
452,12.244457796531286
453,0.0
490,0.0
515,0.0
516,0.0
542,10801940.453041486
592,0.0
632,0.0
686,1.0
687,1.0
688,2.0
2,21, 1,21, 0,13,30.00,40.00,Monday
250,27.26597086575471
251,0.0
336,3491204.580267662
385,20.79
386,23.28
387,3.6408925528357243
388,0.0
425,0.0
450,0.0
451,0.0
452,12.194038911128766
453,0.0
490,0.0
515,0.0
516,0.0
542,10801940.453041485
592,0.0
632,0.0
686,1.0
687,1.0
688,2.0
2,21, 1,21, 0,13,40.00,50.00,Monday
250,27.033831419988605
251,0.0
336,3900360.6993658724
385,20.79
386,23.28
387,3.7354588766212373
388,0.0
425,0.0
450,0.0
451,0.0
452,12.171705109111702
453,0.0
490,0.0
515,0.0
516,0.0
542,10801940.453041485
592,0.0
632,0.0
686,1.0
687,1.0
688,2.0
2,21, 1,21, 0,13,50.00,60.00,Monday
250,26.875776413957304
251,0.0
336,4173123.0219415934
385,20.79
386,23.28
387,3.8161506558534737
388,0.0
425,0.0
450,0.0
451,0.0
452,12.162808866479793
453,0.0
490,0.0
515,0.0
516,0.0
542,10801940.453041475
592,0.0
632,0.0
686,1.0
687,1.0
688,2.0
2,21, 1,21, 0,14, 0.00,10.00,Monday
250,30.338416776722045
251,0.0
336,4864979.329195834
385,20.790000000000003
386,23.279999999999998
387,3.8699857842143777
388,0.0
425,0.0
450,0.0
451,0.0
452,12.121952680467794
453,0.0
490,0.0
515,0.0
516,0.0
542,10801940.453041486
592,0.0
632,0.0
686,0.9999999999999999
687,0.9999999999999999
688,1.9999999999999998
2,21, 1,21, 0,14,10.00,20.00,Monday
250,28.411039725125164
251,0.0
336,2963468.248823253
385,20.79
386,23.28
387,3.9290311242824076
388,0.0
425,0.0
450,0.0
451,0.0
452,12.016445475904078
453,0.0
490,0.0
515,0.0
516,0.0
542,10801940.45304148
592,0.0
632,0.0
686,1.0
687,1.0
688,2.0
2,21, 1,21, 0,14,20.00,30.00,Monday
250,31.57006064576066
251,0.0
336,3636405.521936205
385,20.789999999999974
386,23.27999999999998
387,3.9866851982536997
388,0.0
425,0.0
450,0.0
451,0.0
452,11.848702225993563
453,0.0
490,0.0
515,0.0
516,0.0
542,10801940.453041486
592,0.0
632,0.0
686,0.9999999999999989
687,0.9999999999999989
688,1.9999999999999978
2,21, 1,21, 0,14,30.00,40.00,Monday
250,28.94413263727033
251,0.0
336,2203769.69908949
385,20.789999999999996
386,23.279999999999994
387,4.036203445453393
388,0.0
425,0.0
450,0.0
451,0.0
452,11.593654270338309
453,0.0
490,0.0
515,0.0
516,0.0
542,10801940.453041479
592,0.0
632,0.0
686,0.9999999999999996
687,0.9999999999999996
688,1.9999999999999991
2,21, 1,21, 0,14,40.00,50.00,Monday
250,31.23375970341368
251,0.0
336,3602751.6655955925
385,20.790000000000003
386,23.28
387,4.091670897643195
388,0.0
425,0.0
450,0.0
451,0.0
452,11.13843931061442
453,0.0
490,0.0
515,0.0
516,0.0
542,10801940.453041483
592,0.0
632,0.0
686,1.0
687,1.0
688,2.0
2,21, 1,21, 0,14,50.00,60.00,Monday
250,28.831945748234435
251,0.0
336,2198074.491021347
385,20.79
386,23.28
387,4.1054748038263735
388,0.0
425,0.0
450,0.0
451,0.0
452,10.677455002827044
453,0.0
490,0.0
515,0.0
516,0.0
542,10801940.453041485
592,0.0
632,0.0
686,1.0
687,1.0
688,2.0
2,21, 1,21, 0,15, 0.00,10.00,Monday
250,31.88500725791898
251,0.0
336,3451517.796346776
385,20.79
386,23.28
387,4.0997822629618375
388,0.0
425,0.0
450,0.0
451,0.0
452,10.143299656118723
453,0.0
490,0.0
515,0.0
516,0.0
542,10801940.453041483
592,0.0
632,0.0
686,1.0
687,1.0
688,2.0
2,21, 1,21, 0,15,10.00,20.00,Monday
250,29.03051462119645
251,0.0
336,2081766.1430704244
385,20.790000000000003
386,23.28
387,4.079551422414651
388,0.0
425,0.0
450,0.0
451,0.0
452,9.537888573532417
453,0.0
490,0.0
515,0.0
516,0.0
542,10801940.453041485
592,0.0
632,0.0
686,1.0
687,1.0
688,2.0
2,21, 1,21, 0,15,20.00,30.00,Monday
250,31.215582018277367
251,0.0
336,3600089.391522454
385,20.790000000000003
386,23.28
387,4.03757582872061
388,0.0
425,0.0
450,0.0
451,0.0
452,8.666493570475378
453,0.0
490,0.0
515,0.0
516,0.0
542,10801940.453041485
592,0.0
632,0.0
686,1.0
687,1.0
688,2.0
2,21, 1,21, 0,15,30.00,40.00,Monday
250,28.851265939132166
251,0.0
336,2220509.6223077653
385,20.79
386,23.28
387,4.000639633021594
388,0.0
425,0.0
450,0.0
451,0.0
452,8.08084313106161
453,0.0
490,0.0
515,0.0
516,0.0
542,10801940.453041488
592,0.0
632,0.0
686,1.0
687,1.0
688,2.0
2,21, 1,21, 0,15,40.00,50.00,Monday
250,31.8601764171229
251,0.0
336,3428217.5543372016
385,20.78999999999997
386,23.27999999999997
387,3.963771819550921
388,0.0
425,0.0
450,0.0
451,0.0
452,7.587488936668559
453,0.0
490,0.0
515,0.0
516,0.0
542,10801940.453041483
592,0.0
632,0.0
686,0.9999999999999986
687,0.9999999999999986
688,1.9999999999999971
2,21, 1,21, 0,15,50.00,60.00,Monday
250,29.105626352764286
251,0.0
336,2085915.2119245892
385,20.790000000000003
386,23.28
387,3.9288062475341765
388,0.0
425,0.0
450,0.0
451,0.0
452,7.180323197684638
453,0.0
490,0.0
515,0.0
516,0.0
542,10801940.453041483
592,0.0
632,0.0
686,1.0
687,1.0
688,2.0
2,21, 1,21, 0,16, 0.00,10.00,Monday
250,31.258611096204177
251,0.0
336,3545713.4459616975
385,20.790000000000003
386,23.28
387,3.8789051272179638
388,0.0
425,0.0
450,0.0
451,0.0
452,6.7299430378854215
453,0.0
490,0.0
515,0.0
516,0.0
542,10801940.453041483
592,0.0
632,0.0
686,1.0
687,1.0
688,2.0
2,21, 1,21, 0,16,10.00,20.00,Monday
250,28.952467976461456
251,0.0
336,2197124.540012028
385,20.79
386,23.28
387,3.8470809825079124
388,0.0
425,0.0
450,0.0
451,0.0
452,6.489408970263763
453,0.0
490,0.0
515,0.0
516,0.0
542,10801940.453041479
592,0.0
632,0.0
686,1.0
687,1.0
688,2.0
2,21, 1,21, 0,16,20.00,30.00,Monday