Program Version,EnergyPlus, Version 24.1.0-9d7789a3ac, YMD=2025.04.05 15:40
1,5,Environment Title[],Latitude[deg],Longitude[deg],Time Zone[],Elevation[m]
2,8,Day of Simulation[],Month[],Day of Month[],DST Indicator[1=yes 0=no],Hour[],StartMinute[],EndMinute[],DayType
3,5,Cumulative Day of Simulation[],Month[],Day of Month[],DST Indicator[1=yes 0=no],DayType  ! When Daily Meters Requested
4,2,Cumulative Days of Simulation[],Month[]  ! When Monthly Meters Requested
5,1,Cumulative Days of Simulation[] ! When Run Period Meters Requested
6,1,Calendar Year of Simulation[] ! When Annual Meters Requested
11,9,Electricity:Facility [J] !Monthly [Value,Min,Day,Hour,Minute,Max,Day,Hour,Minute]
23,9,Electricity:Building [J] !Monthly [Value,Min,Day,Hour,Minute,Max,Day,Hour,Minute]
59,9,InteriorLights:Electricity [J] !Monthly [Value,Min,Day,Hour,Minute,Max,Day,Hour,Minute]
521,9,Electricity:HVAC [J] !Monthly [Value,Min,Day,Hour,Minute,Max,Day,Hour,Minute]
637,9,NaturalGas:Facility [J] !Monthly [Value,Min,Day,Hour,Minute,Max,Day,Hour,Minute]
649,9,NaturalGas:HVAC [J] !Monthly [Value,Min,Day,Hour,Minute,Max,Day,Hour,Minute]
13,11,Electricity:Facility [J] !RunPeriod [Value,Min,Month,Day,Hour,Minute,Max,Month,Day,Hour,Minute]
25,11,Electricity:Building [J] !RunPeriod [Value,Min,Month,Day,Hour,Minute,Max,Month,Day,Hour,Minute]
61,11,InteriorLights:Electricity [J] !RunPeriod [Value,Min,Month,Day,Hour,Minute,Max,Month,Day,Hour,Minute]
523,11,Electricity:HVAC [J] !RunPeriod [Value,Min,Month,Day,Hour,Minute,Max,Month,Day,Hour,Minute]
639,11,NaturalGas:Facility [J] !RunPeriod [Value,Min,Month,Day,Hour,Minute,Max,Month,Day,Hour,Minute]
651,11,NaturalGas:HVAC [J] !RunPeriod [Value,Min,Month,Day,Hour,Minute,Max,Month,Day,Hour,Minute]
End of Data Dictionary
1,RUN PERIOD 1,  41.98, -87.92,  -6.00, 201.00
4,31, 1
11,9001450790.76709,342576.23371571366,11,20,60,3545339.863666421,15,11,10
23,1986557785.7698226,113505.1648644837,11,20,50,1094477.630618013,31,13,60
59,1022525967.6562402,31617.99528930772, 1, 1,10,632359.9057861543, 1, 8,10
521,7014893004.997329,0.0,11,13,30,2542605.8560461896,27,20,30
637,15271235256.814552,0.0, 1,10,10,19596827.29888256,31, 7,40
649,15271235256.814552,0.0, 1,10,10,19596827.29888256,31, 7,40
4,59, 2
11,7410649907.365757,254200.99444854938,28,19,30,-99999999999999.0,15,11,10
23,1752193310.439174,99999999999999.0,11,20,50,-99999999999999.0,31,13,60
59,893903962.8193357,99999999999999.0, 1, 1,10,-99999999999999.0, 1, 8,10
521,5658456596.926603,99999999999999.0,11,13,30,-99999999999999.0,27,20,30
637,12510136634.595575,99999999999999.0, 1,10,10,20385081.83554108, 3, 8,30
649,12510136634.595575,99999999999999.0, 1,10,10,20385081.83554108, 3, 8,30
4,90, 3
11,7324156117.95257,99097.01939488953,31,16,60,-99999999999999.0,15,11,10
23,1848790303.5026536,99097.01939488953,31,16,60,1104149.4891362165,18, 9,60
59,945883947.0749636,99999999999999.0, 1, 1,10,-99999999999999.0, 1, 8,10
521,5475365814.449918,99999999999999.0,11,13,30,-99999999999999.0,27,20,30
637,9187153791.865519,99999999999999.0, 1,10,10,-99999999999999.0, 3, 8,30
649,9187153791.865519,99999999999999.0, 1,10,10,-99999999999999.0, 3, 8,30
4,120, 4
11,4451202378.0583725,31617.99528930772,12,19,20,-99999999999999.0,15,11,10
23,1787027124.9786701,31617.99528930772,11,19,20,-99999999999999.0,18, 9,60
59,979651966.0439382,99999999999999.0, 1, 1,10,-99999999999999.0, 1, 8,10
521,2664175253.079711,99999999999999.0,11,13,30,-99999999999999.0,27,20,30
637,3692791077.633303,99999999999999.0, 1,10,10,-99999999999999.0, 3, 8,30
649,3692791077.633303,99999999999999.0, 1,10,10,-99999999999999.0, 3, 8,30
4,151, 5
11,3297494140.270967,99999999999999.0,12,19,20,-99999999999999.0,15,11,10
23,1773471984.1085088,99999999999999.0,11,19,20,-99999999999999.0,18, 9,60
59,1022525967.6562424,99999999999999.0, 1, 1,10,-99999999999999.0, 1, 8,10
521,1524022156.1624694,99999999999999.0,11,13,30,-99999999999999.0,27,20,30
637,907767898.074654,99999999999999.0, 1,10,10,-99999999999999.0, 3, 8,30
649,907767898.074654,99999999999999.0, 1,10,10,-99999999999999.0, 3, 8,30
4,181, 6
11,3074181961.88883,99999999999999.0,12,19,20,-99999999999999.0,15,11,10
23,1505059861.170816,99999999999999.0,11,19,20,-99999999999999.0,18, 9,60
59,903009945.4626551,99999999999999.0, 1, 1,10,-99999999999999.0, 1, 8,10
521,1569122100.7180455,99999999999999.0,11,13,30,-99999999999999.0,27,20,30
637,41788536.02315004,99999999999999.0, 1,10,10,-99999999999999.0, 3, 8,30
649,41788536.02315004,99999999999999.0, 1,10,10,-99999999999999.0, 3, 8,30
4,212, 7
11,3871934378.2021313,99999999999999.0,12,19,20,-99999999999999.0,15,11,10
23,1624290736.5235558,99999999999999.0,11,19,20,-99999999999999.0,18, 9,60
59,1022525967.6562402,99999999999999.0, 1, 1,10,-99999999999999.0, 1, 8,10
521,2247643641.6785994,99999999999999.0,11,13,30,-99999999999999.0,27,20,30
637,0.0,99999999999999.0, 1,10,10,-99999999999999.0, 3, 8,30
649,0.0,99999999999999.0, 1,10,10,-99999999999999.0, 3, 8,30
4,243, 8
11,3426885543.1763263,99999999999999.0,12,19,20,-99999999999999.0,15,11,10
23,1600740770.350018,99999999999999.0,11,19,20,-99999999999999.0,18, 9,60
59,984204957.365604,99999999999999.0, 1, 1,10,-99999999999999.0, 1, 8,10
521,1826144772.8263352,99999999999999.0,11,13,30,-99999999999999.0,27,20,30
637,13697273.37663558,99999999999999.0, 1,10,10,-99999999999999.0, 3, 8,30
649,13697273.37663558,99999999999999.0, 1,10,10,-99999999999999.0, 3, 8,30
4,273, 9
11,2810020400.7735806,99999999999999.0,12,19,20,-99999999999999.0,15,11,10
23,1586984905.4588566,99999999999999.0,11,19,20,-99999999999999.0,18, 9,60
59,941330955.7532983,99999999999999.0, 1, 1,10,-99999999999999.0, 1, 8,10
521,1223035495.3147204,99999999999999.0,11,13,30,-99999999999999.0,27,20,30
637,67111384.93750936,99999999999999.0, 1,10,10,-99999999999999.0, 3, 8,30
649,67111384.93750936,99999999999999.0, 1,10,10,-99999999999999.0, 3, 8,30
4,304,10
11,3591845059.290526,99999999999999.0,12,19,20,-99999999999999.0,15,11,10
23,1816474321.2600358,99999999999999.0,11,19,20,-99999999999999.0,18, 9,60
59,1022525967.6562402,99999999999999.0, 1, 1,10,-99999999999999.0, 1, 8,10
521,1775370738.0305085,99999999999999.0,11,13,30,-99999999999999.0,27,20,30
637,1899812808.0367396,99999999999999.0, 1,10,10,-99999999999999.0, 3, 8,30
649,1899812808.0367396,99999999999999.0, 1,10,10,-99999999999999.0, 3, 8,30
4,334,11
11,6189230837.909149,99999999999999.0,12,19,20,-99999999999999.0,15,11,10
23,1783318564.3154051,99999999999999.0,11,19,20,-99999999999999.0,18, 9,60
59,941330955.7533007,99999999999999.0, 1, 1,10,-99999999999999.0, 1, 8,10
521,4405912273.593748,99999999999999.0,11,13,30,-99999999999999.0,27,20,30
637,7628908921.835019,99999999999999.0, 1,10,10,-99999999999999.0, 3, 8,30
649,7628908921.835019,99999999999999.0, 1,10,10,-99999999999999.0, 3, 8,30
4,365,12
11,7680177420.316622,99999999999999.0,12,19,20,-99999999999999.0,15,11,10
23,1880095812.9851775,99999999999999.0,11,19,20,-99999999999999.0,18, 9,60
59,984204957.3656003,99999999999999.0, 1, 1,10,-99999999999999.0, 1, 8,10
521,5800081607.331461,99999999999999.0,11,13,30,-99999999999999.0,27,20,30
637,9433056239.02143,99999999999999.0, 1,10,10,-99999999999999.0, 3, 8,30
649,9433056239.02143,99999999999999.0, 1,10,10,-99999999999999.0, 3, 8,30
5,365
13,62129228935.97275,31617.99528930772, 4,12,19,20,3545339.863666421, 1,15,11,10
25,20945005480.860176,31617.99528930772, 4,11,19,20,1104149.4891362165, 3,18, 9,60
61,11663625518.256693,31617.99528930772, 1, 1, 1,10,632359.9057861543, 1, 1, 8,10
523,41184223455.10955,0.0, 1,11,13,30,2542605.8560461896, 1,27,20,30
639,60653459822.214554,0.0, 1, 1,10,10,20385081.83554108, 2, 3, 8,30
651,60653459822.214554,0.0, 1, 1,10,10,20385081.83554108, 2, 3, 8,30
End of Data
 Number of Records Written=          78
