Program Version,EnergyPlus, Version 24.1.0-9d7789a3ac, YMD=2024.10.18 13:35
1,5,Environment Title[],Latitude[deg],Longitude[deg],Time Zone[],Elevation[m]
2,8,Day of Simulation[],Month[],Day of Month[],DST Indicator[1=yes 0=no],Hour[],StartMinute[],EndMinute[],DayType
3,5,Cumulative Day of Simulation[],Month[],Day of Month[],DST Indicator[1=yes 0=no],DayType  ! When Daily Report Variables Requested
4,2,Cumulative Days of Simulation[],Month[]  ! When Monthly Report Variables Requested
5,1,Cumulative Days of Simulation[] ! When Run Period Report Variables Requested
6,1,Calendar Year of Simulation[] ! When Annual Report Variables Requested
250,1,LIVING ZONE,Zone Air Temperature [C] !TimeStep,REPORTSCH
251,1,LIVING ZONE,Zone Air System Sensible Heating Energy [J] !TimeStep,REPORTSCH
336,1,LIVING ZONE,Zone Air System Sensible Cooling Energy [J] !TimeStep,REPORTSCH
385,1,LIVING ZONE,Zone Thermostat Heating Setpoint Temperature [C] !TimeStep,REPORTSCH
386,1,LIVING ZONE,Zone Thermostat Cooling Setpoint Temperature [C] !TimeStep,REPORTSCH
387,1,GARAGE ZONE,Zone Air Temperature [C] !TimeStep,REPORTSCH
388,1,GARAGE ZONE,Zone Air System Sensible Heating Energy [J] !TimeStep,REPORTSCH
425,1,GARAGE ZONE,Zone Air System Sensible Cooling Energy [J] !TimeStep,REPORTSCH
450,1,GARAGE ZONE,Zone Thermostat Heating Setpoint Temperature [C] !TimeStep,REPORTSCH
451,1,GARAGE ZONE,Zone Thermostat Cooling Setpoint Temperature [C] !TimeStep,REPORTSCH
452,1,ATTIC ZONE,Zone Air Temperature [C] !TimeStep,REPORTSCH
453,1,ATTIC ZONE,Zone Air System Sensible Heating Energy [J] !TimeStep,REPORTSCH
490,1,ATTIC ZONE,Zone Air System Sensible Cooling Energy [J] !TimeStep,REPORTSCH
515,1,ATTIC ZONE,Zone Thermostat Heating Setpoint Temperature [C] !TimeStep,REPORTSCH
516,1,ATTIC ZONE,Zone Thermostat Cooling Setpoint Temperature [C] !TimeStep,REPORTSCH
542,1,ACDXCOIL 1,Cooling Coil Total Cooling Energy [J] !TimeStep,REPORTSCH
592,1,HEAT PUMP DX HEATING COIL 1,Heating Coil Heating Energy [J] !TimeStep,REPORTSCH
632,1,SUPP HEATING COIL 1,Heating Coil Heating Energy [J] !TimeStep,REPORTSCH
686,1,TWOSPEED HEAT PUMP 1,Unitary System DX Coil Cycling Ratio [] !TimeStep,REPORTSCH
687,1,TWOSPEED HEAT PUMP 1,Unitary System DX Coil Speed Ratio [] !TimeStep,REPORTSCH
688,1,TWOSPEED HEAT PUMP 1,Unitary System DX Coil Speed Level [] !TimeStep
End of Data Dictionary
1,CHICAGO_IL_USA ANNUAL HEATING 99% DESIGN CONDITIONS DB,  41.98, -87.92,  -6.00, 201.00
2,1, 1,21, 0, 1, 0.00,10.00,WinterDesignDay
250,20.80229984918314
251,14850854.597704567
336,0.0
385,21.190994716193373
386,25.054657918387917
387,-17.59416993583744
388,0.0
425,0.0
450,0.0
451,0.0
452,-18.273343010733203
453,0.0
490,0.0
515,0.0
516,0.0
542,0.0
592,0.0
632,15326295.79254994
686,1.0
687,1.0
688,2.0
2,1, 1,21, 0, 1,10.00,20.00,WinterDesignDay
250,21.15619203205338
251,15916751.80103033
336,0.0
385,21.190994716193373
386,25.054657918387917
387,-17.59416531959034
388,0.0
425,0.0
450,0.0
451,0.0
452,-18.27319854825523
453,0.0
490,0.0
515,0.0
516,0.0
542,0.0
592,0.0
632,15759555.703818746
686,1.0
687,1.0
688,2.0
2,1, 1,21, 0, 1,20.00,30.00,WinterDesignDay
250,20.232503851725077
251,14940498.466699183
336,0.0
385,20.524328049526723
386,25.05465791838794
387,-17.594268889313444
388,0.0
425,0.0
450,0.0
451,0.0
452,-18.27327438203038
453,0.0
490,0.0
515,0.0
516,0.0
542,0.0
592,0.0
632,14596425.775665885
686,1.0000000000000007
687,1.0000000000000007
688,2.0000000000000013
2,1, 1,21, 0, 1,30.00,40.00,WinterDesignDay
250,20.56132865640952
251,13829047.850782301
336,0.0
385,20.524328049526723
386,25.05465791838794
387,-17.594275607480867
388,0.0
425,0.0
450,0.0
451,0.0
452,-18.273394216750866
453,0.0
490,0.0
515,0.0
516,0.0
542,0.0
592,0.0
632,13427211.992545698
686,1.0000000000000009
687,1.0000000000000009
688,2.0000000000000018
2,1, 1,21, 0, 1,40.00,50.00,WinterDesignDay
250,20.802299849443784
251,14850854.638594272
336,0.0
385,21.190994716193373
386,25.054657918387917
387,-17.59417479282608
388,0.0
425,0.0
450,0.0
451,0.0
452,-18.27334348146869
453,0.0
490,0.0
515,0.0
516,0.0
542,0.0
592,0.0
632,15326295.833621824
686,1.0
687,1.0
688,2.0
2,1, 1,21, 0, 1,50.00,60.00,WinterDesignDay
250,21.156192032093152
251,15916751.842406925
336,0.0
385,21.190994716193373
386,25.054657918387917
387,-17.594170111262365
388,0.0
425,0.0
450,0.0
451,0.0
452,-18.27319901282067
453,0.0
490,0.0
515,0.0
516,0.0
542,0.0
592,0.0
632,15759555.745129235
686,1.0
687,1.0
688,2.0
2,1, 1,21, 0, 2, 0.00,10.00,WinterDesignDay
250,20.232503849875705
251,14940498.498544447
336,0.0
385,20.524328049526705
386,25.054657918387917
387,-17.59427362551844
388,0.0
425,0.0
450,0.0
451,0.0
452,-18.273274841253404
453,0.0
490,0.0
515,0.0
516,0.0
542,0.0
592,0.0
632,14596425.807030734
686,1.0
687,1.0
688,2.0
2,1, 1,21, 0, 2,10.00,20.00,WinterDesignDay
250,20.561328656314934
251,13829047.889794786
336,0.0
385,20.524328049526705
386,25.054657918387917
387,-17.594280284592212
388,0.0
425,0.0
450,0.0
451,0.0
452,-18.273394670077987
453,0.0
490,0.0
515,0.0
516,0.0
542,0.0
592,0.0
632,13427212.03187528
686,1.0
687,1.0
688,2.0
2,1, 1,21, 0, 2,20.00,30.00,WinterDesignDay
250,20.802299849690968
251,14850854.677371765
336,0.0
385,21.190994716193373
386,25.054657918387917
387,-17.59417939894489
388,0.0
425,0.0
450,0.0
451,0.0
452,-18.273343927897212
453,0.0
490,0.0
515,0.0
516,0.0
542,0.0
592,0.0
632,15326295.872572087
686,1.0
687,1.0
688,2.0
2,1, 1,21, 0, 2,30.00,40.00,WinterDesignDay
250,21.156192032130875
251,15916751.881646294
336,0.0
385,21.190994716193373
386,25.054657918387917
387,-17.59417465543782
388,0.0
425,0.0
450,0.0
451,0.0
452,-18.273199453397602
453,0.0
490,0.0
515,0.0
516,0.0
542,0.0
592,0.0
632,15759555.784305912
686,1.0
687,1.0
688,2.0
2,1, 1,21, 0, 2,40.00,50.00,WinterDesignDay
250,20.232503848121837
251,14940498.528744858
336,0.0
385,20.524328049526677
386,25.05465791838788
387,-17.594278117091005
388,0.0
425,0.0
450,0.0
451,0.0
452,-18.273275276763655
453,0.0
490,0.0
515,0.0
516,0.0
542,0.0
592,0.0
632,14596425.836775545
686,0.9999999999999986
687,0.9999999999999986
688,1.9999999999999971
2,1, 1,21, 0, 2,50.00,60.00,WinterDesignDay
250,20.56132865622527
251,13829047.926792085
336,0.0
385,20.524328049526723
386,25.05465791838794
387,-17.594284720123355
388,0.0
425,0.0
450,0.0
451,0.0
452,-18.273395099996726
453,0.0
490,0.0
515,0.0
516,0.0
542,0.0
592,0.0
632,13427212.069173306
686,1.0000000000000009
687,1.0000000000000009
688,2.0000000000000018
2,1, 1,21, 0, 3, 0.00,10.00,WinterDesignDay
250,20.802299849925387
251,14850854.714146331
336,0.0
385,21.190994716193373
386,25.054657918387917
387,-17.59418376715055
388,0.0
425,0.0
450,0.0
451,0.0
452,-18.273344351273444
453,0.0
490,0.0
515,0.0
516,0.0
542,0.0
592,0.0
632,15326295.909510506
686,1.0
687,1.0
688,2.0
2,1, 1,21, 0, 3,10.00,20.00,WinterDesignDay
250,21.15619203216665
251,15916751.918858714
336,0.0
385,21.190994716193373
386,25.054657918387917
387,-17.594178964899434
388,0.0
425,0.0
450,0.0
451,0.0
452,-18.273199871224286
453,0.0
490,0.0
515,0.0
516,0.0
542,0.0
592,0.0
632,15759555.821458878
686,1.0
687,1.0
688,2.0
2,1, 1,21, 0, 3,20.00,30.00,WinterDesignDay
250,20.232503846458638
251,14940498.557385255
336,0.0
385,20.524328049526723
386,25.05465791838794
387,-17.594282376666822
388,0.0
425,0.0
450,0.0
451,0.0
452,-18.273275689785244
453,0.0
490,0.0
515,0.0
516,0.0
542,0.0
592,0.0
632,14596425.864983872
686,1.0000000000000007
687,1.0000000000000007
688,2.0000000000000013
2,1, 1,21, 0, 3,30.00,40.00,WinterDesignDay
250,20.561328656140223
251,13829047.961878259
336,0.0
385,20.524328049526723
386,25.05465791838794
387,-17.594288926551908
388,0.0
425,0.0
450,0.0
451,0.0
452,-18.27339550771537
453,0.0
490,0.0
515,0.0
516,0.0
542,0.0
592,0.0
632,13427212.104544668
686,1.0000000000000009
687,1.0000000000000009
688,2.0000000000000018
2,1, 1,21, 0, 3,40.00,50.00,WinterDesignDay
250,20.802299850147694
251,14850854.749021227
336,0.0
385,21.190994716193373
386,25.054657918387917
387,-17.594187909730746
388,0.0
425,0.0
450,0.0
451,0.0
452,-18.27334475278735
453,0.0
490,0.0
515,0.0
516,0.0
542,0.0
592,0.0
632,15326295.944540784
686,1.0
687,1.0
688,2.0
2,1, 1,21, 0, 3,50.00,60.00,WinterDesignDay
250,21.156192032200575
251,15916751.954149012
336,0.0
385,21.190994716193373
386,25.054657918387917
387,-17.59418305176984
388,0.0
425,0.0
450,0.0
451,0.0
452,-18.273200267475104
453,0.0
490,0.0
515,0.0
516,0.0
542,0.0
592,0.0
632,15759555.856692791
686,1.0
687,1.0
688,2.0
2,1, 1,21, 0, 4, 0.00,10.00,WinterDesignDay
250,20.232503844881297
251,14940498.58454619
336,0.0
385,20.524328049526705
386,25.054657918387917
387,-17.59428641622795
388,0.0
425,0.0
450,0.0
451,0.0
452,-18.273276081478933
453,0.0
490,0.0
515,0.0
516,0.0
542,0.0
592,0.0
632,14596425.89173505
686,1.0
687,1.0
688,2.0
2,1, 1,21, 0, 4,10.00,20.00,WinterDesignDay
250,20.56132865605955
251,13829047.995152116
336,0.0
385,20.524328049526705
386,25.054657918387917
387,-17.594292915710806
388,0.0
425,0.0
450,0.0
451,0.0
452,-18.273395894379924
453,0.0
490,0.0
515,0.0
516,0.0
542,0.0
592,0.0
632,13427212.138088979
686,1.0
687,1.0
688,2.0
2,1, 1,21, 0, 4,20.00,30.00,WinterDesignDay
250,20.802299850358516
251,14850854.78209476
336,0.0
385,21.190994716193373
386,25.054657918387917
387,-17.594191838338702
388,0.0
425,0.0
450,0.0
451,0.0
452,-18.273345133567503
453,0.0
490,0.0
515,0.0
516,0.0
542,0.0
592,0.0
632,15326295.977761675
686,1.0
687,1.0
688,2.0
2,1, 1,21, 0, 4,30.00,40.00,WinterDesignDay
250,21.156192032232745
251,15916751.987616394
336,0.0
385,21.190994716193373
386,25.054657918387917
387,-17.594186927544925
388,0.0
425,0.0
450,0.0
451,0.0
452,-18.27320064326385
453,0.0
490,0.0
515,0.0
516,0.0
542,0.0
592,0.0
632,15759555.890106704
686,1.0
687,1.0
688,2.0
2,1, 1,21, 0, 4,40.00,50.00,WinterDesignDay
250,20.232503843385416
251,14940498.610304158
336,0.0
385,20.524328049526677
386,25.05465791838788
387,-17.59429024713731
388,0.0
425,0.0
450,0.0
451,0.0
452,-18.27327645294578
453,0.0
490,0.0
515,0.0
516,0.0
542,0.0
592,0.0
632,14596425.917104438
686,0.9999999999999986
687,0.9999999999999986
688,1.9999999999999971
2,1, 1,21, 0, 4,50.00,60.00,WinterDesignDay
250,20.56132865598308
251,13829048.026707299
336,0.0
385,20.524328049526723
386,25.05465791838794
387,-17.594296698821424
388,0.0
425,0.0
450,0.0
451,0.0
452,-18.27339626107731
453,0.0
490,0.0
515,0.0
516,0.0
542,0.0
592,0.0
632,13427212.169900648
686,1.0000000000000009
687,1.0000000000000009
688,2.0000000000000018
2,1, 1,21, 0, 5, 0.00,10.00,WinterDesignDay
250,20.802299850558448
251,14850854.813459804
336,0.0
385,21.190994716193373
386,25.054657918387917
387,-17.594195564026204
388,0.0
425,0.0
450,0.0
451,0.0
452,-18.273345494684257
453,0.0
490,0.0
515,0.0
516,0.0
542,0.0
592,0.0
632,15326296.009266466
686,1.0
687,1.0
688,2.0
2,1, 1,21, 0, 5,10.00,20.00,WinterDesignDay
250,21.15619203226326
251,15916752.019355062
336,0.0
385,21.190994716193373
386,25.054657918387917
387,-17.594190603128638
388,0.0
425,0.0
450,0.0
451,0.0
452,-18.273200999646868
453,0.0
490,0.0
515,0.0
516,0.0
542,0.0
592,0.0
632,15759555.921794662
686,1.0
687,1.0
688,2.0
2,1, 1,21, 0, 5,20.00,30.00,WinterDesignDay
250,20.232503841966874
251,14940498.63473168
336,0.0
385,20.524328049526723
386,25.05465791838794
387,-17.594293880172575
388,0.0
425,0.0
450,0.0
451,0.0
452,-18.273276805230065
453,0.0
490,0.0
515,0.0
516,0.0
542,0.0
592,0.0
632,14596425.941163447
686,1.0000000000000007
687,1.0000000000000007
688,2.0000000000000013
2,1, 1,21, 0, 5,30.00,40.00,WinterDesignDay
250,20.561328655910543
251,13829048.056632388
336,0.0
385,20.524328049526723
386,25.05465791838794
387,-17.594300286526558
388,0.0
425,0.0
450,0.0
451,0.0
452,-18.273396608838294
453,0.0
490,0.0
515,0.0
516,0.0
542,0.0
592,0.0
632,13427212.200068973
686,1.0000000000000009
687,1.0000000000000009
688,2.0000000000000018
2,1, 1,21, 0, 5,40.00,50.00,WinterDesignDay
250,20.802299850748053
251,14850854.843204802
336,0.0
385,21.190994716193373
386,25.054657918387917
387,-17.594199097273822
388,0.0
425,0.0
450,0.0
451,0.0
452,-18.273345837152746
453,0.0
490,0.0
515,0.0
516,0.0
542,0.0
592,0.0
632,15326296.03914399
686,1.0
687,1.0
688,2.0
2,1, 1,21, 0, 5,50.00,60.00,WinterDesignDay
250,21.156192032292196
251,15916752.049454182
336,0.0
385,21.190994716193373
386,25.054657918387917
387,-17.594194088860213
388,0.0
425,0.0
450,0.0
451,0.0
452,-18.27320133762599
453,0.0
490,0.0
515,0.0
516,0.0
542,0.0
592,0.0
632,15759555.951845694
686,1.0
687,1.0
688,2.0
2,1, 1,21, 0, 6, 0.00,10.00,WinterDesignDay
250,20.232503840621547
251,14940498.657897394
336,0.0
385,20.524328049526705
386,25.054657918387917
387,-17.594297325552994
388,0.0
425,0.0
450,0.0
451,0.0
452,-18.273277139321994
453,0.0
490,0.0
515,0.0
516,0.0
542,0.0
592,0.0
632,14596425.963979682
686,1.0
687,1.0
688,2.0
2,1, 1,21, 0, 6,10.00,20.00,WinterDesignDay
250,20.561328655841734
251,13829048.085011847
336,0.0
385,20.524328049526705
386,25.054657918387917
387,-17.594303688917773
388,0.0
425,0.0
450,0.0
451,0.0
452,-18.273396938640484
453,0.0
490,0.0
515,0.0
516,0.0
542,0.0
592,0.0
632,13427212.228679104
686,1.0
687,1.0
688,2.0
2,1, 1,21, 0, 6,20.00,30.00,WinterDesignDay
250,20.802299850927874
251,14850854.871413317
336,0.0
385,21.190994716193373
386,25.054657918387917
387,-17.594202448020162
388,0.0
425,0.0
450,0.0
451,0.0
452,-18.273346161935702
453,0.0
490,0.0
515,0.0
516,0.0
542,0.0
592,0.0
632,15326296.06747819
686,1.0
687,1.0
688,2.0
2,1, 1,21, 0, 6,30.00,40.00,WinterDesignDay
250,21.156192032319634
251,15916752.077998705
336,0.0
385,21.190994716193373
386,25.054657918387917
387,-17.59419739454459
388,0.0
425,0.0
450,0.0
451,0.0
452,-18.273201658151343
453,0.0
490,0.0
515,0.0
516,0.0
542,0.0
592,0.0
632,15759555.980344608
686,1.0
687,1.0
688,2.0
2,1, 1,21, 0, 6,40.00,50.00,WinterDesignDay
250,20.23250383934571
251,14940498.679866467
336,0.0
385,20.524328049526677
386,25.05465791838788
387,-17.594300592970583
388,0.0
425,0.0
450,0.0
451,0.0
452,-18.273277456160805
453,0.0
490,0.0
515,0.0
516,0.0
542,0.0
592,0.0
632,14596425.985617327
686,0.9999999999999986
687,0.9999999999999986
688,1.9999999999999971
2,1, 1,21, 0, 6,50.00,60.00,WinterDesignDay
250,20.56132865577651
251,13829048.111925287
336,0.0
385,20.524328049526723
386,25.05465791838794
387,-17.59430691556696
388,0.0
425,0.0
450,0.0
451,0.0
452,-18.273397251411083
453,0.0
490,0.0
515,0.0
516,0.0
542,0.0
592,0.0
632,13427212.255811304
686,1.0000000000000009
687,1.0000000000000009
688,2.0000000000000018
2,1, 1,21, 0, 7, 0.00,10.00,WinterDesignDay
250,20.802299851098393
251,14850854.898164764
336,0.0
385,21.190994716193373
386,25.054657918387917
387,-17.594205625692055
388,0.0
425,0.0
450,0.0
451,0.0
452,-18.27334646994619
453,0.0
490,0.0
515,0.0
516,0.0
542,0.0
592,0.0
632,15326296.094348822
686,1.0
687,1.0
688,2.0
2,1, 1,21, 0, 7,10.00,20.00,WinterDesignDay
250,21.156192032345658
251,15916752.105068693
336,0.0
385,21.190994716193373
386,25.054657918387917
387,-17.594200529482247
388,0.0
425,0.0
450,0.0
451,0.0
452,-18.27320196212404
453,0.0
490,0.0
515,0.0
516,0.0
542,0.0
592,0.0
632,15759556.007371347
686,1.0
687,1.0
688,2.0
2,1, 1,21, 0, 7,20.00,30.00,WinterDesignDay
250,20.232503838135827
251,14940498.70070076
336,0.0
385,20.524328049526723
386,25.05465791838794
387,-17.594303691618187
388,0.0
425,0.0
450,0.0
451,0.0
452,-18.27327775663736
453,0.0
490,0.0
515,0.0
516,0.0
542,0.0
592,0.0
632,14596426.006137315
686,1.0000000000000007
687,1.0000000000000007
688,2.0000000000000013
2,1, 1,21, 0, 7,30.00,40.00,WinterDesignDay
250,20.56132865571464
251,13829048.137448533
336,0.0
385,20.524328049526723
386,25.05465791838794
387,-17.594309975551866
388,0.0
425,0.0
450,0.0
451,0.0
452,-18.273397548029394
453,0.0
490,0.0
515,0.0
516,0.0
542,0.0
592,0.0
632,13427212.281542009
686,1.0000000000000009
687,1.0000000000000009
688,2.0000000000000018
2,1, 1,21, 0, 7,40.00,50.00,WinterDesignDay
250,20.802299851260113
251,14850854.923534311
336,0.0
385,21.190994716193373
386,25.054657918387917
387,-17.59420863922954
388,0.0
425,0.0
450,0.0
451,0.0
452,-18.27334676205019
453,0.0
490,0.0
515,0.0
516,0.0
542,0.0
592,0.0
632,15326296.119831406
686,1.0
687,1.0
688,2.0
2,1, 1,21, 0, 7,50.00,60.00,WinterDesignDay
250,21.156192032370335
251,15916752.1307404
336,0.0
385,21.190994716193373
386,25.054657918387917
387,-17.594203502492547
388,0.0
425,0.0
450,0.0
451,0.0
452,-18.273202250398718
453,0.0
490,0.0
515,0.0
516,0.0
542,0.0
592,0.0
632,15759556.033002045
686,1.0
687,1.0
688,2.0
2,1, 1,21, 0, 8, 0.00,10.00,WinterDesignDay
250,20.232503836988393
251,14940498.720458888
336,0.0
385,20.524328049526705
386,25.054657918387917
387,-17.594306630212472
388,0.0
425,0.0
450,0.0
451,0.0
452,-18.27327804159635
453,0.0
490,0.0
515,0.0
516,0.0
542,0.0
592,0.0
632,14596426.025597371
686,1.0
687,1.0
688,2.0
2,1, 1,21, 0, 8,10.00,20.00,WinterDesignDay
250,20.561328655655952
251,13829048.161653409
336,0.0
385,20.524328049526705
386,25.054657918387917
387,-17.594312877480185
388,0.0
425,0.0
450,0.0
451,0.0
452,-18.2733978293294
453,0.0
490,0.0
515,0.0
516,0.0
542,0.0
592,0.0
632,13427212.305943629
686,1.0
687,1.0
688,2.0
2,1, 1,21, 0, 8,20.00,30.00,WinterDesignDay
250,20.802299851413473
251,14850854.947593428
336,0.0
385,21.190994716193373
386,25.054657918387917
387,-17.594211497109207
388,0.0
425,0.0
450,0.0
451,0.0
452,-18.273347039068987
453,0.0
490,0.0
515,0.0
516,0.0
542,0.0
592,0.0
632,15326296.143997723
686,1.0
687,1.0
688,2.0
2,1, 1,21, 0, 8,30.00,40.00,WinterDesignDay
250,21.156192032393736
251,15916752.155086089
336,0.0
385,21.190994716193373
386,25.054657918387917
387,-17.59420632193832
388,0.0
425,0.0
450,0.0
451,0.0
452,-18.273202523785894
453,0.0
490,0.0
515,0.0
516,0.0
542,0.0
592,0.0
632,15759556.057308834
686,1.0
687,1.0
688,2.0
2,1, 1,21, 0, 8,40.00,50.00,WinterDesignDay
250,20.23250383590022
251,14940498.739196375
336,0.0
385,20.524328049526677
386,25.05465791838788
387,-17.594309417019804
388,0.0
425,0.0
450,0.0
451,0.0
452,-18.27327831183899
453,0.0
490,0.0
515,0.0
516,0.0
542,0.0
592,0.0
632,14596426.044052184
686,0.9999999999999986
687,0.9999999999999986
688,1.9999999999999971
2,1, 1,21, 0, 8,50.00,60.00,WinterDesignDay
250,20.561328655600327
251,13829048.184608042
336,0.0
385,20.524328049526723
386,25.05465791838794
387,-17.59431562951563
388,0.0
425,0.0
450,0.0
451,0.0
452,-18.273398096102007
453,0.0
490,0.0
515,0.0
516,0.0
542,0.0
592,0.0
632,13427212.329084842
686,1.0000000000000009
687,1.0000000000000009
688,2.0000000000000018
2,1, 1,21, 0, 9, 0.00,10.00,WinterDesignDay
250,20.802299851558914
251,14850854.970409837
336,0.0
385,21.190994716193373
386,25.054657918387917
387,-17.594214207371248
388,0.0
425,0.0
450,0.0
451,0.0
452,-18.27334730178141
453,0.0
490,0.0
515,0.0
516,0.0
542,0.0
592,0.0
632,15326296.16691579
686,1.0
687,1.0
688,2.0
2,1, 1,21, 0, 9,10.00,20.00,WinterDesignDay
250,21.156192032415937
251,15916752.178174172
336,0.0
385,21.190994716193373
386,25.054657918387917
387,-17.594208995751394
388,0.0
425,0.0
450,0.0
451,0.0
452,-18.27320278305421
453,0.0
490,0.0
515,0.0
516,0.0
542,0.0
592,0.0
632,15759556.080360029
686,1.0
687,1.0
688,2.0
2,1, 1,21, 0, 9,20.00,30.00,WinterDesignDay
250,20.232503834868318
251,14940498.756966062
336,0.0
385,20.524328049526723
386,25.05465791838794
387,-17.594312059880604
388,0.0
425,0.0
450,0.0
451,0.0
452,-18.273278568125203
453,0.0
490,0.0
515,0.0
516,0.0
542,0.0
592,0.0
632,14596426.061553802
686,1.0000000000000007
687,1.0000000000000007
688,2.0000000000000013
2,1, 1,21, 0, 9,30.00,40.00,WinterDesignDay
250,20.56132865554756
251,13829048.206376912
336,0.0
385,20.524328049526723
386,25.05465791838794
387,-17.594318239400263
388,0.0
425,0.0
450,0.0
451,0.0
452,-18.273398349097295
453,0.0
490,0.0
515,0.0
516,0.0
542,0.0
592,0.0
632,13427212.35103065
686,1.0000000000000009
687,1.0000000000000009
688,2.0000000000000018
2,1, 1,21, 0, 9,40.00,50.00,WinterDesignDay
250,20.802299851696848
251,14850854.992047593
336,0.0
385,21.190994716193373
386,25.054657918387917
387,-17.594216777639897
388,0.0
425,0.0
450,0.0
451,0.0
452,-18.273347550926182
453,0.0
490,0.0
515,0.0
516,0.0
542,0.0
592,0.0
632,15326296.18864995
686,1.0
687,1.0
688,2.0
2,1, 1,21, 0, 9,50.00,60.00,WinterDesignDay
250,21.156192032436984
251,15916752.200069632
336,0.0
385,21.190994716193373
386,25.054657918387917
387,-17.594211531453972
388,0.0
425,0.0
450,0.0
451,0.0
452,-18.273203028932695
453,0.0
490,0.0
515,0.0
516,0.0
542,0.0
592,0.0
632,15759556.102220502
686,1.0
687,1.0
688,2.0
2,1, 1,21, 0,10, 0.00,10.00,WinterDesignDay
250,20.232503833889666
251,14940498.77381774
336,0.0
385,20.524328049526705
386,25.054657918387917
387,-17.59431456622932
388,0.0
425,0.0
450,0.0
451,0.0
452,-18.273278811175498
453,0.0
490,0.0
515,0.0
516,0.0
542,0.0
592,0.0
632,14596426.078151254
686,1.0
687,1.0
688,2.0
2,1, 1,21, 0,10,10.00,20.00,WinterDesignDay
250,20.561328655497505
251,13829048.227021331
336,0.0
385,20.524328049526705
386,25.054657918387917
387,-17.59432071447617
388,0.0
425,0.0
450,0.0
451,0.0
452,-18.273398589026634
453,0.0
490,0.0
515,0.0
516,0.0
542,0.0
592,0.0
632,13427212.371842872
686,1.0
687,1.0
688,2.0
2,1, 1,21, 0,10,20.00,30.00,WinterDesignDay
250,20.802299851827648
251,14850855.012567734
336,0.0
385,21.190994716193373
386,25.054657918387917
387,-17.594219215146335
388,0.0
425,0.0
450,0.0
451,0.0
452,-18.27334778720386
453,0.0
490,0.0
515,0.0
516,0.0
542,0.0
592,0.0
632,15326296.209261514
686,1.0
687,1.0
688,2.0
2,1, 1,21, 0,10,30.00,40.00,WinterDesignDay
250,21.156192032456946
251,15916752.220834155
336,0.0
385,21.190994716193373
386,25.054657918387917
387,-17.594213936179738
388,0.0
425,0.0
450,0.0
451,0.0
452,-18.273203262112734
453,0.0
490,0.0
515,0.0
516,0.0
542,0.0
592,0.0
632,15759556.12295185
686,1.0
687,1.0
688,2.0
2,1, 1,21, 0,10,40.00,50.00,WinterDesignDay
250,20.232503832961548
251,14940498.789799117
336,0.0
385,20.524328049526677
386,25.05465791838788
387,-17.594316943117608
388,0.0
425,0.0
450,0.0
451,0.0
452,-18.273279041673373
453,0.0
490,0.0
515,0.0
516,0.0
542,0.0
592,0.0
632,14596426.093891539
686,0.9999999999999986
687,0.9999999999999986
688,1.9999999999999971
2,1, 1,21, 0,10,50.00,60.00,WinterDesignDay
250,20.561328655450062
251,13829048.246599402
336,0.0
385,20.524328049526723
386,25.05465791838794
387,-17.594323061707115
388,0.0
425,0.0
450,0.0
451,0.0
452,-18.273398816564743
453,0.0
490,0.0
515,0.0
516,0.0
542,0.0
592,0.0
632,13427212.391580077
686,1.0000000000000009
687,1.0000000000000009
688,2.0000000000000018
2,1, 1,21, 0,11, 0.00,10.00,WinterDesignDay
250,20.802299851951695
251,14850855.032027874
336,0.0
385,21.190994716193373
386,25.054657918387917
387,-17.594221526748072
388,0.0
425,0.0
450,0.0
451,0.0
452,-18.27334801127883
453,0.0
490,0.0
515,0.0
516,0.0
542,0.0
592,0.0
632,15326296.22880836
686,1.0
687,1.0
688,2.0
2,1, 1,21, 0,11,10.00,20.00,WinterDesignDay
250,21.156192032475875
251,15916752.240526047
336,0.0
385,21.190994716193373
386,25.054657918387917
387,-17.594216216693525
388,0.0
425,0.0
450,0.0
451,0.0
452,-18.27320348325001
453,0.0
490,0.0
515,0.0
516,0.0
542,0.0
592,0.0
632,15759556.142612282
686,1.0
687,1.0
688,2.0
2,1, 1,21, 0,11,20.00,30.00,WinterDesignDay
250,20.23250383208145
251,14940498.80495482
336,0.0
385,20.524328049526723
386,25.05465791838794
387,-17.59431919723148
388,0.0
425,0.0
450,0.0
451,0.0
452,-18.27327926026703
453,0.0
490,0.0
515,0.0
516,0.0
542,0.0
592,0.0
632,14596426.108818598
686,1.0000000000000007
687,1.0000000000000007
688,2.0000000000000013
2,1, 1,21, 0,11,30.00,40.00,WinterDesignDay
250,20.561328655405053
251,13829048.265166158
336,0.0
385,20.524328049526723
386,25.05465791838794
387,-17.594325287695348
388,0.0
425,0.0
450,0.0
451,0.0
452,-18.27339903235141
453,0.0
490,0.0
515,0.0
516,0.0
542,0.0
592,0.0
632,13427212.410297748
686,1.0000000000000009
687,1.0000000000000009
688,2.0000000000000018
2,1, 1,21, 0,11,40.00,50.00,WinterDesignDay
250,20.802299852069336
251,14850855.05048282
336,0.0
385,21.190994716193373
386,25.054657918387917
387,-17.594223718947756
388,0.0
425,0.0
450,0.0
451,0.0
452,-18.273348223781205
453,0.0
490,0.0
515,0.0
516,0.0
542,0.0
592,0.0
632,15326296.247345537
686,1.0
687,1.0
688,2.0
2,1, 1,21, 0,11,50.00,60.00,WinterDesignDay
250,21.156192032493827
251,15916752.259200774
336,0.0
385,21.190994716193373
386,25.054657918387917
387,-17.594218379411643
388,0.0
425,0.0
450,0.0
451,0.0
452,-18.27320369296639
453,0.0
490,0.0
515,0.0
516,0.0
542,0.0
592,0.0
632,15759556.161257178
686,1.0
687,1.0
688,2.0
2,1, 1,21, 0,12, 0.00,10.00,WinterDesignDay
250,20.232503831246756
251,14940498.819327727
336,0.0
385,20.524328049526705
386,25.054657918387917
387,-17.5943213349135
388,0.0
425,0.0
450,0.0
451,0.0
452,-18.273279467571083
453,0.0
490,0.0
515,0.0
516,0.0
542,0.0
592,0.0
632,14596426.122974677
686,1.0
687,1.0
688,2.0
2,1, 1,21, 0,12,10.00,20.00,WinterDesignDay
250,20.561328655362356
251,13829048.282773817
336,0.0
385,20.524328049526705
386,25.054657918387917
387,-17.594327398704404
388,0.0
425,0.0
450,0.0
451,0.0
452,-18.273399236993452
453,0.0
490,0.0
515,0.0
516,0.0
542,0.0
592,0.0
632,13427212.428048525
686,1.0
687,1.0
688,2.0
2,1, 1,21, 0,12,20.00,30.00,WinterDesignDay
250,20.802299852180898
251,14850855.067984441
336,0.0
385,21.190994716193373
386,25.054657918387917
387,-17.594225797913264
388,0.0
425,0.0
450,0.0
451,0.0
452,-18.273348425308583
453,0.0
490,0.0
515,0.0
516,0.0
542,0.0
592,0.0
632,15326296.264925135
686,1.0
687,1.0
688,2.0
2,1, 1,21, 0,12,30.00,40.00,WinterDesignDay
250,21.15619203251085
251,15916752.276910847
336,0.0
385,21.190994716193373
386,25.054657918387917
387,-17.594220430417952
388,0.0
425,0.0
450,0.0
451,0.0
452,-18.27320389185163
453,0.0
490,0.0
515,0.0
516,0.0
542,0.0
592,0.0
632,15759556.178938953
686,1.0
687,1.0
688,2.0
2,1, 1,21, 0,12,40.00,50.00,WinterDesignDay
250,20.232503830455162
251,14940498.832958171
336,0.0
385,20.524328049526677
386,25.05465791838788
387,-17.594323362176528
388,0.0
425,0.0
450,0.0
451,0.0
452,-18.27327966416854
453,0.0
490,0.0
515,0.0
516,0.0
542,0.0
592,0.0
632,14596426.136399493
686,0.9999999999999986
687,0.9999999999999986
688,1.9999999999999971
2,1, 1,21, 0,12,50.00,60.00,WinterDesignDay
250,20.561328655321898
251,13829048.299471963
336,0.0
385,20.524328049526723
386,25.05465791838794
387,-17.594329400672102
388,0.0
425,0.0
450,0.0
451,0.0
452,-18.273399431066405
453,0.0
490,0.0
515,0.0
516,0.0
542,0.0
592,0.0
632,13427212.444882397
686,1.0000000000000009
687,1.0000000000000009
688,2.0000000000000018
2,1, 1,21, 0,13, 0.00,10.00,WinterDesignDay
250,20.8022998522867
251,14850855.084582064
336,0.0
385,21.190994716193373
386,25.054657918387917
387,-17.594227769492573
388,0.0
425,0.0
450,0.0
451,0.0
452,-18.273348616427672
453,0.0
490,0.0
515,0.0
516,0.0
542,0.0
592,0.0
632,15326296.281596705
686,1.0
687,1.0
688,2.0
2,1, 1,21, 0,13,10.00,20.00,WinterDesignDay
250,21.156192032527
251,15916752.293706093
336,0.0
385,21.190994716193373
386,25.054657918387917
387,-17.594222375482275
388,0.0
425,0.0
450,0.0
451,0.0
452,-18.273204080465007
453,0.0
490,0.0
515,0.0
516,0.0
542,0.0
592,0.0
632,15759556.195707362
686,1.0
687,1.0
688,2.0
2,1, 1,21, 0,13,20.00,30.00,WinterDesignDay
250,20.23250382970452
251,14940498.845884614
336,0.0
385,20.524328049526723
386,25.05465791838794
387,-17.594325284724555
388,0.0
425,0.0
450,0.0
451,0.0
452,-18.273279850612344
453,0.0
490,0.0
515,0.0
516,0.0
542,0.0
592,0.0
632,14596426.149130922
686,1.0000000000000007
687,1.0000000000000007
688,2.0000000000000013
2,1, 1,21, 0,13,30.00,40.00,WinterDesignDay
250,20.56132865528351
251,13829048.315307537
336,0.0
385,20.524328049526723
386,25.05465791838794
387,-17.594331299231698
388,0.0
425,0.0
450,0.0
451,0.0
452,-18.273399615115984
453,0.0
490,0.0
515,0.0
516,0.0
542,0.0
592,0.0
632,13427212.46084669
686,1.0000000000000009
687,1.0000000000000009
688,2.0000000000000018
2,1, 1,21, 0,13,40.00,50.00,WinterDesignDay
250,20.802299852387037
251,14850855.100322388
336,0.0
385,21.190994716193373
386,25.054657918387917
387,-17.594229639233312
388,0.0
425,0.0
450,0.0
451,0.0
452,-18.273348797675954
453,0.0
490,0.0
515,0.0
516,0.0
542,0.0
592,0.0
632,15326296.297407163
686,1.0
687,1.0
688,2.0
2,1, 1,21, 0,13,50.00,60.00,WinterDesignDay
250,21.15619203254231
251,15916752.309633844
336,0.0
385,21.190994716193373
386,25.054657918387917
387,-17.59422422007742
388,0.0
425,0.0
450,0.0
451,0.0
452,-18.273204259336975
453,0.0
490,0.0
515,0.0
516,0.0
542,0.0
592,0.0
632,15759556.211609669
686,1.0
687,1.0
688,2.0
2,1, 1,21, 0,14, 0.00,10.00,WinterDesignDay
250,20.232503828992602
251,14940498.858143283
336,0.0
385,20.524328049526705
386,25.054657918387917
387,-17.594327107965704
388,0.0
425,0.0
450,0.0
451,0.0
452,-18.273280027426722
453,0.0
490,0.0
515,0.0
516,0.0
542,0.0
592,0.0
632,14596426.161204662
686,1.0
687,1.0
688,2.0
2,1, 1,21, 0,14,10.00,20.00,WinterDesignDay
250,20.56132865524709
251,13829048.330325289
336,0.0
385,20.524328049526705
386,25.054657918387917
387,-17.59433309972297
388,0.0
425,0.0
450,0.0
451,0.0
452,-18.27339978965982
453,0.0
490,0.0
515,0.0
516,0.0
542,0.0
592,0.0
632,13427212.475986507
686,1.0
687,1.0
688,2.0
2,1, 1,21, 0,14,20.00,30.00,WinterDesignDay
250,20.80229985248219
251,14850855.115249632
336,0.0
385,21.190994716193373
386,25.054657918387917
387,-17.594231412394294
388,0.0
425,0.0
450,0.0
451,0.0
452,-18.273348969563155
453,0.0
490,0.0
515,0.0
516,0.0
542,0.0
592,0.0
632,15326296.312400915
686,1.0
687,1.0
688,2.0
2,1, 1,21, 0,14,30.00,40.00,WinterDesignDay
250,21.15619203255683
251,15916752.324738927
336,0.0
385,21.190994716193373
386,25.054657918387917
387,-17.59422596939197
388,0.0
425,0.0
450,0.0
451,0.0
452,-18.273204428970573
453,0.0
490,0.0
515,0.0
516,0.0
542,0.0
592,0.0
632,15759556.22669062
686,1.0
687,1.0
688,2.0
2,1, 1,21, 0,14,40.00,50.00,WinterDesignDay
250,20.23250382831744
251,14940498.869768798
336,0.0
385,20.524328049526677
386,25.05465791838788
387,-17.594328837030112
388,0.0
425,0.0
450,0.0
451,0.0
452,-18.273280195108963
453,0.0
490,0.0
515,0.0
516,0.0
542,0.0
592,0.0
632,14596426.172654793
686,0.9999999999999986
687,0.9999999999999986