Program Version,EnergyPlus, Version 24.2.0-94a887817b, YMD=2025.01.30 20:35
1,5,Environment Title[],Latitude[deg],Longitude[deg],Time Zone[],Elevation[m]
2,8,Day of Simulation[],Month[],Day of Month[],DST Indicator[1=yes 0=no],Hour[],StartMinute[],EndMinute[],DayType
3,5,Cumulative Day of Simulation[],Month[],Day of Month[],DST Indicator[1=yes 0=no],DayType  ! When Daily Meters Requested
4,2,Cumulative Days of Simulation[],Month[]  ! When Monthly Meters Requested
5,1,Cumulative Days of Simulation[] ! When Run Period Meters Requested
6,1,Calendar Year of Simulation[] ! When Annual Meters Requested
11,9,Electricity:Facility [J] !Monthly [Value,Min,Day,Hour,Minute,Max,Day,Hour,Minute]
23,9,Electricity:Building [J] !Monthly [Value,Min,Day,Hour,Minute,Max,Day,Hour,Minute]
59,9,InteriorLights:Electricity [J] !Monthly [Value,Min,Day,Hour,Minute,Max,Day,Hour,Minute]
521,9,Electricity:HVAC [J] !Monthly [Value,Min,Day,Hour,Minute,Max,Day,Hour,Minute]
637,9,NaturalGas:Facility [J] !Monthly [Value,Min,Day,Hour,Minute,Max,Day,Hour,Minute]
649,9,NaturalGas:HVAC [J] !Monthly [Value,Min,Day,Hour,Minute,Max,Day,Hour,Minute]
13,11,Electricity:Facility [J] !RunPeriod [Value,Min,Month,Day,Hour,Minute,Max,Month,Day,Hour,Minute]
25,11,Electricity:Building [J] !RunPeriod [Value,Min,Month,Day,Hour,Minute,Max,Month,Day,Hour,Minute]
61,11,InteriorLights:Electricity [J] !RunPeriod [Value,Min,Month,Day,Hour,Minute,Max,Month,Day,Hour,Minute]
523,11,Electricity:HVAC [J] !RunPeriod [Value,Min,Month,Day,Hour,Minute,Max,Month,Day,Hour,Minute]
639,11,NaturalGas:Facility [J] !RunPeriod [Value,Min,Month,Day,Hour,Minute,Max,Month,Day,Hour,Minute]
651,11,NaturalGas:HVAC [J] !RunPeriod [Value,Min,Month,Day,Hour,Minute,Max,Month,Day,Hour,Minute]
End of Data Dictionary
1,RUN PERIOD 1,  41.98, -87.92,  -6.00, 201.00
4,31, 1
11,9845432883.225105,552268.6953075284,15, 4,50,3625845.006393396, 9,14,30
23,2017665622.7508538,135644.96933447925,17,19,10,1086231.5175425974, 7, 9,10
59,970200000.0,30000.0, 1, 1,10,600000.0, 1, 8,10
521,7827767260.474353,0.0,17,13,60,2587268.567471475,12, 4,50
637,35113730321.84555,0.0, 9,14,60,27773860.766312182,27, 7,50
649,35113730321.84555,0.0, 9,14,60,27773860.766312182,27, 7,50
4,59, 2
11,8925557064.231804,260412.49829671835,23,14,60,-99999999999999.0, 9,14,30
23,1760804531.1741977,123816.4048659727,23,15,20,-99999999999999.0, 7, 9,10
59,848160000.0,99999999999999.0, 1, 1,10,-99999999999999.0, 1, 8,10
521,7164752533.057628,99999999999999.0,17,13,60,2600626.16641311,17,16,20
637,24077562582.06603,99999999999999.0, 9,14,60,-99999999999999.0,27, 7,50
649,24077562582.06603,99999999999999.0, 9,14,60,-99999999999999.0,27, 7,50
4,90, 3
11,8460843247.173183,103102.04007978836,27,19,60,-99999999999999.0, 9,14,30
23,1820928330.1263855,101503.90148799348,27,20,10,-99999999999999.0, 7, 9,10
59,897480000.0,99999999999999.0, 1, 1,10,-99999999999999.0, 1, 8,10
521,6639914917.046806,99999999999999.0,17,13,60,-99999999999999.0,17,16,20
637,12129052451.634361,99999999999999.0, 9,14,60,-99999999999999.0,27, 7,50
649,12129052451.634361,99999999999999.0, 9,14,60,-99999999999999.0,27, 7,50
4,120, 4
11,5995943858.500929,96300.15518566903,17,20,10,-99999999999999.0, 9,14,30
23,1779762515.809713,96300.15518566903,17,20,10,-99999999999999.0, 7, 9,10
59,929520000.0,99999999999999.0, 1, 1,10,-99999999999999.0, 1, 8,10
521,4216181342.691213,99999999999999.0,17,13,60,-99999999999999.0,17,16,20
637,6492607700.539221,99999999999999.0, 9,14,60,-99999999999999.0,27, 7,50
649,6492607700.539221,99999999999999.0, 9,14,60,-99999999999999.0,27, 7,50
4,151, 5
11,3324001046.4452734,91550.56733945041,25,10,60,-99999999999999.0, 9,14,30
23,1784946732.7133262,30000.0, 4,15,60,-99999999999999.0, 7, 9,10
59,970200000.0,99999999999999.0, 1, 1,10,-99999999999999.0, 1, 8,10
521,1539054313.7319508,99999999999999.0,17,13,60,-99999999999999.0,17,16,20
637,1970759431.7247515,99999999999999.0, 9,14,60,-99999999999999.0,27, 7,50
649,1970759431.7247515,99999999999999.0, 9,14,60,-99999999999999.0,27, 7,50
4,181, 6
11,2369827751.600502,69840.32107165702, 8,10,20,-99999999999999.0, 9,14,30
23,1556587771.7379546,99999999999999.0, 4,15,60,-99999999999999.0, 7, 9,10
59,856800000.0,99999999999999.0, 1, 1,10,-99999999999999.0, 1, 8,10
521,813239979.8625499,99999999999999.0,17,13,60,-99999999999999.0,17,16,20
637,299880874.36619866,99999999999999.0, 9,14,60,-99999999999999.0,27, 7,50
649,299880874.36619866,99999999999999.0, 9,14,60,-99999999999999.0,27, 7,50
4,212, 7
11,2718420508.8281574,99999999999999.0, 8,10,20,-99999999999999.0, 9,14,30
23,1685394463.7054653,99999999999999.0, 4,15,60,-99999999999999.0, 7, 9,10
59,970200000.0,99999999999999.0, 1, 1,10,-99999999999999.0, 1, 8,10
521,1033026045.1226958,99999999999999.0,17,13,60,-99999999999999.0,17,16,20
637,22656189.856849913,99999999999999.0, 9,14,60,-99999999999999.0,27, 7,50
649,22656189.856849913,99999999999999.0, 9,14,60,-99999999999999.0,27, 7,50
4,243, 8
11,2314818783.548029,99999999999999.0, 8,10,20,-99999999999999.0, 9,14,30
23,1670032483.2476957,99999999999999.0, 4,15,60,-99999999999999.0, 7, 9,10
59,933840000.0,99999999999999.0, 1, 1,10,-99999999999999.0, 1, 8,10
521,644786300.3003324,99999999999999.0,17,13,60,-99999999999999.0,17,16,20
637,97544840.9966425,99999999999999.0, 9,14,60,-99999999999999.0,27, 7,50
649,97544840.9966425,99999999999999.0, 9,14,60,-99999999999999.0,27, 7,50
4,273, 9
11,2562583056.8519454,99999999999999.0, 8,10,20,-99999999999999.0, 9,14,30
23,1624529866.065192,99999999999999.0, 4,15,60,-99999999999999.0, 7, 9,10
59,893160000.0,99999999999999.0, 1, 1,10,-99999999999999.0, 1, 8,10
521,938053190.7867587,99999999999999.0,17,13,60,-99999999999999.0,17,16,20
637,785595062.4932948,99999999999999.0, 9,14,60,-99999999999999.0,27, 7,50
649,785595062.4932948,99999999999999.0, 9,14,60,-99999999999999.0,27, 7,50
4,304,10
11,4965170451.441012,99999999999999.0, 8,10,20,-99999999999999.0, 9,14,30
23,1840233572.314632,99999999999999.0, 4,15,60,-99999999999999.0, 7, 9,10
59,970200000.0,99999999999999.0, 1, 1,10,-99999999999999.0, 1, 8,10
521,3124936879.1263723,99999999999999.0,17,13,60,-99999999999999.0,17,16,20
637,4543365967.268149,99999999999999.0, 9,14,60,-99999999999999.0,27, 7,50
649,4543365967.268149,99999999999999.0, 9,14,60,-99999999999999.0,27, 7,50
4,334,11
11,7699411000.11247,99999999999999.0, 8,10,20,-99999999999999.0, 9,14,30
23,1786142877.6109636,99999999999999.0, 4,15,60,-99999999999999.0, 7, 9,10
59,893160000.0,99999999999999.0, 1, 1,10,-99999999999999.0, 1, 8,10
521,5913268122.501494,99999999999999.0,17,13,60,-99999999999999.0,17,16,20
637,13863916359.441256,99999999999999.0, 9,14,60,-99999999999999.0,27, 7,50
649,13863916359.441256,99999999999999.0, 9,14,60,-99999999999999.0,27, 7,50
4,365,12
11,10630816506.825119,99999999999999.0, 8,10,20,-99999999999999.0, 9,14,30
23,1941980507.9776437,99999999999999.0, 4,15,60,-99999999999999.0, 7, 9,10
59,933840000.0,99999999999999.0, 1, 1,10,-99999999999999.0, 1, 8,10
521,8688835998.847565,99999999999999.0,17,13,60,-99999999999999.0,17,16,20
637,29341556279.32254,99999999999999.0, 9,14,60,-99999999999999.0,27, 7,50
649,29341556279.32254,99999999999999.0, 9,14,60,-99999999999999.0,27, 7,50
5,365
13,69812826158.78317,69840.32107165702, 6, 8,10,20,3625845.006393396, 1, 9,14,30
25,21269009275.23415,30000.0, 5, 4,15,60,1086231.5175425974, 1, 7, 9,10
61,11066760000.0,30000.0, 1, 1, 1,10,600000.0, 1, 1, 8,10
523,48543816883.54975,0.0, 1,17,13,60,2600626.16641311, 2,17,16,20
639,128738228061.55438,0.0, 1, 9,14,60,27773860.766312182, 1,27, 7,50
651,128738228061.55438,0.0, 1, 9,14,60,27773860.766312182, 1,27, 7,50
1,RUN PERIOD 2,  41.98, -87.92,  -6.00, 201.00
4,1, 7
11,81894086.73518768,99999999999999.0, 8,10,20,-99999999999999.0, 9,14,30
23,69261295.10777247,99999999999999.0, 4,15,60,-99999999999999.0, 7, 9,10
59,40680000.0,99999999999999.0, 1, 1,10,-99999999999999.0, 1, 8,10
521,12632791.62741524,99999999999999.0,17,13,60,-99999999999999.0,17,16,20
637,0.0,99999999999999.0, 9,14,60,-99999999999999.0,27, 7,50
649,0.0,99999999999999.0, 9,14,60,-99999999999999.0,27, 7,50
5,1
13,81894086.73518768,99999999999999.0, 6, 8,10,20,-99999999999999.0, 1, 9,14,30
25,69261295.10777247,99999999999999.0, 5, 4,15,60,-99999999999999.0, 1, 7, 9,10
61,40680000.0,99999999999999.0, 1, 1, 1,10,-99999999999999.0, 1, 1, 8,10
523,12632791.62741524,99999999999999.0, 1,17,13,60,-99999999999999.0, 2,17,16,20
639,0.0,99999999999999.0, 1, 9,14,60,-99999999999999.0, 1,27, 7,50
651,0.0,99999999999999.0, 1, 9,14,60,-99999999999999.0, 1,27, 7,50
End of Data
 Number of Records Written=          90
