Program Version,EnergyPlus, Version 24.2.0-94a887817b, YMD=2025.02.04 15:41
1,5,Environment Title[],Latitude[deg],Longitude[deg],Time Zone[],Elevation[m]
2,8,Day of Simulation[],Month[],Day of Month[],DST Indicator[1=yes 0=no],Hour[],StartMinute[],EndMinute[],DayType
3,5,Cumulative Day of Simulation[],Month[],Day of Month[],DST Indicator[1=yes 0=no],DayType  ! When Daily Meters Requested
4,2,Cumulative Days of Simulation[],Month[]  ! When Monthly Meters Requested
5,1,Cumulative Days of Simulation[] ! When Run Period Meters Requested
6,1,Calendar Year of Simulation[] ! When Annual Meters Requested
11,9,Electricity:Facility [J] !Monthly [Value,Min,Day,Hour,Minute,Max,Day,Hour,Minute]
23,9,Electricity:Building [J] !Monthly [Value,Min,Day,Hour,Minute,Max,Day,Hour,Minute]
59,9,InteriorLights:Electricity [J] !Monthly [Value,Min,Day,Hour,Minute,Max,Day,Hour,Minute]
521,9,Electricity:HVAC [J] !Monthly [Value,Min,Day,Hour,Minute,Max,Day,Hour,Minute]
637,9,NaturalGas:Facility [J] !Monthly [Value,Min,Day,Hour,Minute,Max,Day,Hour,Minute]
649,9,NaturalGas:HVAC [J] !Monthly [Value,Min,Day,Hour,Minute,Max,Day,Hour,Minute]
13,11,Electricity:Facility [J] !RunPeriod [Value,Min,Month,Day,Hour,Minute,Max,Month,Day,Hour,Minute]
25,11,Electricity:Building [J] !RunPeriod [Value,Min,Month,Day,Hour,Minute,Max,Month,Day,Hour,Minute]
61,11,InteriorLights:Electricity [J] !RunPeriod [Value,Min,Month,Day,Hour,Minute,Max,Month,Day,Hour,Minute]
523,11,Electricity:HVAC [J] !RunPeriod [Value,Min,Month,Day,Hour,Minute,Max,Month,Day,Hour,Minute]
639,11,NaturalGas:Facility [J] !RunPeriod [Value,Min,Month,Day,Hour,Minute,Max,Month,Day,Hour,Minute]
651,11,NaturalGas:HVAC [J] !RunPeriod [Value,Min,Month,Day,Hour,Minute,Max,Month,Day,Hour,Minute]
End of Data Dictionary
1,RUN PERIOD 1,  41.98, -87.92,  -6.00, 201.00
4,31, 1
11,9830983886.110289,408891.4285714286, 5, 6,50,2985222.35925917,16,13,60
23,991933784.8792932,30000.0, 1, 1,10,615749.1194777454, 1, 9,10
59,970200000.0,30000.0, 1, 1,10,600000.0, 1, 8,10
521,8839050101.230986,378891.4285714286, 5, 6,50,2369473.239781425,16,13,60
637,178958405600.4841,28223996.974911816,21,16,10,41250000.0, 1, 1,10
649,178958405600.4841,28223996.974911816,21,16,10,41250000.0, 1, 1,10
4,59, 2
11,9363435064.437151,99999999999999.0, 5, 6,50,3026683.7995222923,22,15,30
23,867058943.3732984,99999999999999.0, 1, 1,10,-99999999999999.0, 1, 9,10
59,848160000.0,99999999999999.0, 1, 1,10,-99999999999999.0, 1, 8,10
521,8496376121.063895,99999999999999.0, 5, 6,50,2410934.680044547,22,15,30
637,158329566543.78613,26536478.762580577,23,12,10,-99999999999999.0, 1, 1,10
649,158329566543.78613,26536478.762580577,23,12,10,-99999999999999.0, 1, 1,10
4,90, 3
11,10983065997.454327,99999999999999.0, 5, 6,50,3241563.5580944037,27,15,20
23,917323890.5419633,99999999999999.0, 1, 1,10,-99999999999999.0, 1, 9,10
59,897480000.0,99999999999999.0, 1, 1,10,-99999999999999.0, 1, 8,10
521,10065742106.91233,0.0,27,15,30,2625814.438616658,27,15,20
637,162396222800.73853,0.0,27,15,30,-99999999999999.0, 1, 1,10
649,162396222800.73853,0.0,27,15,30,-99999999999999.0, 1, 1,10
4,120, 4
11,9651429877.648266,30000.0,11,19,10,-99999999999999.0,27,15,20
23,950308837.7106283,99999999999999.0, 1, 1,10,-99999999999999.0, 1, 9,10
59,929520000.0,99999999999999.0, 1, 1,10,-99999999999999.0, 1, 8,10
521,8701121039.937725,99999999999999.0,27,15,30,-99999999999999.0,27,15,20
637,120407685469.50018,99999999999999.0,27,15,30,-99999999999999.0, 1, 1,10
649,120407685469.50018,99999999999999.0,27,15,30,-99999999999999.0, 1, 1,10
4,151, 5
11,9224551106.364347,99999999999999.0,11,19,10,-99999999999999.0,27,15,20
23,992239226.6460994,99999999999999.0, 1, 1,10,631655.3503837071,28,13,10
59,970200000.0,99999999999999.0, 1, 1,10,-99999999999999.0, 1, 8,10
521,8232311879.718252,99999999999999.0,27,15,30,-99999999999999.0,27,15,20
637,93224955041.70407,99999999999999.0,27,15,30,-99999999999999.0, 1, 1,10
649,93224955041.70407,99999999999999.0,27,15,30,-99999999999999.0, 1, 1,10
4,181, 6
11,7299714185.500821,99999999999999.0,11,19,10,3242053.613185957,24,12,50
23,875743532.0532672,99999999999999.0, 1, 1,10,-99999999999999.0,28,13,10
59,856800000.0,99999999999999.0, 1, 1,10,-99999999999999.0, 1, 8,10
521,6423970653.447615,99999999999999.0,27,15,30,2626813.4857075927, 2, 9,10
637,42325994704.74765,99999999999999.0,27,15,30,-99999999999999.0, 1, 1,10
649,42325994704.74765,99999999999999.0,27,15,30,-99999999999999.0, 1, 1,10
4,212, 7
11,6805559975.336501,99999999999999.0,11,19,10,-99999999999999.0,24,12,50
23,992177356.4860425,99999999999999.0, 1, 1,10,-99999999999999.0,28,13,10
59,970200000.0,99999999999999.0, 1, 1,10,-99999999999999.0, 1, 8,10
521,5813382618.850482,99999999999999.0,27,15,30,-99999999999999.0, 2, 9,10
637,15459110944.97951,99999999999999.0,27,15,30,-99999999999999.0, 1, 1,10
649,15459110944.97951,99999999999999.0,27,15,30,-99999999999999.0, 1, 1,10
4,243, 8
11,6003426970.886152,99999999999999.0,11,19,10,-99999999999999.0,24,12,50
23,954943269.2330472,99999999999999.0, 1, 1,10,643057.1770268742, 6,11,60
59,933840000.0,99999999999999.0, 1, 1,10,-99999999999999.0, 1, 8,10
521,5048483701.653197,99999999999999.0,27,15,30,-99999999999999.0, 2, 9,10
637,28646249269.847168,99999999999999.0,27,15,30,-99999999999999.0, 1, 1,10
649,28646249269.847168,99999999999999.0,27,15,30,-99999999999999.0, 1, 1,10
4,273, 9
11,7523311251.613302,99999999999999.0,11,19,10,3242605.4204968167,25,14,30
23,913064395.3650923,99999999999999.0, 1, 1,10,-99999999999999.0, 6,11,60
59,893160000.0,99999999999999.0, 1, 1,10,-99999999999999.0, 1, 8,10
521,6610246856.248283,99999999999999.0,27,15,30,2626856.301019071,25,14,30
637,64599776682.30833,99999999999999.0,27,15,30,-99999999999999.0, 1, 1,10
649,64599776682.30833,99999999999999.0,27,15,30,-99999999999999.0, 1, 1,10
4,304,10
11,10596736352.492378,99999999999999.0,11,19,10,-99999999999999.0,25,14,30
23,991983600.7166761,99999999999999.0, 1, 1,10,-99999999999999.0, 6,11,60
59,970200000.0,99999999999999.0, 1, 1,10,-99999999999999.0, 1, 8,10
521,9604752751.775745,99999999999999.0,27,15,30,-99999999999999.0,25,14,30
637,128387562426.82974,99999999999999.0,27,15,30,-99999999999999.0, 1, 1,10
649,128387562426.82974,99999999999999.0,27,15,30,-99999999999999.0, 1, 1,10
4,334,11
11,10469063604.648947,99999999999999.0,11,19,10,-99999999999999.0,25,14,30
23,913003890.5419633,99999999999999.0, 1, 1,10,-99999999999999.0, 6,11,60
59,893160000.0,99999999999999.0, 1, 1,10,-99999999999999.0, 1, 8,10
521,9556059714.106976,99999999999999.0,27,15,30,-99999999999999.0,25,14,30
637,147594054595.58804,99999999999999.0,27,15,30,-99999999999999.0, 1, 1,10
649,147594054595.58804,99999999999999.0,27,15,30,-99999999999999.0, 1, 1,10
4,365,12
11,10443579458.094448,99999999999999.0,11,19,10,-99999999999999.0,25,14,30
23,954628837.7106283,99999999999999.0, 1, 1,10,-99999999999999.0, 6,11,60
59,933840000.0,99999999999999.0, 1, 1,10,-99999999999999.0, 1, 8,10
521,9488950620.383821,99999999999999.0,27,15,30,-99999999999999.0,25,14,30
637,179791203428.64417,99999999999999.0,27,15,30,-99999999999999.0, 1, 1,10
649,179791203428.64417,99999999999999.0,27,15,30,-99999999999999.0, 1, 1,10
5,365
13,108194857730.58836,30000.0, 4,11,19,10,3242605.4204968167, 9,25,14,30
25,11314409565.256977,30000.0, 1, 1, 1,10,643057.1770268742, 8, 6,11,60
61,11066760000.0,30000.0, 1, 1, 1,10,600000.0, 1, 1, 8,10
523,96880448165.33478,0.0, 3,27,15,30,2626856.301019071, 9,25,14,30
639,1320120787509.157,0.0, 3,27,15,30,41250000.0, 1, 1, 1,10
651,1320120787509.157,0.0, 3,27,15,30,41250000.0, 1, 1, 1,10
1,RUN PERIOD 2,  41.98, -87.92,  -6.00, 201.00
4,1, 7
11,125125426.9289353,99999999999999.0,11,19,10,-99999999999999.0,25,14,30
23,41624947.16866476,99999999999999.0, 1, 1,10,-99999999999999.0, 6,11,60
59,40680000.0,99999999999999.0, 1, 1,10,-99999999999999.0, 1, 8,10
521,83500479.7602706,99999999999999.0,27,15,30,-99999999999999.0,25,14,30
637,0.0,99999999999999.0,27,15,30,-99999999999999.0, 1, 1,10
649,0.0,99999999999999.0,27,15,30,-99999999999999.0, 1, 1,10
5,1
13,125125426.9289353,99999999999999.0, 4,11,19,10,-99999999999999.0, 9,25,14,30
25,41624947.16866476,99999999999999.0, 1, 1, 1,10,-99999999999999.0, 8, 6,11,60
61,40680000.0,99999999999999.0, 1, 1, 1,10,-99999999999999.0, 1, 1, 8,10
523,83500479.7602706,99999999999999.0, 3,27,15,30,-99999999999999.0, 9,25,14,30
639,0.0,99999999999999.0, 3,27,15,30,-99999999999999.0, 1, 1, 1,10
651,0.0,99999999999999.0, 3,27,15,30,-99999999999999.0, 1, 1, 1,10
End of Data
 Number of Records Written=          90
