Program Version,EnergyPlus, Version 24.2.0-94a887817b, YMD=2025.02.04 15:41
1,5,Environment Title[],Latitude[deg],Longitude[deg],Time Zone[],Elevation[m]
2,8,Day of Simulation[],Month[],Day of Month[],DST Indicator[1=yes 0=no],Hour[],StartMinute[],EndMinute[],DayType
3,5,Cumulative Day of Simulation[],Month[],Day of Month[],DST Indicator[1=yes 0=no],DayType  ! When Daily Report Variables Requested
4,2,Cumulative Days of Simulation[],Month[]  ! When Monthly Report Variables Requested
5,1,Cumulative Days of Simulation[] ! When Run Period Report Variables Requested
6,1,Calendar Year of Simulation[] ! When Annual Report Variables Requested
250,1,LIVING ZONE,Zone Air Temperature [C] !TimeStep,REPORTSCH
251,1,LIVING ZONE,Zone Air System Sensible Heating Energy [J] !TimeStep,REPORTSCH
336,1,LIVING ZONE,Zone Air System Sensible Cooling Energy [J] !TimeStep,REPORTSCH
385,1,LIVING ZONE,Zone Thermostat Heating Setpoint Temperature [C] !TimeStep,REPORTSCH
386,1,LIVING ZONE,Zone Thermostat Cooling Setpoint Temperature [C] !TimeStep,REPORTSCH
387,1,GARAGE ZONE,Zone Air Temperature [C] !TimeStep,REPORTSCH
388,1,GARAGE ZONE,Zone Air System Sensible Heating Energy [J] !TimeStep,REPORTSCH
425,1,GARAGE ZONE,Zone Air System Sensible Cooling Energy [J] !TimeStep,REPORTSCH
450,1,GARAGE ZONE,Zone Thermostat Heating Setpoint Temperature [C] !TimeStep,REPORTSCH
451,1,GARAGE ZONE,Zone Thermostat Cooling Setpoint Temperature [C] !TimeStep,REPORTSCH
452,1,ATTIC ZONE,Zone Air Temperature [C] !TimeStep,REPORTSCH
453,1,ATTIC ZONE,Zone Air System Sensible Heating Energy [J] !TimeStep,REPORTSCH
490,1,ATTIC ZONE,Zone Air System Sensible Cooling Energy [J] !TimeStep,REPORTSCH
515,1,ATTIC ZONE,Zone Thermostat Heating Setpoint Temperature [C] !TimeStep,REPORTSCH
516,1,ATTIC ZONE,Zone Thermostat Cooling Setpoint Temperature [C] !TimeStep,REPORTSCH
542,1,ACDXCOIL 1,Cooling Coil Total Cooling Energy [J] !TimeStep,REPORTSCH
592,1,HEAT PUMP DX HEATING COIL 1,Heating Coil Heating Energy [J] !TimeStep,REPORTSCH
632,1,SUPP HEATING COIL 1,Heating Coil Heating Energy [J] !TimeStep,REPORTSCH
686,1,TWOSPEED HEAT PUMP 1,Unitary System DX Coil Cycling Ratio [] !TimeStep,REPORTSCH
687,1,TWOSPEED HEAT PUMP 1,Unitary System DX Coil Speed Ratio [] !TimeStep,REPORTSCH
688,1,TWOSPEED HEAT PUMP 1,Unitary System DX Coil Speed Level [] !TimeStep,REPORTSCH
End of Data Dictionary
1,RUN PERIOD 1,  41.98, -87.92,  -6.00, 201.00
2,21, 1,21, 0, 1, 0.00,10.00,Monday
250,-0.6589121584255291
251,38035000.98310982
336,0.0
385,20.645708794804627
386,25.78171939946418
387,-0.9438900080880593
388,0.0
425,0.0
450,0.0
451,0.0
452,-1.9709603615394222
453,0.0
490,0.0
515,0.0
516,0.0
542,0.0
592,4839743.985079641
632,32937322.50204557
686,1.0
687,1.0
688,2.0
2,21, 1,21, 0, 1,10.00,20.00,Monday
250,-0.6589591772274797
251,38036648.291800454
336,0.0
385,20.645708794804627
386,25.78171939946418
387,-0.9522600584887259
388,0.0
425,0.0
450,0.0
451,0.0
452,-1.952831723047815
453,0.0
490,0.0
515,0.0
516,0.0
542,0.0
592,4823801.676011795
632,32953929.87637691
686,1.0
687,1.0
688,2.0
2,21, 1,21, 0, 1,20.00,30.00,Monday
250,-0.6590857737140086
251,38038379.59102751
336,0.0
385,20.645708794804627
386,25.78171939946418
387,-0.9618623977696201
388,0.0
425,0.0
450,0.0
451,0.0
452,-1.9497488512054009
453,0.0
490,0.0
515,0.0
516,0.0
542,0.0
592,4807858.162905219
632,32971561.848015122
686,1.0
687,1.0
688,2.0
2,21, 1,21, 0, 1,30.00,40.00,Monday
250,-0.6591967129134957
251,38040087.97108052
336,0.0
385,20.645708794804627
386,25.78171939946418
387,-0.9729017714393009
388,0.0
425,0.0
450,0.0
451,0.0
452,-1.9626127263817439
453,0.0
490,0.0
515,0.0
516,0.0
542,0.0
592,4791913.445623511
632,32989223.371653702
686,1.0
687,1.0
688,2.0
2,21, 1,21, 0, 1,40.00,50.00,Monday
250,-0.6593876275438343
251,38034961.73787189
336,0.0
385,20.645708794804627
386,25.78171939946418
387,-0.9855355840167532
388,0.0
425,0.0
450,0.0
451,0.0
452,-1.9898044498206422
453,0.0
490,0.0
515,0.0
516,0.0
542,0.0
592,4775967.524030241
632,33000000.0
686,1.0
687,1.0
688,2.0
2,21, 1,21, 0, 1,50.00,60.00,Monday
250,-0.6597010421975987
251,38019080.5711385
336,0.0
385,20.645708794804627
386,25.78171939946418
387,-0.999952705334974
388,0.0
425,0.0
450,0.0
451,0.0
452,-2.0297929820174683
453,0.0
490,0.0
515,0.0
516,0.0
542,0.0
592,4760020.397988958
632,33000000.0
686,1.0
687,1.0
688,2.0
2,21, 1,21, 0, 2, 0.00,10.00,Monday
250,-0.6598325325944207
251,38018982.62495725
336,0.0
385,20.645708794804627
386,25.78171939946418
387,-1.0154724135584778
388,0.0
425,0.0
450,0.0
451,0.0
452,-2.0765360020409878
453,0.0
490,0.0
515,0.0
516,0.0
542,0.0
592,4760020.397988959
632,33000000.0
686,1.0
687,1.0
688,2.0
2,21, 1,21, 0, 2,10.00,20.00,Monday
250,-0.6599570323137359
251,38018978.8610174
336,0.0
385,20.645708794804627
386,25.78171939946418
387,-1.0311537488861693
388,0.0
425,0.0
450,0.0
451,0.0
452,-2.119250483659978
453,0.0
490,0.0
515,0.0
516,0.0
542,0.0
592,4760020.397988956
632,33000000.0
686,1.0
687,1.0
688,2.0
2,21, 1,21, 0, 2,20.00,30.00,Monday
250,-0.6600820289551317
251,38018979.12855482
336,0.0
385,20.645708794804627
386,25.78171939946418
387,-1.0464440259944117
388,0.0
425,0.0
450,0.0
451,0.0
452,-2.150708278503577
453,0.0
490,0.0
515,0.0
516,0.0
542,0.0
592,4760020.397988958
632,33000000.0
686,1.0
687,1.0
688,2.0
2,21, 1,21, 0, 2,30.00,40.00,Monday
250,-0.660204530980915
251,38018977.78538302
336,0.0
385,20.645708794804627
386,25.78171939946418
387,-1.0610220617017978
388,0.0
425,0.0
450,0.0
451,0.0
452,-2.1700882655491314
453,0.0
490,0.0
515,0.0
516,0.0
542,0.0
592,4760020.397988958
632,33000000.0
686,1.0
687,1.0
688,2.0
2,21, 1,21, 0, 2,40.00,50.00,Monday
250,-0.66032516422595
251,38018976.77917496
336,0.0
385,20.645708794804627
386,25.78171939946418
387,-1.0747472547223675
388,0.0
425,0.0
450,0.0
451,0.0
452,-2.180229519003132
453,0.0
490,0.0
515,0.0
516,0.0
542,0.0
592,4760020.397988958
632,33000000.0
686,1.0
687,1.0
688,2.0
2,21, 1,21, 0, 2,50.00,60.00,Monday
250,-0.6604436546593554
251,38018975.62541982
336,0.0
385,20.645708794804627
386,25.78171939946418
387,-1.087581994961002
388,0.0
425,0.0
450,0.0
451,0.0
452,-2.1842800060740224
453,0.0
490,0.0
515,0.0
516,0.0
542,0.0
592,4760020.397988958
632,33000000.0
686,1.0
687,1.0
688,2.0
2,21, 1,21, 0, 3, 0.00,10.00,Monday
250,-0.5787831029060125
251,37977481.7936425
336,0.0
385,20.645708794804627
386,25.78171939946418
387,-1.0891405929168585
388,0.0
425,0.0
450,0.0
451,0.0
452,-2.176811937197664
453,0.0
490,0.0
515,0.0
516,0.0
542,0.0
592,4762558.894114006
632,33000000.0
686,1.0
687,1.0
688,2.0
2,21, 1,21, 0, 3,10.00,20.00,Monday
250,-0.4953154289420319
251,37958362.24177992
336,0.0
385,20.645708794804627
386,25.78171939946418
387,-1.078117262520469
388,0.0
425,0.0
450,0.0
451,0.0
452,-2.151848582537071
453,0.0
490,0.0
515,0.0
516,0.0
542,0.0
592,4764988.4357309695
632,32979425.735550694
686,1.0
687,1.0
688,2.0
2,21, 1,21, 0, 3,20.00,30.00,Monday
250,-0.4128265372318278
251,37915529.67364513
336,0.0
385,20.645708794804627
386,25.78171939946418
387,-1.0589254936646506
388,0.0
425,0.0
450,0.0
451,0.0
452,-2.107938668649655
453,0.0
490,0.0
515,0.0
516,0.0
542,0.0
592,4767308.250738335
632,32933748.180271003
686,1.0
687,1.0
688,2.0
2,21, 1,21, 0, 3,30.00,40.00,Monday
250,-0.33016977867748104
251,37872599.57855941
336,0.0
385,20.645708794804627
386,25.78171939946418
387,-1.0353634364322766
388,0.0
425,0.0
450,0.0
451,0.0
452,-2.048211473059745
453,0.0
490,0.0
515,0.0
516,0.0
542,0.0
592,4769517.689516207
632,32888700.89360512
686,1.0
687,1.0
688,2.0
2,21, 1,21, 0, 3,40.00,50.00,Monday
250,-0.24747019216019034
251,37829655.629341856
336,0.0
385,20.645708794804627
386,25.78171939946418
387,-1.0087431435882648
388,0.0
425,0.0
450,0.0
451,0.0
452,-1.9771503289139072
453,0.0
490,0.0
515,0.0
516,0.0
542,0.0
592,4771616.115684973
632,32843683.452267792
686,1.0
687,1.0
688,2.0
2,21, 1,21, 0, 3,50.00,60.00,Monday
250,-0.1647473654287728
251,37786706.12740117
336,0.0
385,20.645708794804627
386,25.78171939946418
387,-0.9788617243806754
388,0.0
425,0.0
450,0.0
451,0.0
452,-1.8983745080148633
453,0.0
490,0.0
515,0.0
516,0.0
542,0.0
592,4773602.736238394
632,32798761.729548372
686,1.0
687,1.0
688,2.0
2,21, 1,21, 0, 4, 0.00,10.00,Monday
250,-0.16374744099235017
251,37787776.42469508
336,0.0
385,20.645708794804627
386,25.78171939946418
387,-0.9561547946012434
388,0.0
425,0.0
450,0.0
451,0.0
452,-1.822171118404556
453,0.0
490,0.0
515,0.0
516,0.0
542,0.0
592,4773428.98237163
632,32755994.5385946
686,1.0
687,1.0
688,2.0
2,21, 1,21, 0, 4,10.00,20.00,Monday
250,-0.16429247388742108
251,37788136.54192968
336,0.0
385,20.645708794804627
386,25.78171939946418
387,-0.9435061869826623
388,0.0
425,0.0
450,0.0
451,0.0
452,-1.757577613856871
453,0.0
490,0.0
515,0.0
516,0.0
542,0.0
592,4773255.1694479585
632,32755696.40745844
686,1.0
687,1.0
688,2.0
2,21, 1,21, 0, 4,20.00,30.00,Monday
250,-0.16409264851284266
251,37788056.36287486
336,0.0
385,20.645708794804627
386,25.78171939946418
387,-0.9374844911032506
388,0.0
425,0.0
450,0.0
451,0.0
452,-1.7082003310687621
453,0.0
490,0.0
515,0.0
516,0.0
542,0.0
592,4773081.297437258
632,32756191.25619441
686,1.0
687,1.0
688,2.0
2,21, 1,21, 0, 4,30.00,40.00,Monday
250,-0.16404141007086506
251,37788070.14054616
336,0.0
385,20.645708794804627
386,25.78171939946418
387,-0.9342417574713617
388,0.0
425,0.0
450,0.0
451,0.0
452,-1.6723841085322375
453,0.0
490,0.0
515,0.0
516,0.0
542,0.0
592,4772907.3663094025
632,32756298.941023294
686,1.0
687,1.0
688,2.0
2,21, 1,21, 0, 4,40.00,50.00,Monday
250,-0.1640047051005146
251,37788089.18045422
336,0.0
385,20.645708794804627
386,25.78171939946418
387,-0.9319776608320471
388,0.0
425,0.0
450,0.0
451,0.0
452,-1.6464600994323393
453,0.0
490,0.0
515,0.0
516,0.0
542,0.0
592,4772733.376034233
632,32756484.14397181
686,1.0
687,1.0
688,2.0
2,21, 1,21, 0, 4,50.00,60.00,Monday
250,-0.1639659151738386
251,37788106.82679055
336,0.0
385,20.645708794804627
386,25.78171939946418
387,-0.9304951768181154
388,0.0
425,0.0
450,0.0
451,0.0
452,-1.6273686000898606
453,0.0
490,0.0
515,0.0
516,0.0
542,0.0
592,4772559.326581573
632,32756676.962672908
686,1.0
687,1.0
688,2.0
2,21, 1,21, 0, 5, 0.00,10.00,Monday
250,-0.16392920781681397
251,37788125.655340895
336,0.0
385,20.645708794804627
386,25.78171939946418
387,-0.9298418525767782
388,0.0
425,0.0
450,0.0
451,0.0
452,-1.6124932814415531
453,0.0
490,0.0
515,0.0
516,0.0
542,0.0
592,4759720.858689581
632,32769533.13752888
686,1.0
687,1.0
688,2.0
2,21, 1,21, 0, 5,10.00,20.00,Monday
250,-0.16387940276543767
251,37789400.347472765
336,0.0
385,20.645708794804627
386,25.78171939946418
387,-0.9298817462956341
388,0.0
425,0.0
450,0.0
451,0.0
452,-1.5995235368250633
453,0.0
490,0.0
515,0.0
516,0.0
542,0.0
592,4746877.262331866
632,32783658.48095605
686,1.0
687,1.0
688,2.0
2,21, 1,21, 0, 5,20.00,30.00,Monday
250,-0.1638294011044537
251,37790707.45323282
336,0.0
385,20.645708794804627
386,25.78171939946418
387,-0.9303870558534885
388,0.0
425,0.0
450,0.0
451,0.0
452,-1.5870576019045324
453,0.0
490,0.0
515,0.0
516,0.0
542,0.0
592,4734028.534436013
632,32797814.421454165
686,1.0
687,1.0
688,2.0
2,21, 1,21, 0, 5,30.00,40.00,Monday
250,-0.16377985312737695
251,37792003.95142544
336,0.0
385,20.645708794804627
386,25.78171939946418
387,-0.9311548017997862
388,0.0
425,0.0
450,0.0
451,0.0
452,-1.5746615570688225
453,0.0
490,0.0
515,0.0
516,0.0
542,0.0
592,4721174.671927154
632,32811964.538732864
686,1.0
687,1.0
688,2.0
2,21, 1,21, 0, 5,40.00,50.00,Monday
250,-0.1637302820471746
251,37793303.074888505
336,0.0
385,20.645708794804627
386,25.78171939946418
387,-0.9320487450173539
388,0.0
425,0.0
450,0.0
451,0.0
452,-1.5624037386086882
453,0.0
490,0.0
515,0.0
516,0.0
542,0.0
592,4708315.671727969
632,32826122.675775744
686,1.0
687,1.0
688,2.0
2,21, 1,21, 0, 5,50.00,60.00,Monday
250,-0.1636805689653522
251,37794602.88071538
336,0.0
385,20.645708794804627
386,25.78171939946418
387,-0.9329893912452943
388,0.0
425,0.0
450,0.0
451,0.0
452,-1.5504349659290433
453,0.0
490,0.0
515,0.0
516,0.0
542,0.0
592,4695451.530758674
632,32840286.700000223
686,1.0
687,1.0
688,2.0
2,21, 1,21, 0, 6, 0.00,10.00,Monday
250,-0.16362864371479502
251,37795901.98313613
336,0.0
385,20.645708794804627
386,25.78171939946418
387,-0.9340631683301295
388,0.0
425,0.0
450,0.0
451,0.0
452,-1.5394506814381506
453,0.0
490,0.0
515,0.0
516,0.0
542,0.0
592,4695264.082255858
632,32841774.443520118
686,1.0
687,1.0
688,2.0
2,21, 1,21, 0, 6,10.00,20.00,Monday
250,-0.16359084673837018
251,37795944.59032855
336,0.0
385,20.645708794804627
386,25.78171939946418
387,-0.9353536774617971
388,0.0
425,0.0
450,0.0
451,0.0
452,-1.5302637432435946
453,0.0
490,0.0
515,0.0
516,0.0
542,0.0
592,4695076.569900009
632,32841996.952451687
686,1.0
687,1.0
688,2.0
2,21, 1,21, 0, 6,20.00,30.00,Monday
250,-0.16355349595476884
251,37795955.40539583
336,0.0
385,20.645708794804627
386,25.78171939946418
387,-0.9368555951463096
388,0.0
425,0.0
450,0.0
451,0.0
452,-1.5232019868366735
453,0.0
490,0.0
515,0.0
516,0.0
542,0.0
592,4694888.993658494
632,32842195.10342038
686,1.0
687,1.0
688,2.0
2,21, 1,21, 0, 6,30.00,40.00,Monday
250,-0.1635154953419175
251,37795977.27683054
336,0.0
385,20.645708794804627
386,25.78171939946418
387,-0.9385271195653493
388,0.0
425,0.0
450,0.0
451,0.0
452,-1.518059164111813
453,0.0
490,0.0
515,0.0
516,0.0
542,0.0
592,4694701.353498662
632,32842404.965090215
686,1.0
687,1.0
688,2.0
2,21, 1,21, 0, 6,40.00,50.00,Monday
250,-0.16347708360205232
251,37795996.82651154
336,0.0
385,20.645708794804627
386,25.78171939946418
387,-0.9403363877692614
388,0.0
425,0.0
450,0.0
451,0.0
452,-1.5143851245420925
453,0.0
490,0.0
515,0.0
516,0.0
542,0.0
592,4694513.649387832
632,32842612.440371703
686,1.0
687,1.0
688,2.0
2,21, 1,21, 0, 6,50.00,60.00,Monday
250,-0.1634381895063118
251,37796015.897591315
336,0.0
385,20.645708794804627
386,25.78171939946418
387,-0.9422662585663579
388,0.0
425,0.0
450,0.0
451,0.0
452,-1.511759275672068
453,0.0
490,0.0
515,0.0
516,0.0
542,0.0
592,4694325.88129331
632,32842819.53940595
686,1.0
687,1.0
688,2.0
2,21, 1,21, 0, 7, 0.00,10.00,Monday
250,-0.1644361900910205
251,37796593.58176384
336,0.0
385,20.645708794804627
386,25.78171939946418
387,-0.9467406635598247
388,0.0
425,0.0
450,0.0
451,0.0
452,-1.5150484030296656
453,0.0
490,0.0
515,0.0
516,0.0
542,0.0
592,4723573.583255435
632,32813590.96107781
686,1.0
687,1.0
688,2.0
2,21, 1,21, 0, 7,10.00,20.00,Monday
250,-0.1644081787112476
251,37793703.85476078
336,0.0
385,20.645708794804627
386,25.78171939946418
387,-0.9559341842056375
388,0.0
425,0.0
450,0.0
451,0.0
452,-1.53372370513593
453,0.0
490,0.0
515,0.0
516,0.0
542,0.0
592,4752837.186047653
632,32781990.328329843
686,1.0
687,1.0
688,2.0
2,21, 1,21, 0, 7,20.00,30.00,Monday
250,-0.1643440217484386
251,37790719.24771903
336,0.0
385,20.645708794804627
386,25.78171939946418
387,-0.9700870863244583
388,0.0
425,0.0
450,0.0
451,0.0
452,-1.573157638757742
453,0.0
490,0.0
515,0.0
516,0.0
542,0.0
592,4782116.702651946
632,32749745.67162195
686,1.0
687,1.0
688,2.0
2,21, 1,21, 0, 7,30.00,40.00,Monday
250,-0.16428912686037178
251,37787764.30088931
336,0.0
385,20.645708794804627
386,25.78171939946418
387,-0.9882434027761624
388,0.0
425,0.0
450,0.0
451,0.0
452,-1.630972887844821
453,0.0
490,0.0
515,0.0
516,0.0
542,0.0
592,4811412.146064443
632,32717490.290510666
686,1.0
687,1.0
688,2.0
2,21, 1,21, 0, 7,40.00,50.00,Monday
250,-0.16423144542181026
251,37784801.398584515
336,0.0
385,20.645708794804627
386,25.78171939946418
387,-1.00932362652571
388,0.0
425,0.0
450,0.0
451,0.0
452,-1.7009147641224336
453,0.0
490,0.0
515,0.0
516,0.0
542,0.0
592,4840723.5292954575
632,32685217.50329261
686,1.0
687,1.0
688,2.0
2,21, 1,21, 0, 7,50.00,60.00,Monday
250,-0.1641726768479885
251,37781835.79059747
336,0.0
385,20.645708794804627
386,25.78171939946418
387,-1.0325802524912688
388,0.0
425,0.0
450,0.0
451,0.0
452,-1.7772874639838832
453,0.0
490,0.0
515,0.0
516,0.0
542,0.0
592,4870050.865369484
632,32652925.142217543
686,1.0
687,1.0
688,2.0
2,21, 1,21, 0, 8, 0.00,10.00,Monday
250,0.036261272831826834
251,37670979.52133733
336,0.0
385,20.645708794804627
386,25.78171939946418
387,-1.0286785669827878
388,0.0
425,0.0
450,0.0
451,0.0
452,-1.8362463234927286
453,0.0
490,0.0
515,0.0
516,0.0
542,0.0
592,4889730.300311493
632,32630278.600449152
686,1.0
687,1.0
688,2.0
2,21, 1,21, 0, 8,10.00,20.00,Monday
250,0.236863724776062
251,37565241.858967215
336,0.0
385,20.645708794804627
386,25.78171939946418
387,-0.9870879818607555
388,0.0
425,0.0
450,0.0
451,0.0
452,-1.8274404348575408
453,0.0
490,0.0
515,0.0
516,0.0
542,0.0
592,4909380.719869504
632,32504987.784642935
686,1.0
687,1.0
688,2.0
2,21, 1,21, 0, 8,20.00,30.00,Monday
250,0.43527532366922805
251,37460814.68975485
336,0.0
385,20.645708794804627
386,25.78171939946418
387,-0.9160525623875678
388,0.0
425,0.0
450,0.0
451,0.0
452,-1.7200831417769
453,0.0
490,0.0
515,0.0
516,0.0
542,0.0
592,4929009.6156952735
632,32379758.891739283
686,1.0
687,1.0
688,2.0
2,21, 1,21, 0, 8,30.00,40.00,Monday
250,0.6343257271315649
251,37355995.74501072
336,0.0
385,20.645708794804627
386,25.78171939946418
387,-0.8256976193611655
388,0.0
425,0.0
450,0.0
451,0.0
452,-1.5246001836568583
453,0.0
490,0.0
515,0.0
516,0.0
542,0.0
592,4952863.646772657
632,32251436.7158772
686,1.0
687,1.0
688,2.0
2,21, 1,21, 0, 8,40.00,50.00,Monday
250,0.8334572484345223
251,37250731.943545625
336,0.0
385,20.645708794804627
386,25.78171939946418
387,-0.7240151987442567
388,0.0
425,0.0
450,0.0
451,0.0
452,-1.248920778075843
453,0.0
490,0.0
515,0.0
516,0.0
542,0.0
592,4977062.298687916
632,32122023.63620282
686,1.0
687,1.0
688,2.0
2,21, 1,21, 0, 8,50.00,60.00,Monday
250,1.0333706449487619
251,37145971.979830995
336,0.0
385,20.645708794804627
386,25.78171939946418
387,-0.6280893517198413
388,0.0
425,0.0
450,0.0
451,0.0
452,-0.9358330324671853
453,0.0
490,0.0
515,0.0
516,0.0
542,0.0
592,5001395.306277512
632,31940335.478702754
686,1.0
687,1.0
688,2.0
2,21, 1,21, 0, 9, 0.00,10.00,Monday
250,1.2988058331013241
251,37006957.3009571
336,0.0
385,20.645708794804627
386,25.78171939946418
387,-0.48965647023109404
388,0.0
425,0.0
450,0.0
451,0.0
452,-0.4563275402223167
453,0.0
490,0.0
515,0.0
516,0.0
542,0.0
592,5029363.153609448
632,31790111.65376362
686,1.0
687,1.0
688,2.0
2,21, 1,21, 0, 9,10.00,20.00,Monday
250,1.5640645445917705
251,36867096.277733326
336,0.0
385,20.645708794804627
386,25.78171939946418
387,-0.33882379071711377
388,0.0
425,0.0
450,0.0
451,0.0
452,0.06790408268836448
453,0.0
490,0.0
515,0.0
516,0.0
542,0.0
592,5057356.862312016
632,31622209.140155427
686,1.0
687,1.0
688,2.0
2,21, 1,21, 0, 9,20.00,30.00,Monday
250,1.8294687857694294
251,36727151.23557462
336,0.0
385,20.645708794804627
386,25.78171939946418
387,-0.1789195278386469
388,0.0
425,0.0
450,0.0
451,0.0
452,0.6325915677293099
453,0.0
490,0.0
515,0.0
516,0.0
542,0.0
592,5085392.284952975
632,31454268.210985996
686,1.0
687,1.0
688,2.0
2,21, 1,21, 0, 9,30.00,40.00,Monday
250,2.0948082921891213
251,36587239.30927441
336,0.0
385,20.645708794804627
386,25.78171939946418
387,-0.00918988437250583
388,0.0
425,0.0
450,0.0
451,0.0
452,1.227219804733598
453,0.0
490,0.0
515,0.0
516,0.0
542,0.0
592,5113485.892141593
632,31286246.638142273
686,1.0
687,1.0
688,2.0
2,21, 1,21, 0, 9,40.00,50.00,Monday
250,2.3604510638388345
251,36446184.75116035
336,0.0
385,20.64570879480464
386,25.7817193994642
387,0.13595734866403653
388,0.0
425,0.0
450,0.0
451,0.0
452,1.7289994037685283
453,0.0
490,0.0
515,0.0
516,0.0
542,0.0
592,5141654.529350725
632,31093387.0831517
686,1.0000000000000009
687,1.0000000000000009
688,2.0000000000000018
2,21, 1,21, 0, 9,50.00,60.00,Monday
250,2.626226448452097
251,36305498.238566294
336,0.0
385,20.645708794804627
386,25.78171939946418
387,0.2881032213849294
388,0.0
425,0.0
450,0.0
451,0.0
452,2.269569431914259
453,0.0
490,0.0
515,0.0
516,0.0
542,0.0
592,5169915.672059795
632,30949379.55550956
686,1.0
687,1.0
688,2.0
2,21, 1,21, 0,10, 0.00,10.00,Monday
250,3.0882018064769765
251,36060387.46240611
336,0.0
385,20.645708794804627
386,25.78171939946418
387,0.47856630907702713
388,0.0
425,0.0
450,0.0
451,0.0
452,2.8289556086584433
453,0.0
490,0.0
515,0.0
516,0.0
542,0.0
592,5241404.10703412
632,30643189.54797401
686,1.0
687,1.0
688,2.0
2,21, 1,21, 0,10,10.00,20.00,Monday
250,3.551346333872269
251,35815258.18932061
336,0.0
385,20.645708794804627
386,25.78171939946418
387,0.7696146411297493
388,0.0
425,0.0
450,0.0
451,0.0
452,3.5838607003411966
453,0.0
490,0.0
515,0.0
516,0.0
542,0.0
592,5315291.857316207
632,30323361.720396448
686,1.0
687,1.0
688,2.0
2,21, 1,21, 0,10,20.00,30.00,Monday
250,4.014864720096764
251,35568665.172417514
336,0.0
385,20.64570879480462
386,25.781719399464166
387,1.050009819643644
388,0.0
425,0.0
450,0.0
451,0.0
452,4.272894765305511
453,0.0
490,0.0
515,0.0
516,0.0
542,0.0
592,5391793.298050372
632,30000376.995261386
686,0.9999999999999996
687,0.9999999999999996
688,1.9999999999999991
2,21, 1,21, 0,10,30.00,40.00,Monday
250,4.478598375461068
251,35321822.8266329
336,0.0
385,20.645708794804634
386,25.781719399464187
387,1.331781709520964
388,0.0
425,0.0
450,0.0
451,0.0
452,4.97465315184594
453,0.0
490,0.0
515,0.0
516,0.0
542,0.0
592,5471132.199313744
632,29674278.81687533
686,1.0000000000000004
687,1.0000000000000004
688,2.000000000000001
2,21, 1,21, 0,10,40.00,50.00,Monday
250,4.9426218542057025
251,35074683.85049318
336,0.0
385,20.64570879480464
386,25.7817193994642
387,1.6219241240419313
388,0.0
425,0.0
450,0.0
451,0.0
452,5.738715319851364
453,0.0
490,0.0
515,0.0
516,0.0
542,0.0
592,5553542.375759331
632,29344828.444151647
686,1.0000000000000009
687,1.0000000000000009
688,2.0000000000000018
2,21, 1,21, 0,10,50.00,60.00,Monday
250,5.40666288247984
251,34827388.255555175
336,0.0
385,20.64570879480464
386,25.7817193994642
387,1.9221518712531882
388,0.0
425,0.0
450,0.0
451,0.0
452,6.567802101167988
453,0.0
490,0.0
515,0.0
516,0.0
542,0.0
592,5639267.778995938
632,29011859.47914481
686,1.0000000000000009
687,1.0000000000000009
688,2.0000000000000018
2,21, 1,21, 0,11, 0.00,10.00,Monday
250,5.69020125499639
251,34676508.47291054
336,0.0
385,20.645708794804627
386,25.78171939946418
387,2.20866428472309
388,0.0
425,0.0
450,0.0
451,0.0
452,7.423034474007453
453,0.0
490,0.0
515,0.0
516,0.0
542,0.0
592,5689519.861596226
632,28778520.797403667
686,1.0
687,1.0
688,2.0
2,21, 1,21, 0,11,10.00,20.00,Monday
250,5.972825174832787
251,34526059.27609919
336,0.0
385,20.645708794804627
386,25.78171939946418
387,2.47843610379208
388,0.0
425,0.0
450,0.0
451,0.0
452,8.273573463083306
453,0.0
490,0.0
515,0.0
516,0.0
542,0.0
592,5740969.350869595
632,28576469.48535083
686,1.0
687,1.0
688,2.0
2,21, 1,21, 0,11,20.00,30.00,Monday
250,6.2555152464297805
251,34375525.81459156
336,0.0
385,20.64570879480462
386,25.781719399464166
387,2.7505973632892404
388,0.0
425,0.0
450,0.0
451,0.0
452,9.120198230789843
453,0.0
490,0.0
515,0.0
516,0.0
542,0.0
592,5793671.095282218
632,28373262.5513298
686,0.9999999999999996
687,0.9999999999999996
688,1.9999999999999991
2,21, 1,21, 0,11,30.00,40.00,Monday
250,6.537867591888739
251,34225121.49410305
336,0.0
385,20.645708794804634
386,25.781719399464187
387,3.0279326840881096
388,0.0
425,0.0
450,0.0
451,0.0
452,9.942100374720663
453,0.0
490,0.0
515,0.0
516,0.0
542,0.0
592,5847681.4279665835
632,28168804.522265974
686,1.0000000000000004
687,1.0000000000000004
688,2.000000000000001
2,21, 1,21, 0,11,40.00,50.00,Monday
250,6.820072900685373
251,34074742.610536054
336,0.0
385,20.64570879480464
386,25.7817193994642
387,3.307040538329026
388,0.0
425,0.0
450,0.0
451,0.0
452,10.687650346649589
453,0.0
490,0.0
515,0.0
516,0.0
542,0.0
592,5903058.082199926
632,27963040.40069554
686,1.0000000000000009
687,1.0000000000000009
688,2.0000000000000018
2,21, 1,21, 0,11,50.00,60.00,Monday
250,7.1020795691354985
251,33924415.52716995
336,0.0
385,20.64570879480464
386,25.7817193994642
387,3.5840682421677355
388,0.0
425,0.0
450,0.0
451,0.0
452,11.323410802518273
453,0.0
490,0.0
515,0.0
516,0.0
542,0.0
592,5959860.237244541
632,27755893.776620597
686,1.0000000000000009
687,1.0000000000000009
688,2.0000000000000018
2,21, 1,21, 0,12, 0.00,10.00,Monday
250,7.3687241369346665
251,33782295.8220682
336,0.0
385,20.645708794804627
386,25.78171939946418
387,3.824065849198763
388,0.0
425,0.0
450,0.0
451,0.0
452,11.822554175823042
453,0.0
490,0.0
515,0.0
516,0.0
542,0.0
592,5991096.197635709
632,27605287.995969407
686,1.0
687,1.0
688,2.0
2,21, 1,21, 0,12,10.00,20.00,Monday
250,7.633403450295469
251,33644709.58945671
336,0.0
385,20.645708794804627
386,25.78171939946418
387,4.116455864162255
388,0.0
425,0.0
450,0.0
451,0.0
452,12.386547627699777
453,0.0
490,0.0
515,0.0
516,0.0
542,0.0
592,7572016.881221027
632,25884895.005795047
686,1.0
687,1.0
688,2.0
2,21, 1,21, 0,12,20.00,30.00,Monday
250,7.899079187808733
251,33504876.883742213
336,0.0
385,20.645708794804627
386,25.78171939946418
387,4.385575948610135
388,0.0
425,0.0
450,0.0
451,0.0
452,12.901838805770778
453,0.0
490,0.0
515,0.0
516,0.0
542,0.0
592,7609409.155487608
632,25707923.07802763
686,1.0
687,1.0
688,2.0
2,21, 1,21, 0,12,30.00,40.00,Monday
250,8.164620693726697
251,33365118.310682543
336,0.0
385,20.645708794804627
386,25.78171939946418
387,4.64439087322403
388,0.0
425,0.0
450,0.0
451,0.0
452,13.393441786185061
453,0.0
490,0.0
515,0.0
516,0.0
542,0.0
592,7646583.592010484
632,25530953.781900436
686,1.0
687,1.0
688,2.0
2,21, 1,21, 0,12,40.00,50.00,Monday
250,8.430117580863367
251,33225383.458708327
336,0.0
385,20.645708794804627
386,25.78171939946418
387,4.89881919385574
388,0.0
425,0.0
450,0.0
451,0.0
452,13.835336598193116
453,0.0
490,0.0
515,0.0
516,0.0
542,0.0
592,7683540.190789655
632,25354250.4165527
686,1.0
687,1.0
688,2.0
2,21, 1,21, 0,12,50.00,60.00,Monday
250,8.695600262635974
251,33085655.47824035
336,0.0
385,20.645708794804627
386,25.78171939946418
387,5.14776821711744
388,0.0
425,0.0
450,0.0
451,0.0
452,14.203144094317539
453,0.0
490,0.0
515,0.0
516,0.0
542,0.0
592,7720278.951825123
632,25177780.34731956
686,1.0
687,1.0
688,2.0
2,21, 1,21, 0,13, 0.00,10.00,Monday
250,8.87839000013096
251,32987130.832397595
336,0.0
385,20.645708794804627
386,25.78171939946418
387,5.380157443295181
388,0.0
425,0.0
450,0.0
451,0.0
452,14.494407243694678
453,0.0
490,0.0
515,0.0
516,0.0
542,0.0
592,7745410.487127082
632,25078627.71675519
686,1.0
687,1.0
688,2.0
2,21, 1,21, 0,13,10.00,20.00,Monday
250,9.060609669499273
251,32892807.837776877
336,0.0
385,20.645708794804627
386,25.78171939946418
387,5.5989458082131325
388,0.0
425,0.0
450,0.0
451,0.0
452,14.72366006546359
453,0.0
490,0.0
515,0.0
516,0.0
542,0.0
592,7770439.060057996
632,24961832.723828573
686,1.0
687,1.0
688,2.0
2,21, 1,21, 0,13,20.00,30.00,Monday
250,9.243588937149923
251,32798213.583913464
336,0.0
385,20.645708794804627
386,25.78171939946418
387,5.8038483477593905
388,0.0
425,0.0
450,0.0
451,0.0
452,14.906832335292652
453,0.0
490,0.0
515,0.0
516,0.0
542,0.0
592,7795364.670617863
632,24842735.42431685
686,1.0
687,1.0
688,2.0
2,21, 1,21, 0,13,30.00,40.00,Monday
250,9.426352150629835
251,32703764.586899463
336,0.0
385,20.645708794804627
386,25.78171939946418
387,5.998884726989697
388,0.0
425,0.0
450,0.0
451,0.0
452,15.055706746643976
453,0.0
490,0.0
515,0.0
516,0.0
542,0.0
592,7820187.318806678
632,24723359.855714925
686,1.0
687,1.0
688,2.0
2,21, 1,21, 0,13,40.00,50.00,Monday
250,9.609078376051356
251,32609369.160254385
336,0.0
385,20.645708794804627
386,25.78171939946418
387,6.187804797212929
388,0.0
425,0.0
450,0.0
451,0.0
452,15.175022890326886
453,0.0
490,0.0
515,0.0
516,0.0
542,0.0
592,7844907.00462445
632,24604237.658772744
686,1.0
687,1.0
688,2.0
2,21, 1,21, 0,13,50.00,60.00,Monday
250,9.791814704818734
251,32515001.393938746
336,0.0
385,20.645708794804627
386,25.78171939946418
387,6.3719088039756
388,0.0
425,0.0
450,0.0
451,0.0
452,15.268419257910928
453,0.0
490,0.0
515,0.0
516,0.0
542,0.0
592,7869523.728071173
632,24485271.689373214
686,1.0
687,1.0
688,2.0
2,21, 1,21, 0,14, 0.00,10.00,Monday
250,9.991689008362577
251,32411410.341532826
336,0.0
385,20.645708794804627
386,25.78171939946418
387,6.554035064265487
388,0.0
425,0.0
450,0.0
451,0.0
452,15.324500809540366
453,0.0
490,0.0
515,0.0
516,0.0
542,0.0
592,7896260.907308882
632,24364213.186557215
686,1.0
687,1.0
688,2.0
2,21, 1,21, 0,14,10.00,20.00,Monday
250,10.191008281468351
251,32307726.734857727
336,0.0
385,20.645708794804627
386,25.78171939946418
387,6.734315276200032
388,0.0
425,0.0
450,0.0
451,0.0
452,15.324952848658933
453,0.0
490,0.0
515,0.0
516,0.0
542,0.0
592,7922875.552815757
632,24233628.39030022
686,1.0
687,1.0
688,2.0
2,21, 1,21, 0,14,20.00,30.00,Monday
250,10.390147910879158
251,32204149.1700903
336,0.0
385,20.645708794804627
386,25.78171939946418
387,6.910592504241042
388,0.0
425,0.0
450,0.0
451,0.0
452,15.269311781121134
453,0.0
490,0.0
515,0.0
516,0.0
542,0.0
592,7949367.664591796
632,24103475.016437307
686,1.0
687,1.0
688,2.0
2,21, 1,21, 0,14,30.00,40.00,Monday
250,10.589172733452152
251,32100659.64397857
336,0.0
385,20.645708794804627
386,25.78171939946418
387,7.076915740114378
388,0.0
425,0.0
450,0.0
451,0.0
452,15.14705399418397
453,0.0
490,0.0
515,0.0
516,0.0
542,0.0
592,7975737.242637001
632,23973567.39978294
686,1.0
687,1.0
688,2.0
2,21, 1,21, 0,14,40.00,50.00,Monday
250,10.788094275910767
251,31997247.656234115
336,0.0
385,20.645708794804627
386,25.78171939946418
387,7.229591432239287
388,0.0
425,0.0
450,0.0
451,0.0
452,14.938458827717453
453,0.0
490,0.0
515,0.0
516,0.0
542,0.0
592,8001984.286951372
632,23843866.232279412
686,1.0
687,1.0
688,2.0
2,21, 1,21, 0,14,50.00,60.00,Monday
250,10.986945452287209
251,31893896.063057672
336,0.0
385,20.645708794804627
386,25.78171939946418
387,7.368909473666642
388,0.0
425,0.0
450,0.0
451,0.0
452,14.646567046232057
453,0.0
490,0.0
515,0.0
516,0.0
542,0.0
592,8028108.797534915
632,23714365.934880927
686,1.0
687,1.0
688,2.0
2,21, 1,21, 0,15, 0.00,10.00,Monday
250,11.252142797678273
251,31755440.25429248
336,0.0
385,20.645708794804627
386,25.78171939946418
387,7.489873076581199
388,0.0
425,0.0
450,0.0
451,0.0
452,14.351206810151496
453,0.0
490,0.0
515,0.0
516,0.0