Program Version,EnergyPlus, Version 24.2.0-94a887817b, YMD=2025.02.04 15:38
1,5,Environment Title[],Latitude[deg],Longitude[deg],Time Zone[],Elevation[m]
2,8,Day of Simulation[],Month[],Day of Month[],DST Indicator[1=yes 0=no],Hour[],StartMinute[],EndMinute[],DayType
3,5,Cumulative Day of Simulation[],Month[],Day of Month[],DST Indicator[1=yes 0=no],DayType  ! When Daily Meters Requested
4,2,Cumulative Days of Simulation[],Month[]  ! When Monthly Meters Requested
5,1,Cumulative Days of Simulation[] ! When Run Period Meters Requested
6,1,Calendar Year of Simulation[] ! When Annual Meters Requested
11,9,Electricity:Facility [J] !Monthly [Value,Min,Day,Hour,Minute,Max,Day,Hour,Minute]
23,9,Electricity:Building [J] !Monthly [Value,Min,Day,Hour,Minute,Max,Day,Hour,Minute]
59,9,InteriorLights:Electricity [J] !Monthly [Value,Min,Day,Hour,Minute,Max,Day,Hour,Minute]
521,9,Electricity:HVAC [J] !Monthly [Value,Min,Day,Hour,Minute,Max,Day,Hour,Minute]
637,9,NaturalGas:Facility [J] !Monthly [Value,Min,Day,Hour,Minute,Max,Day,Hour,Minute]
649,9,NaturalGas:HVAC [J] !Monthly [Value,Min,Day,Hour,Minute,Max,Day,Hour,Minute]
13,11,Electricity:Facility [J] !RunPeriod [Value,Min,Month,Day,Hour,Minute,Max,Month,Day,Hour,Minute]
25,11,Electricity:Building [J] !RunPeriod [Value,Min,Month,Day,Hour,Minute,Max,Month,Day,Hour,Minute]
61,11,InteriorLights:Electricity [J] !RunPeriod [Value,Min,Month,Day,Hour,Minute,Max,Month,Day,Hour,Minute]
523,11,Electricity:HVAC [J] !RunPeriod [Value,Min,Month,Day,Hour,Minute,Max,Month,Day,Hour,Minute]
639,11,NaturalGas:Facility [J] !RunPeriod [Value,Min,Month,Day,Hour,Minute,Max,Month,Day,Hour,Minute]
651,11,NaturalGas:HVAC [J] !RunPeriod [Value,Min,Month,Day,Hour,Minute,Max,Month,Day,Hour,Minute]
End of Data Dictionary
1,RUN PERIOD 1,  41.98, -87.92,  -6.00, 201.00
4,31, 1
11,9810421253.304754,408891.4285714286, 5, 6,50,2970321.900704429,16,13,60
23,971371152.0737458,30000.0, 1, 1,10,600848.6609230047, 1, 9,10
59,970200000.0,30000.0, 1, 1,10,600000.0, 1, 8,10
521,8839050101.230986,378891.4285714286, 5, 6,50,2369473.239781425,16,13,60
637,178837823967.33347,28164737.184735466,21,16,10,41250000.0, 1, 1,10
649,178837823967.33347,28164737.184735466,21,16,10,41250000.0, 1, 1,10
4,59, 2
11,9345554514.171461,99999999999999.0, 5, 6,50,3011783.340967552,22,15,30
23,849178393.107605,99999999999999.0, 1, 1,10,-99999999999999.0, 1, 9,10
59,848160000.0,99999999999999.0, 1, 1,10,-99999999999999.0, 1, 8,10
521,8496376121.063895,99999999999999.0, 5, 6,50,2410934.680044547,22,15,30
637,158181204468.35364,26479138.83311575,23,12,10,-99999999999999.0, 1, 1,10
649,158181204468.35364,26479138.83311575,23,12,10,-99999999999999.0, 1, 1,10
4,90, 3
11,10932414139.958364,300848.6609230047,27,18,10,3165460.2492504464,27,13,50
23,898549312.7629852,99999999999999.0, 1, 1,10,-99999999999999.0, 1, 9,10
59,897480000.0,99999999999999.0, 1, 1,10,-99999999999999.0, 1, 8,10
521,10033864827.19538,0.0,27,13,60,2564611.588327442,27,13,50
637,161857831799.19293,0.0,27,13,60,-99999999999999.0, 1, 1,10
649,161857831799.19293,0.0,27,13,60,-99999999999999.0, 1, 1,10
4,120, 4
11,9189505446.126179,30000.0,11,19,10,-99999999999999.0,27,13,50
23,930640232.4183656,99999999999999.0, 1, 1,10,-99999999999999.0, 1, 9,10
59,929520000.0,99999999999999.0, 1, 1,10,-99999999999999.0, 1, 8,10
521,8258865213.707833,99999999999999.0,27,13,60,-99999999999999.0,27,13,50
637,118404359510.44107,99999999999999.0,27,13,60,-99999999999999.0, 1, 1,10
649,118404359510.44107,99999999999999.0,27,13,60,-99999999999999.0, 1, 1,10
4,151, 5
11,8137893021.249965,99999999999999.0,11,19,10,-99999999999999.0,27,13,50
23,971632751.0830611,99999999999999.0, 1, 1,10,616742.3807512505,28,13,10
59,970200000.0,99999999999999.0, 1, 1,10,-99999999999999.0, 1, 8,10
521,7166260270.166904,99999999999999.0,27,13,60,-99999999999999.0,27,13,50
637,87462853768.91478,99999999999999.0,27,13,60,-99999999999999.0, 1, 1,10
649,87462853768.91478,99999999999999.0,27,13,60,-99999999999999.0, 1, 1,10
4,181, 6
11,5290370184.055571,99999999999999.0,11,19,10,3166265.9088655463,24,11,20
23,857904773.1447554,99999999999999.0, 1, 1,10,-99999999999999.0,28,13,10
59,856800000.0,99999999999999.0, 1, 1,10,-99999999999999.0, 1, 8,10
521,4432465410.910831,99999999999999.0,27,13,60,2574511.9175818004, 4, 3,50
637,35041968345.87672,99999999999999.0,27,13,60,-99999999999999.0, 1, 1,10
649,35041968345.87672,99999999999999.0,27,13,60,-99999999999999.0, 1, 1,10
4,212, 7
11,4362948999.23987,99999999999999.0,11,19,10,-99999999999999.0,24,11,20
23,971643640.6572324,99999999999999.0, 1, 1,10,-99999999999999.0,28,13,10
59,970200000.0,99999999999999.0, 1, 1,10,-99999999999999.0, 1, 8,10
521,3391305358.5826344,99999999999999.0,27,13,60,-99999999999999.0, 4, 3,50
637,10283215700.406279,99999999999999.0,27,13,60,-99999999999999.0, 1, 1,10
649,10283215700.406279,99999999999999.0,27,13,60,-99999999999999.0, 1, 1,10
4,243, 8
11,3627932953.4896526,99999999999999.0,11,19,10,-99999999999999.0,24,11,20
23,935238928.2891419,99999999999999.0, 1, 1,10,616917.4499880872,12,14,10
59,933840000.0,99999999999999.0, 1, 1,10,-99999999999999.0, 1, 8,10
521,2692694025.200512,99999999999999.0,27,13,60,-99999999999999.0, 4, 3,50
637,20938204710.245293,99999999999999.0,27,13,60,-99999999999999.0, 1, 1,10
649,20938204710.245293,99999999999999.0,27,13,60,-99999999999999.0, 1, 1,10
4,273, 9
11,5805041897.343054,99999999999999.0,11,19,10,-99999999999999.0,24,11,20
23,894247986.946576,99999999999999.0, 1, 1,10,-99999999999999.0,12,14,10
59,893160000.0,99999999999999.0, 1, 1,10,-99999999999999.0, 1, 8,10
521,4910793910.396479,99999999999999.0,27,13,60,-99999999999999.0, 4, 3,50
637,54158690627.07778,99999999999999.0,27,13,60,-99999999999999.0, 1, 1,10
649,54158690627.07778,99999999999999.0,27,13,60,-99999999999999.0, 1, 1,10
4,304,10
11,10281530428.55672,99999999999999.0,11,19,10,-99999999999999.0,24,11,20
23,971371152.0737458,99999999999999.0, 1, 1,10,-99999999999999.0,12,14,10
59,970200000.0,99999999999999.0, 1, 1,10,-99999999999999.0, 1, 8,10
521,9310159276.482985,99999999999999.0,27,13,60,-99999999999999.0, 4, 3,50
637,125742917168.71567,99999999999999.0,27,13,60,-99999999999999.0, 1, 1,10
649,125742917168.71567,99999999999999.0,27,13,60,-99999999999999.0, 1, 1,10
4,334,11
11,10314970701.5614,99999999999999.0,11,19,10,-99999999999999.0,24,11,20
23,894229312.7629852,99999999999999.0, 1, 1,10,-99999999999999.0,12,14,10
59,893160000.0,99999999999999.0, 1, 1,10,-99999999999999.0, 1, 8,10
521,9420741388.798414,99999999999999.0,27,13,60,-99999999999999.0, 4, 3,50
637,146161850142.3481,99999999999999.0,27,13,60,-99999999999999.0, 1, 1,10
649,146161850142.3481,99999999999999.0,27,13,60,-99999999999999.0, 1, 1,10
4,365,12
11,10423910852.802189,99999999999999.0,11,19,10,-99999999999999.0,24,11,20
23,934960232.4183655,99999999999999.0, 1, 1,10,-99999999999999.0,12,14,10
59,933840000.0,99999999999999.0, 1, 1,10,-99999999999999.0, 1, 8,10
521,9488950620.383821,99999999999999.0,27,13,60,-99999999999999.0, 4, 3,50
637,179661427349.7026,99999999999999.0,27,13,60,-99999999999999.0, 1, 1,10
649,179661427349.7026,99999999999999.0,27,13,60,-99999999999999.0, 1, 1,10
5,365
13,97522494391.87772,30000.0, 4,11,19,10,3166265.9088655463, 6,24,11,20
25,11080967867.738565,30000.0, 1, 1, 1,10,616917.4499880872, 8,12,14,10
61,11066760000.0,30000.0, 1, 1, 1,10,600000.0, 1, 1, 8,10
523,86441526524.1253,0.0, 3,27,13,60,2574511.9175818004, 6, 4, 3,50
639,1276732347558.6116,0.0, 3,27,13,60,41250000.0, 1, 1, 1,10
651,1276732347558.6116,0.0, 3,27,13,60,41250000.0, 1, 1, 1,10
1,RUN PERIOD 2,  41.98, -87.92,  -6.00, 201.00
4,1, 7
11,82661044.82378718,99999999999999.0,11,19,10,-99999999999999.0,24,11,20
23,40730919.65538026,99999999999999.0, 1, 1,10,-99999999999999.0,12,14,10
59,40680000.0,99999999999999.0, 1, 1,10,-99999999999999.0, 1, 8,10
521,41930125.16840693,99999999999999.0,27,13,60,-99999999999999.0, 4, 3,50
637,0.0,99999999999999.0,27,13,60,-99999999999999.0, 1, 1,10
649,0.0,99999999999999.0,27,13,60,-99999999999999.0, 1, 1,10
5,1
13,82661044.82378718,99999999999999.0, 4,11,19,10,-99999999999999.0, 6,24,11,20
25,40730919.65538026,99999999999999.0, 1, 1, 1,10,-99999999999999.0, 8,12,14,10
61,40680000.0,99999999999999.0, 1, 1, 1,10,-99999999999999.0, 1, 1, 8,10
523,41930125.16840693,99999999999999.0, 3,27,13,60,-99999999999999.0, 6, 4, 3,50
639,0.0,99999999999999.0, 3,27,13,60,-99999999999999.0, 1, 1, 1,10
651,0.0,99999999999999.0, 3,27,13,60,-99999999999999.0, 1, 1, 1,10
End of Data
 Number of Records Written=          90
