Program Version,EnergyPlus, Version 24.2.0-94a887817b, YMD=2025.02.04 15:38
1,5,Environment Title[],Latitude[deg],Longitude[deg],Time Zone[],Elevation[m]
2,8,Day of Simulation[],Month[],Day of Month[],DST Indicator[1=yes 0=no],Hour[],StartMinute[],EndMinute[],DayType
3,5,Cumulative Day of Simulation[],Month[],Day of Month[],DST Indicator[1=yes 0=no],DayType  ! When Daily Report Variables Requested
4,2,Cumulative Days of Simulation[],Month[]  ! When Monthly Report Variables Requested
5,1,Cumulative Days of Simulation[] ! When Run Period Report Variables Requested
6,1,Calendar Year of Simulation[] ! When Annual Report Variables Requested
250,1,LIVING ZONE,Zone Air Temperature [C] !TimeStep,REPORTSCH
251,1,LIVING ZONE,Zone Air System Sensible Heating Energy [J] !TimeStep,REPORTSCH
336,1,LIVING ZONE,Zone Air System Sensible Cooling Energy [J] !TimeStep,REPORTSCH
385,1,LIVING ZONE,Zone Thermostat Heating Setpoint Temperature [C] !TimeStep,REPORTSCH
386,1,LIVING ZONE,Zone Thermostat Cooling Setpoint Temperature [C] !TimeStep,REPORTSCH
387,1,GARAGE ZONE,Zone Air Temperature [C] !TimeStep,REPORTSCH
388,1,GARAGE ZONE,Zone Air System Sensible Heating Energy [J] !TimeStep,REPORTSCH
425,1,GARAGE ZONE,Zone Air System Sensible Cooling Energy [J] !TimeStep,REPORTSCH
450,1,GARAGE ZONE,Zone Thermostat Heating Setpoint Temperature [C] !TimeStep,REPORTSCH
451,1,GARAGE ZONE,Zone Thermostat Cooling Setpoint Temperature [C] !TimeStep,REPORTSCH
452,1,ATTIC ZONE,Zone Air Temperature [C] !TimeStep,REPORTSCH
453,1,ATTIC ZONE,Zone Air System Sensible Heating Energy [J] !TimeStep,REPORTSCH
490,1,ATTIC ZONE,Zone Air System Sensible Cooling Energy [J] !TimeStep,REPORTSCH
515,1,ATTIC ZONE,Zone Thermostat Heating Setpoint Temperature [C] !TimeStep,REPORTSCH
516,1,ATTIC ZONE,Zone Thermostat Cooling Setpoint Temperature [C] !TimeStep,REPORTSCH
542,1,ACDXCOIL 1,Cooling Coil Total Cooling Energy [J] !TimeStep,REPORTSCH
592,1,HEAT PUMP DX HEATING COIL 1,Heating Coil Heating Energy [J] !TimeStep,REPORTSCH
632,1,SUPP HEATING COIL 1,Heating Coil Heating Energy [J] !TimeStep,REPORTSCH
686,1,TWOSPEED HEAT PUMP 1,Unitary System DX Coil Cycling Ratio [] !TimeStep,REPORTSCH
687,1,TWOSPEED HEAT PUMP 1,Unitary System DX Coil Speed Ratio [] !TimeStep,REPORTSCH
688,1,TWOSPEED HEAT PUMP 1,Unitary System DX Coil Speed Level [] !TimeStep,REPORTSCH
End of Data Dictionary
1,RUN PERIOD 1,  41.98, -87.92,  -6.00, 201.00
2,21, 1,21, 0, 1, 0.00,10.00,Monday
250,-0.5551082832711811
251,37979124.37286951
336,0.0
385,19.480169677691066
386,28.57848820028915
387,-0.9416511580829878
388,0.0
425,0.0
450,0.0
451,0.0
452,-1.9685470722442642
453,0.0
490,0.0
515,0.0
516,0.0
542,0.0
592,4839743.985079642
632,32881667.718427867
686,1.0
687,1.0
688,2.0
2,21, 1,21, 0, 1,10.00,20.00,Monday
250,-0.5551565413663845
251,37980763.13300591
336,0.0
385,19.480169677691066
386,28.57848820028915
387,-0.9500269483956797
388,0.0
425,0.0
450,0.0
451,0.0
452,-1.9504283046857123
453,0.0
490,0.0
515,0.0
516,0.0
542,0.0
592,4823801.676011795
632,32898044.050459158
686,1.0
687,1.0
688,2.0
2,21, 1,21, 0, 1,20.00,30.00,Monday
250,-0.555317211873093
251,37982512.82821012
336,0.0
385,19.480169677691066
386,28.57848820028915
387,-0.9596330820591827
388,0.0
425,0.0
450,0.0
451,0.0
452,-1.9473422887201894
453,0.0
490,0.0
515,0.0
516,0.0
542,0.0
592,4807858.162905219
632,32915676.741911788
686,1.0
687,1.0
688,2.0
2,21, 1,21, 0, 1,30.00,40.00,Monday
250,-0.5554528320009526
251,37984231.54403942
336,0.0
385,19.480169677691066
386,28.57848820028915
387,-0.9706743347329652
388,0.0
425,0.0
450,0.0
451,0.0
452,-1.9601994665464628
453,0.0
490,0.0
515,0.0
516,0.0
542,0.0
592,4791913.445623512
632,32933353.65739637
686,1.0
687,1.0
688,2.0
2,21, 1,21, 0, 1,40.00,50.00,Monday
250,-0.5555943361982841
251,37985956.67540552
336,0.0
385,19.480169677691066
386,28.57848820028915
387,-0.9833081877335688
388,0.0
425,0.0
450,0.0
451,0.0
452,-1.9873824758788512
453,0.0
490,0.0
515,0.0
516,0.0
542,0.0
592,4775967.524030241
632,32951021.53930118
686,1.0
687,1.0
688,2.0
2,21, 1,21, 0, 1,50.00,60.00,Monday
250,-0.5557364733164376
251,37987682.718828164
336,0.0
385,19.480169677691066
386,28.57848820028915
387,-0.9977235632064276
388,0.0
425,0.0
450,0.0
451,0.0
452,-2.027358722598517
453,0.0
490,0.0
515,0.0
516,0.0
542,0.0
592,4760020.397988959
632,32968694.364688065
686,1.0
687,1.0
688,2.0
2,21, 1,21, 0, 2, 0.00,10.00,Monday
250,-0.5558699240303199
251,37989404.14648399
336,0.0
385,19.480169677691066
386,28.57848820028915
387,-1.0132408673097757
388,0.0
425,0.0
450,0.0
451,0.0
452,-2.0740877900233334
453,0.0
490,0.0
515,0.0
516,0.0
542,0.0
592,4760020.397988959
632,32970420.46604229
686,1.0
687,1.0
688,2.0
2,21, 1,21, 0, 2,10.00,20.00,Monday
250,-0.5560233822193177
251,37989522.991069496
336,0.0
385,19.480169677691066
386,28.57848820028915
387,-1.0289204050930814
388,0.0
425,0.0
450,0.0
451,0.0
452,-2.116791358967845
453,0.0
490,0.0
515,0.0
516,0.0
542,0.0
592,4760020.397988959
632,32970528.53792218
686,1.0
687,1.0
688,2.0
2,21, 1,21, 0, 2,20.00,30.00,Monday
250,-0.5561764807440828
251,37989591.28379786
336,0.0
385,19.480169677691066
386,28.57848820028915
387,-1.0442101094473062
388,0.0
425,0.0
450,0.0
451,0.0
452,-2.1482424568353937
453,0.0
490,0.0
515,0.0
516,0.0
542,0.0
592,4760020.397988958
632,32970597.02433546
686,1.0
687,1.0
688,2.0
2,21, 1,21, 0, 2,30.00,40.00,Monday
250,-0.5563263896650557
251,37989675.48990396
336,0.0
385,19.480169677691066
386,28.57848820028915
387,-1.0587888909856917
388,0.0
425,0.0
450,0.0
451,0.0
452,-2.1676210979620674
453,0.0
490,0.0
515,0.0
516,0.0
542,0.0
592,4760020.397988958
632,32970682.947813835
686,1.0
687,1.0
688,2.0
2,21, 1,21, 0, 2,40.00,50.00,Monday
250,-0.5564741230576293
251,37989755.40711026
336,0.0
385,19.480169677691066
386,28.57848820028915
387,-1.0725160460865457
388,0.0
425,0.0
450,0.0
451,0.0
452,-2.1777632248338774
453,0.0
490,0.0
515,0.0
516,0.0
542,0.0
592,4760020.397988958
632,32970764.036390115
686,1.0
687,1.0
688,2.0
2,21, 1,21, 0, 2,50.00,60.00,Monday
250,-0.5566192343777465
251,37989833.47216477
336,0.0
385,19.480169677691066
386,28.57848820028915
387,-1.0853538346054352
388,0.0
425,0.0
450,0.0
451,0.0
452,-2.181816226421079
453,0.0
490,0.0
515,0.0
516,0.0
542,0.0
592,4760020.397988958
632,32970843.513248466
686,1.0
687,1.0
688,2.0
2,21, 1,21, 0, 3, 0.00,10.00,Monday
250,-0.4753780016474424
251,37946090.719942436
336,0.0
385,19.480169677691066
386,28.57848820028915
387,-1.0869186143556102
388,0.0
425,0.0
450,0.0
451,0.0
452,-2.1743552930869363
453,0.0
490,0.0
515,0.0
516,0.0
542,0.0
592,4762558.894114006
632,32968383.152170807
686,1.0
687,1.0
688,2.0
2,21, 1,21, 0, 3,10.00,20.00,Monday
250,-0.39221808185457835
251,37902842.76764358
336,0.0
385,19.480169677691066
386,28.57848820028915
387,-1.075908765345473
388,0.0
425,0.0
450,0.0
451,0.0
452,-2.1494028217431396
453,0.0
490,0.0
515,0.0
516,0.0
542,0.0
592,4764988.4357309695
632,32923740.54283556
686,1.0
687,1.0
688,2.0
2,21, 1,21, 0, 3,20.00,30.00,Monday
250,-0.30992389291157285
251,37860115.04983812
336,0.0
385,19.480169677691066
386,28.57848820028915
387,-1.0567408792181932
388,0.0
425,0.0
450,0.0
451,0.0
452,-2.1055058811990848
453,0.0
490,0.0
515,0.0
516,0.0
542,0.0
592,4767308.250738335
632,32878228.709084384
686,1.0
687,1.0
688,2.0
2,21, 1,21, 0, 3,30.00,40.00,Monday
250,-0.22742233813995766
251,37817265.699099734
336,0.0
385,19.480169677691066
386,28.57848820028915
387,-1.0332142475553923
388,0.0
425,0.0
450,0.0
451,0.0
452,-2.0457917000726202
453,0.0
490,0.0
515,0.0
516,0.0
542,0.0
592,4769517.689516205
632,32833283.43185627
686,1.0
687,1.0
688,2.0
2,21, 1,21, 0, 3,40.00,50.00,Monday
250,-0.14486742875998665
251,37774397.19570541
336,0.0
385,19.480169677691066
386,28.57848820028915
387,-1.0066430910805344
388,0.0
425,0.0
450,0.0
451,0.0
452,-1.9747427323103799
453,0.0
490,0.0
515,0.0
516,0.0
542,0.0
592,4771616.115684973
632,32788347.10146189
686,1.0
687,1.0
688,2.0
2,21, 1,21, 0, 3,50.00,60.00,Monday
250,-0.06228241287440276
251,37731519.56684258
336,0.0
385,19.480169677691066
386,28.57848820028915
387,-0.9768368879206321
388,0.0
425,0.0
450,0.0
451,0.0
452,-1.895978812968543
453,0.0
490,0.0
515,0.0
516,0.0
542,0.0
592,4773602.736238396
632,32743500.94629853
686,1.0
687,1.0
688,2.0
2,21, 1,21, 0, 4, 0.00,10.00,Monday
250,-0.06105030698785302
251,37732462.43881851
336,0.0
385,19.480169677691066
386,28.57848820028915
387,-0.9541412171995249
388,0.0
425,0.0
450,0.0
451,0.0
452,-1.8197858332128143
453,0.0
490,0.0
515,0.0
516,0.0
542,0.0
592,4773428.982371633
632,32700805.597560477
686,1.0
687,1.0
688,2.0
2,21, 1,21, 0, 4,10.00,20.00,Monday
250,-0.06171572570168561
251,37732893.81968274
336,0.0
385,19.480169677691066
386,28.57848820028915
387,-0.9414895590075593
388,0.0
425,0.0
450,0.0
451,0.0
452,-1.755199428928569
453,0.0
490,0.0
515,0.0
516,0.0
542,0.0
592,4773255.169447958
632,32700388.84942804
686,1.0
687,1.0
688,2.0
2,21, 1,21, 0, 4,20.00,30.00,Monday
250,-0.06147610240177862
251,37732789.78978892
336,0.0
385,19.480169677691066
386,28.57848820028915
387,-0.9354703754605044
388,0.0
425,0.0
450,0.0
451,0.0
452,-1.7058274683508667
453,0.0
490,0.0
515,0.0
516,0.0
542,0.0
592,4773081.297437258
632,32700946.11695049
686,1.0
687,1.0
688,2.0
2,21, 1,21, 0, 4,30.00,40.00,Monday
250,-0.06141090663191792
251,37732796.4927197
336,0.0
385,19.480169677691066
386,28.57848820028915
387,-0.9322390919369797
388,0.0
425,0.0
450,0.0
451,0.0
452,-1.6700180690308977
453,0.0
490,0.0
515,0.0
516,0.0
542,0.0
592,4772907.366309401
632,32701032.8101594
686,1.0
687,1.0
688,2.0
2,21, 1,21, 0, 4,40.00,50.00,Monday
250,-0.06136727085413379
251,37732811.85987673
336,0.0
385,19.480169677691066
386,28.57848820028915
387,-0.9299914792758657
388,0.0
425,0.0
450,0.0
451,0.0
452,-1.6441036819306518
453,0.0
490,0.0
515,0.0
516,0.0
542,0.0
592,4772733.376034233
632,32701210.556105517
686,1.0
687,1.0
688,2.0
2,21, 1,21, 0, 4,50.00,60.00,Monday
250,-0.06132085777846781
251,37732825.325132646
336,0.0
385,19.480169677691066
386,28.57848820028915
387,-0.928526002539322
388,0.0
425,0.0
450,0.0
451,0.0
452,-1.6250234160900106
453,0.0
490,0.0
515,0.0
516,0.0
542,0.0
592,4772559.326581573
632,32701399.566603392
686,1.0
687,1.0
688,2.0
2,21, 1,21, 0, 5, 0.00,10.00,Monday
250,-0.06127726988844089
251,37732840.391477615
336,0.0
385,19.480169677691066
386,28.57848820028915
387,-0.9278882961852692
388,0.0
425,0.0
450,0.0
451,0.0
452,-1.6101601996486128
453,0.0
490,0.0
515,0.0
516,0.0
542,0.0
592,4759720.85868958
632,32714251.57930814
686,1.0
687,1.0
688,2.0
2,21, 1,21, 0, 5,10.00,20.00,Monday
250,-0.06121699311718949
251,37734102.20592387
336,0.0
385,19.480169677691066
386,28.57848820028915
387,-0.9279424474964597
388,0.0
425,0.0
450,0.0
451,0.0
452,-1.5972034962269863
453,0.0
490,0.0
515,0.0
516,0.0
542,0.0
592,4746877.262331866
632,32728365.979341704
686,1.0
687,1.0
688,2.0
2,21, 1,21, 0, 5,20.00,30.00,Monday
250,-0.06115607670156204
251,37735403.421183415
336,0.0
385,19.480169677691066
386,28.57848820028915
387,-0.9284610192260923
388,0.0
425,0.0
450,0.0
451,0.0
452,-1.5847513359285086
453,0.0
490,0.0
515,0.0
516,0.0
542,0.0
592,4734028.534436011
632,32742516.268161524
686,1.0
687,1.0
688,2.0
2,21, 1,21, 0, 5,30.00,40.00,Monday
250,-0.061095641946216375
251,37736691.705254264
336,0.0
385,19.480169677691066
386,28.57848820028915
387,-0.9292410396803993
388,0.0
425,0.0
450,0.0
451,0.0
452,-1.572369171279612
453,0.0
490,0.0
515,0.0
516,0.0
542,0.0
592,4721174.671927155
632,32756658.15645516
686,1.0
687,1.0
688,2.0
2,21, 1,21, 0, 5,40.00,50.00,Monday
250,-0.061035053411848506
251,37737982.856437385
336,0.0
385,19.480169677691066
386,28.57848820028915
387,-0.9301460483225366
388,0.0
425,0.0
450,0.0
451,0.0
452,-1.5601247786652495
453,0.0
490,0.0
515,0.0
516,0.0
542,0.0
592,4708315.671727969
632,32770808.391811576
686,1.0
687,1.0
688,2.0
2,21, 1,21, 0, 5,50.00,60.00,Monday
250,-0.060974186847422125
251,37739274.72626678
336,0.0
385,19.480169677691066
386,28.57848820028915
387,-0.931096410380476
388,0.0
425,0.0
450,0.0
451,0.0
452,-1.5481687438490486
453,0.0
490,0.0
515,0.0
516,0.0
542,0.0
592,4695451.530758674
632,32784964.553520408
686,1.0
687,1.0
688,2.0
2,21, 1,21, 0, 6, 0.00,10.00,Monday
250,-0.06091049718188979
251,37740565.54688338
336,0.0
385,19.480169677691066
386,28.57848820028915
387,-0.93217841268949
388,0.0
425,0.0
450,0.0
451,0.0
452,-1.5371954608095415
453,0.0
490,0.0
515,0.0
516,0.0
542,0.0
592,4695264.082255858
632,32786444.344545376
686,1.0
687,1.0
688,2.0
2,21, 1,21, 0, 6,10.00,20.00,Monday
250,-0.06086403383845062
251,37740608.7345392
336,0.0
385,19.480169677691066
386,28.57848820028915
387,-0.9334758922326276
388,0.0
425,0.0
450,0.0
451,0.0
452,-1.528017254311014
453,0.0
490,0.0
515,0.0
516,0.0
542,0.0
592,4695076.569900009
632,32786665.76508917
686,1.0
687,1.0
688,2.0
2,21, 1,21, 0, 6,20.00,30.00,Monday
250,-0.06081823529418459
251,37740613.00904315
336,0.0
385,19.480169677691066
386,28.57848820028915
387,-0.9349839781987751
388,0.0
425,0.0
450,0.0
451,0.0
452,-1.5209645276840944
453,0.0
490,0.0
515,0.0
516,0.0
542,0.0
592,4694888.993658494
632,32786857.257737424
686,1.0
687,1.0
688,2.0
2,21, 1,21, 0, 6,30.00,40.00,Monday
250,-0.06077151370070462
251,37740630.533046134
336,0.0
385,19.480169677691066
386,28.57848820028915
387,-0.9366611954361891
388,0.0
425,0.0
450,0.0
451,0.0
452,-1.5158307915771356
453,0.0
490,0.0
515,0.0
516,0.0
542,0.0
592,4694701.353498662
632,32787062.91916017
686,1.0
687,1.0
688,2.0
2,21, 1,21, 0, 6,40.00,50.00,Monday
250,-0.06072423675429541
251,37740645.3438173
336,0.0
385,19.480169677691066
386,28.57848820028915
387,-0.9384758066269385
388,0.0
425,0.0
450,0.0
451,0.0
452,-1.5121653133026947
453,0.0
490,0.0
515,0.0
516,0.0
542,0.0
592,4694513.649387832
632,32787265.7332292
686,1.0
687,1.0
688,2.0
2,21, 1,21, 0, 6,50.00,60.00,Monday
250,-0.060676318857551474
251,37740659.47962502
336,0.0
385,19.480169677691066
386,28.57848820028915
387,-0.9404107056129186
388,0.0
425,0.0
450,0.0
451,0.0
452,-1.5095472522504896
453,0.0
490,0.0
515,0.0
516,0.0
542,0.0
592,4694325.88129331
632,32787467.982428942
686,1.0
687,1.0
688,2.0
2,21, 1,21, 0, 7, 0.00,10.00,Monday
250,-0.06190621053621191
251,37741362.02148131
336,0.0
385,19.480169677691066
386,28.57848820028915
387,-0.9448914018647947
388,0.0
425,0.0
450,0.0
451,0.0
452,-1.512842672491102
453,0.0
490,0.0
515,0.0
516,0.0
542,0.0
592,4723573.583255435
632,32758234.484330744
686,1.0
687,1.0
688,2.0
2,21, 1,21, 0, 7,10.00,20.00,Monday
250,-0.061876945177941005
251,37738488.12486051
336,0.0
385,19.480169677691066
386,28.57848820028915
387,-0.954093810628592
388,0.0
425,0.0
450,0.0
451,0.0
452,-1.531520684025499
453,0.0
490,0.0
515,0.0
516,0.0
542,0.0
592,4752837.186047653
632,32726775.273883846
686,1.0
687,1.0
688,2.0
2,21, 1,21, 0, 7,20.00,30.00,Monday
250,-0.06179518783319908
251,37735493.8736356
336,0.0
385,19.480169677691066
386,28.57848820028915
387,-0.96825822097918
388,0.0
425,0.0
450,0.0
451,0.0
452,-1.5709559482125113
453,0.0
490,0.0
515,0.0
516,0.0
542,0.0
592,4782116.702651945
632,32694529.777164314
686,1.0
687,1.0
688,2.0
2,21, 1,21, 0, 7,30.00,40.00,Monday
250,-0.061727651840770226
251,37732537.35085644
336,0.0
385,19.480169677691066
386,28.57848820028915
387,-0.9864281121743288
388,0.0
425,0.0
450,0.0
451,0.0
452,-1.6287768756136223
453,0.0
490,0.0
515,0.0
516,0.0
542,0.0
592,4811412.146064443
632,32662270.148494594
686,1.0
687,1.0
688,2.0
2,21, 1,21, 0, 7,40.00,50.00,Monday
250,-0.06165626192432732
251,37729571.578110404
336,0.0
385,19.480169677691066
386,28.57848820028915
387,-1.007523433445932
388,0.0
425,0.0
450,0.0
451,0.0
452,-1.6987288027532907
453,0.0
490,0.0
515,0.0
516,0.0
542,0.0
592,4840723.52929546
632,32629995.065109167
686,1.0
687,1.0
688,2.0
2,21, 1,21, 0, 7,50.00,60.00,Monday
250,-0.0615832769563177
251,37726602.57412773
336,0.0
385,19.480169677691066
386,28.57848820028915
387,-1.0307962387424756
388,0.0
425,0.0
450,0.0
451,0.0
452,-1.775113353257483
453,0.0
490,0.0
515,0.0
516,0.0
542,0.0
592,4870050.865369484
632,32597699.58096698
686,1.0
687,1.0
688,2.0
2,21, 1,21, 0, 8, 0.00,10.00,Monday
250,0.13896432382594232
251,37615689.38354565
336,0.0
385,19.480169677691066
386,28.57848820028915
387,-1.0268754651506893
388,0.0
425,0.0
450,0.0
451,0.0
452,-1.8340796307701122
453,0.0
490,0.0
515,0.0
516,0.0
542,0.0
592,4889730.300311493
632,32575049.681906186
686,1.0
687,1.0
688,2.0
2,21, 1,21, 0, 8,10.00,20.00,Monday
250,0.3396977148181602
251,37509855.88645738
336,0.0
385,19.480169677691066
386,28.57848820028915
387,-0.9852276018350682
388,0.0
425,0.0
450,0.0
451,0.0
452,-1.825304430319319
453,0.0
490,0.0
515,0.0
516,0.0
542,0.0
592,4909380.719869503
632,32449672.28085529
686,1.0
687,1.0
688,2.0
2,21, 1,21, 0, 8,20.00,30.00,Monday
250,0.537740005775325
251,37405631.97321137
336,0.0
385,19.480169677691066
386,28.57848820028915
387,-0.914158345078946
388,0.0
425,0.0
450,0.0
451,0.0
452,-1.7179931230641523
453,0.0
490,0.0
515,0.0
516,0.0
542,0.0
592,4929009.6156952735
632,32324377.28699998
686,1.0
687,1.0
688,2.0
2,21, 1,21, 0, 8,30.00,40.00,Monday
250,0.7365566032657038
251,37300933.738721
336,0.0
385,19.480169677691066
386,28.57848820028915
387,-0.823741551547213
388,0.0
425,0.0
450,0.0
451,0.0
452,-1.522609216649114
453,0.0
490,0.0
515,0.0
516,0.0
542,0.0
592,4952863.646772657
632,32196248.77663519
686,1.0
687,1.0
688,2.0
2,21, 1,21, 0, 8,40.00,50.00,Monday
250,0.9354721495770512
251,37195784.657309204
336,0.0
385,19.480169677691066
386,28.57848820028915
387,-0.7219888459779247
388,0.0
425,0.0
450,0.0
451,0.0
452,-1.2468083797489116
453,0.0
490,0.0
515,0.0
516,0.0
542,0.0
592,4977062.298687916
632,32066960.01723644
686,1.0
687,1.0
688,2.0
2,21, 1,21, 0, 8,50.00,60.00,Monday
250,1.1353448508303772
251,37091039.296325825
336,0.0
385,19.480169677691066
386,28.57848820028915
387,-0.6260230507700095
388,0.0
425,0.0
450,0.0
451,0.0
452,-0.9336107447382651
453,0.0
490,0.0
515,0.0
516,0.0
542,0.0
592,5001395.306277511
632,31885573.666837476
686,1.0
687,1.0
688,2.0
2,21, 1,21, 0, 9, 0.00,10.00,Monday
250,1.4003356045385553
251,36952251.07269639
336,0.0
385,19.480169677691066
386,28.57848820028915
387,-0.48754605446931143
388,0.0
425,0.0
450,0.0
451,0.0
452,-0.4540250991551493
453,0.0
490,0.0
515,0.0
516,0.0
542,0.0
592,5029363.153609448
632,31735595.867939997
686,1.0
687,1.0
688,2.0
2,21, 1,21, 0, 9,10.00,20.00,Monday
250,1.6652636275007178
251,36812564.38473301
336,0.0
385,19.480169677691066
386,28.57848820028915
387,-0.3366680682990533
388,0.0
425,0.0
450,0.0
451,0.0
452,0.07021268472875354
453,0.0
490,0.0
515,0.0
516,0.0
542,0.0
592,5057356.862312016
632,31567892.02197922
686,1.0
687,1.0
688,2.0
2,21, 1,21, 0, 9,20.00,30.00,Monday
250,1.9303659039109398
251,36672777.28268891
336,0.0
385,19.480169677691066
386,28.57848820028915
387,-0.1767652191634178
388,0.0
425,0.0
450,0.0
451,0.0
452,0.634891539310266
453,0.0
490,0.0
515,0.0
516,0.0
542,0.0
592,5085392.284952975
632,31400116.749146827
686,1.0
687,1.0
688,2.0
2,21, 1,21, 0, 9,30.00,40.00,Monday
250,2.1953828425728927
251,36533034.60114883
336,0.0
385,19.480169677691066
386,28.57848820028915
387,-0.007057876896578299
388,0.0
425,0.0
450,0.0
451,0.0
452,1.2295126871265252
453,0.0
490,0.0
515,0.0
516,0.0
542,0.0
592,5113485.892141593
632,31232258.744320493
686,1.0
687,1.0
688,2.0
2,21, 1,21, 0, 9,40.00,50.00,Monday
250,2.4607874277178587
251,36392113.52068811
336,0.0
385,19.48016967769108
386,28.578488200289176
387,0.13805990253096523
388,0.0
425,0.0
450,0.0
451,0.0
452,1.731340535720711
453,0.0
490,0.0
515,0.0
516,0.0
542,0.0
592,5141654.529350725
632,31039304.72095835
686,1.0000000000000009
687,1.0000000000000009
688,2.0000000000000018
2,21, 1,21, 0, 9,50.00,60.00,Monday
250,2.7263035011587586
251,36251558.94659942
336,0.0
385,19.480169677691066
386,28.57848820028915
387,0.29018987608302127
388,0.0
425,0.0
450,0.0
451,0.0
452,2.2719482071433115
453,0.0
490,0.0
515,0.0
516,0.0
542,0.0
592,5169915.672059793
632,30895610.746345922
686,1.0
687,1.0
688,2.0
2,21, 1,21, 0,10, 0.00,10.00,Monday
250,3.187211023477963
251,36007022.03846681
336,0.0
385,19.480169677691066
386,28.57848820028915
387,0.4806323093185199
388,0.0
425,0.0
450,0.0
451,0.0
452,2.8313803747872512
453,0.0
490,0.0
515,0.0
516,0.0
542,0.0
592,5241404.10703412
632,30589699.5208219
686,1.0
687,1.0
688,2.0
2,21, 1,21, 0,10,10.00,20.00,Monday
250,3.6494875761596504
251,35762351.32315513
336,0.0
385,19.480169677691066
386,28.57848820028915
387,0.7716735296121942
388,0.0
425,0.0
450,0.0
451,0.0
452,3.5862752865708347
453,0.0
490,0.0
515,0.0
516,0.0
542,0.0
592,5315291.857316207
632,30270396.39499804
686,1.0
687,1.0
688,2.0
2,21, 1,21, 0,10,20.00,30.00,Monday
250,4.112252756112747
251,35516159.73248212
336,0.0
385,19.48016967769106
386,28.578488200289137
387,1.0520745115666195
388,0.0
425,0.0
450,0.0
451,0.0
452,4.275369639916724
453,0.0
490,0.0
515,0.0
516,0.0
542,0.0
592,5391793.298050372
632,29947833.960606407
686,0.9999999999999996
687,0.9999999999999996
688,1.9999999999999991
2,21, 1,21, 0,10,30.00,40.00,Monday
250,4.575279871558341
251,35269694.00976983
336,0.0
385,19.480169677691073
386,28.57848820028916
387,1.333850963947138
388,0.0
425,0.0
450,0.0
451,0.0
452,4.97701529166474
453,0.0
490,0.0
515,0.0
516,0.0
542,0.0
592,5471132.199313744
632,29622120.649854146
686,1.0000000000000004
687,1.0000000000000004
688,2.000000000000001
2,21, 1,21, 0,10,40.00,50.00,Monday
250,5.038687870293973
251,35022882.79343729
336,0.0
385,19.48016967769108
386,28.578488200289176
387,1.6239969253952826
388,0.0
425,0.0
450,0.0
451,0.0
452,5.7410422339515925
453,0.0
490,0.0
515,0.0
516,0.0
542,0.0
592,5553542.375759332
632,29293014.366543975
686,1.0000000000000009
687,1.0000000000000009
688,2.0000000000000018
2,21, 1,21, 0,10,50.00,60.00,Monday
250,5.502096237964087
251,34775924.46168496
336,0.0
385,19.48016967769108
386,28.578488200289176
387,1.9242280531852398
388,0.0
425,0.0
450,0.0
451,0.0
452,6.570143118052085
453,0.0
490,0.0
515,0.0
516,0.0
542,0.0
592,5639267.778995938
632,28960379.432783943
686,1.0000000000000009
687,1.0000000000000009
688,2.0000000000000018
2,21, 1,21, 0,11, 0.00,10.00,Monday
250,5.785661126471011
251,34625030.349395305
336,0.0
385,19.480169677691066
386,28.57848820028915
387,2.210743587576739
388,0.0
425,0.0
450,0.0
451,0.0
452,7.425375608368084
453,0.0
490,0.0
515,0.0
516,0.0
542,0.0
592,5689519.861596228
632,28727110.9200012
686,1.0
687,1.0
688,2.0
2,21, 1,21, 0,11,10.00,20.00,Monday
250,6.068138701938738
251,34474657.000774704
336,0.0
385,19.480169677691066
386,28.57848820028915
387,2.4805159482683106
388,0.0
425,0.0
450,0.0
451,0.0
452,8.275920123579564
453,0.0
490,0.0
515,0.0
516,0.0
542,0.0
592,5740969.350869595
632,28525100.760380425
686,1.0
687,1.0
688,2.0
2,21, 1,21, 0,11,20.00,30.00,Monday
250,6.350679141803106
251,34324201.688898765
336,0.0
385,19.48016967769106
386,28.578488200289137
387,2.752675734046682
388,0.0
425,0.0
450,0.0
451,0.0
452,9.122553197674998
453,0.0
490,0.0
515,0.0
516,0.0
542,0.0
592,5793671.0952822175
632,28321971.232826725
686,0.9999999999999996
687,0.9999999999999996
688,1.9999999999999991
2,21, 1,21, 0,11,30.00,40.00,Monday
250,6.632802850072931
251,34173918.06402449
336,0.0
385,19.480169677691073
386,28.57848820028916
387,3.0300089216615755
388,0.0
425,0.0
450,0.0
451,0.0
452,9.944496692547181
453,0.0
490,0.0
515,0.0
516,0.0
542,0.0
592,5847681.4279665835
632,28117619.593155906
686,1.0000000000000004
687,1.0000000000000004
688,2.000000000000001
2,21, 1,21, 0,11,40.00,50.00,Monday
250,6.914743462269524
251,34023679.39786039
336,0.0
385,19.48016967769108
386,28.578488200289176
387,3.309113848552837
388,0.0
425,0.0
450,0.0
451,0.0
452,10.690039282922601
453,0.0
490,0.0
515,0.0
516,0.0
542,0.0
592,5903058.082199926
632,27911989.126313258
686,1.0000000000000009
687,1.0000000000000009
688,2.0000000000000018
2,21, 1,21, 0,11,50.00,60.00,Monday
250,7.19643665616692
251,33873518.921022415
336,0.0
385,19.48016967769108
386,28.578488200289176
387,3.586137553663555
388,0.0
425,0.0
450,0.0
451,0.0
452,11.325757634933703
453,0.0
490,0.0
515,0.0
516,0.0
542,0.0
592,5959860.237244541
632,27705000.245979086
686,1.0000000000000009
687,1.0000000000000009
688,2.0000000000000018
2,21, 1,21, 0,12, 0.00,10.00,Monday
250,7.463050520720126
251,33731405.91837971
336,0.0
385,19.480169677691066
386,28.57848820028915
387,3.8261272352097038
388,0.0
425,0.0
450,0.0
451,0.0
452,11.824914454562714
453,0.0
490,0.0
515,0.0
516,0.0
542,0.0
592,5991096.197635708
632,27554629.008118894
686,1.0
687,1.0
688,2.0
2,21, 1,21, 0,12,10.00,20.00,Monday
250,7.727277059846758
251,33594051.390339464
336,0.0
385,19.480169677691066
386,28.57848820028915
387,4.118511622725243
388,0.0
425,0.0
450,0.0
451,0.0
452,12.388903280395343
453,0.0
490,0.0
515,0.0
516,0.0
542,0.0
592,7572016.881221028
632,25834425.52576836
686,1.0
687,1.0
688,2.0
2,21, 1,21, 0,12,20.00,30.00,Monday
250,7.992727822559008
251,33454334.456303865
336,0.0
385,19.480169677691066
386,28.57848820028915
387,4.387627202712341
388,0.0
425,0.0
450,0.0
451,0.0
452,12.904287616778408
453,0.0
490,0.0
515,0.0
516,0.0
542,0.0
592,7609409.155487607
632,25657624.762142323
686,1.0
687,1.0
688,2.0
2,21, 1,21, 0,12,30.00,40.00,Monday
250,8.258002986260216
251,33314714.270522118
336,0.0
385,19.480169677691066
386,28.57848820028915
387,4.646436508775988
388,0.0
425,0.0
450,0.0
451,0.0
452,13.395809187991343
453,0.0
490,0.0
515,0.0
516,0.0
542,0.0
592,7646583.592010486
632,25480782.735955816
686,1.0
687,1.0
688,2.0
2,21, 1,21, 0,12,40.00,50.00,Monday
250,8.523222231839618
251,33175123.87201999
336,0.0
385,19.480169677691066
386,28.57848820028915
387,4.900859592379862
388,0.0
425,0.0
450,0.0
451,0.0
452,13.837643165752743
453,0.0
490,0.0
515,0.0
516,0.0
542,0.0
592,7683540.190789654
632,25304220.696384616
686,1.0
687,1.0
688,2.0
2,21, 1,21, 0,12,50.00,60.00,Monday
250,8.788423107131102
251,33035542.589063346
336,0.0
385,19.480169677691066
386,28.57848820028915
387,5.149803645990142
388,0.0
425,0.0
450,0.0
451,0.0
452,14.205458152475657
453,0.0
490,0.0
515,0.0
516,0.0
542,0.0
592,7720278.951825123
632,25127896.19894
686,1.0
687,1.0
688,2.0
2,21, 1,21, 0,13, 0.00,10.00,Monday
250,8.971088194851996
251,32937111.84015856
336,0.0
385,19.480169677691066
386,28.57848820028915
387,5.382187010647153
388,0.0
425,0.0
450,0.0
451,0.0
452,14.49672283571654
453,0.0
490,0.0
515,0.0
516,0.0
542,0.0
592,7745410.487127082
632,25027939.48191284
686,1.0
687,1.0
688,2.0
2,21, 1,21, 0,13,10.00,20.00,Monday
250,9.153056360087788
251,32842896.135865096
336,0.0
385,19.480169677691066
386,28.57848820028915
387,5.600967675271189
388,0.0
425,0.0
450,0.0
451,0.0
452,14.725963302391383
453,0.0
490,0.0
515,0.0
516,0.0
542,0.0
592,7770439.060057996
632,24911785.232203502
686,1.0
687,1.0
688,2.0
2,21, 1,21, 0,13,20.00,30.00,Monday
250,9.335957021662026
251,32748338.27094084
336,0.0
385,19.480169677691066
386,28.57848820028915
387,5.805861987992288
388,0.0
425,0.0
450,0.0
451,0.0
452,14.909122515120373
453,0.0
490,0.0
515,0.0
516,0.0
542,0.0
592,7795364.670617863
632,24792817.64075666
686,1.0
687,1.0
688,2.0
2,21, 1,21, 0,13,30.00,40.00,Monday
250,9.518612263070915
251,32653940.88949698
336,0.0
385,19.480169677691066
386,28.57848820028915
387,6.000889555744859
388,0.0
425,0.0
450,0.0
451,0.0
452,15.057993352734766
453,0.0
490,0.0
515,0.0
516,0.0
542,0.0
592,7820187.318806681
632,24673477.82670047
686,1.0
687,1.0
688,2.0
2,21, 1,21, 0,13,40.00,50.00,Monday
250,9.701180194360479
251,32559624.25965287
336,0.0
385,19.480169677691066
386,28.57848820028915
387,6.18979981715036
388,0.0
425,0.0
450,0.0
451,0.0
452,15.177293256817256
453,0.0
490,0.0
515,0.0
516,0.0
542,0.0
592,7844907.00462445
632,24554407.245858073
686,1.0
687,1.0
688,2.0
2,21, 1,21, 0,13,50.00,60.00,Monday
250,9.883773519565622
251,32465327.01406574
336,0.0
385,19.480169677691066
386,28.57848820028915
387,6.373893038678365
388,0.0
425,0.0
450,0.0
451,0.0
452,15.27066368819311
453,0.0
490,0.0
515,0.0
516,0.0
542,0.0
592,7869523.72807117
632,24435520.042940233
686,1.0
687,1.0
688,2.0
2,21, 1,21, 0,14, 0.00,10.00,Monday
250,10.083613221853943
251,32361747.86098387
336,0.0
385,19.480169677691066
386,28.57848820028915
387,6.556007101393289
388,0.0
425,0.0
450,0.0
451,0.0
452,15.326714443725681
453,0.0
490,0.0
515,0.0
516,0.0
542,0.0
592,7896260.907308882
632,24314531.974643063
686,1.0
687,1.0
688,2.0
2,21, 1,21, 0,14,10.00,20.00,Monday
250,10.282773013002544
251,32258146.69879904
336,0.0
385,19.480169677691066
386,28.57848820028915
387,6.736273751474507
388,0.0
425,0.0
450,0.0
451,0.0
452,15.327135710188776
453,0.0
490,0.0
515,0.0
516,0.0
542,0.0
592,7922875.552815756
632,24183962.17030727
686,1.0
687,1.0
688,2.0
2,21, 1,21, 0,14,20.00,30.00,Monday
250,10.481707758005427
251,32154673.005979903
336,0.0
385,19.480169677691066
386,28.57848820028915
387,6.912536670709914
388,0.0
425,0.0
450,0.0
451,0.0
452,15.271467385217601
453,0.0
490,0.0
515,0.0
516,0.0
542,0.0
592,7949367.664591796
632,24053888.126779128
686,1.0
687,1.0
688,2.0
2,21, 1,21, 0,14,30.00,40.00,Monday
250,10.680502745657092
251,32051301.501721203
336,0.0
385,19.480169677691066
386,28.57848820028915
387,7.0788457213927085
388,0.0
425,0.0
450,0.0
451,0.0
452,15.149187073073893
453,0.0
490,0.0
515,0.0
516,0.0
542,0.0
592,7975737.242637001
632,23924085.036973916
686,1.0
687,1.0
688,2.0
2,21, 1,21, 0,14,40.00,50.00,Monday
250,10.879171930666764
251,31948019.57511226
336,0.0
385,19.480169677691066
386,28.57848820028915
387,7.231507531951203
388,0.0
425,0.0
450,0.0
451,0.0
452,14.940574199442421
453,0.0
490,0.0
515,0.0
516,0.0
542,0.0
592,8001984.286951372
632,23794501.743755378
686,1.0
687,1.0
688,2.0
2,21, 1,21, 0,14,50.00,60.00,Monday
250,11.07775775916925
251,31844804.98379462
336,0.0
385,19.480169677691066
386,28.57848820028915
387,7.37081185240119
388,0.0
425,0.0
450,0.0
451,0.0
452,14.648670743940661
453,0.0
490,0.0
515,0.0
516,0.0
542,0.0
592,8028108.797534912
632,23665131.40957229
686,1.0
687,1.0
688,2.0
2,21, 1,21, 0,15, 0.00,10.00,Monday
250,11.34260773588895
251,31706533.01925599
336,0.0
385,19.480169677691066
386,28.57848820028915