Program Version,EnergyPlus, Version 24.1.0-9d7789a3ac, YMD=2025.04.05 15:40
1,5,Environment Title[],Latitude[deg],Longitude[deg],Time Zone[],Elevation[m]
2,8,Day of Simulation[],Month[],Day of Month[],DST Indicator[1=yes 0=no],Hour[],StartMinute[],EndMinute[],DayType
3,5,Cumulative Day of Simulation[],Month[],Day of Month[],DST Indicator[1=yes 0=no],DayType  ! When Daily Report Variables Requested
4,2,Cumulative Days of Simulation[],Month[]  ! When Monthly Report Variables Requested
5,1,Cumulative Days of Simulation[] ! When Run Period Report Variables Requested
6,1,Calendar Year of Simulation[] ! When Annual Report Variables Requested
250,1,LIVING ZONE,Zone Air Temperature [C] !TimeStep,REPORTSCH
251,1,LIVING ZONE,Zone Air System Sensible Heating Energy [J] !TimeStep,REPORTSCH
336,1,LIVING ZONE,Zone Air System Sensible Cooling Energy [J] !TimeStep,REPORTSCH
385,1,LIVING ZONE,Zone Thermostat Heating Setpoint Temperature [C] !TimeStep,REPORTSCH
386,1,LIVING ZONE,Zone Thermostat Cooling Setpoint Temperature [C] !TimeStep,REPORTSCH
387,1,GARAGE ZONE,Zone Air Temperature [C] !TimeStep,REPORTSCH
388,1,GARAGE ZONE,Zone Air System Sensible Heating Energy [J] !TimeStep,REPORTSCH
425,1,GARAGE ZONE,Zone Air System Sensible Cooling Energy [J] !TimeStep,REPORTSCH
450,1,GARAGE ZONE,Zone Thermostat Heating Setpoint Temperature [C] !TimeStep,REPORTSCH
451,1,GARAGE ZONE,Zone Thermostat Cooling Setpoint Temperature [C] !TimeStep,REPORTSCH
452,1,ATTIC ZONE,Zone Air Temperature [C] !TimeStep,REPORTSCH
453,1,ATTIC ZONE,Zone Air System Sensible Heating Energy [J] !TimeStep,REPORTSCH
490,1,ATTIC ZONE,Zone Air System Sensible Cooling Energy [J] !TimeStep,REPORTSCH
515,1,ATTIC ZONE,Zone Thermostat Heating Setpoint Temperature [C] !TimeStep,REPORTSCH
516,1,ATTIC ZONE,Zone Thermostat Cooling Setpoint Temperature [C] !TimeStep,REPORTSCH
542,1,ACDXCOIL 1,Cooling Coil Total Cooling Energy [J] !TimeStep,REPORTSCH
592,1,HEAT PUMP DX HEATING COIL 1,Heating Coil Heating Energy [J] !TimeStep,REPORTSCH
632,1,SUPP HEATING COIL 1,Heating Coil Heating Energy [J] !TimeStep,REPORTSCH
686,1,TWOSPEED HEAT PUMP 1,Unitary System DX Coil Cycling Ratio [] !TimeStep,REPORTSCH
687,1,TWOSPEED HEAT PUMP 1,Unitary System DX Coil Speed Ratio [] !TimeStep,REPORTSCH
688,1,TWOSPEED HEAT PUMP 1,Unitary System DX Coil Speed Level [] !TimeStep
End of Data Dictionary
1,RUN PERIOD 1,  41.98, -87.92,  -6.00, 201.00
2,21, 1,21, 0, 1, 0.00,10.00,Monday
250,23.570790088473053
251,7082644.887113395
336,0.0
385,23.633333333333333
386,25.45
387,0.6845794762137609
388,0.0
425,0.0
450,0.0
451,0.0
452,-1.577041822126421
453,0.0
490,0.0
515,0.0
516,0.0
542,0.0
592,4103154.9229973243
632,3048058.191230279
686,0.9639202422039505
687,0.5213399564693495
688,1.6666666666666667
2,21, 1,21, 0, 1,10.00,20.00,Monday
250,23.608858140328394
251,5215337.978433235
336,0.0
385,23.633333333333326
386,25.44999999999999
387,0.6494069244122498
388,0.0
425,0.0
450,0.0
451,0.0
452,-1.5630371569306272
453,0.0
490,0.0
515,0.0
516,0.0
542,0.0
592,3240198.085655884
632,1982182.4163318612
686,0.6666666666666664
687,0.6666666666666664
688,1.3333333333333328
2,21, 1,21, 0, 1,20.00,30.00,Monday
250,23.199445011417424
251,5169989.710458224
336,0.0
385,23.1
386,25.45
387,0.6269076504180102
388,0.0
425,0.0
450,0.0
451,0.0
452,-1.5560888332907155
453,0.0
490,0.0
515,0.0
516,0.0
542,0.0
592,2359616.5295947753
632,2907716.499747408
686,0.5203736506245976
687,0.4
688,1.0
2,21, 1,21, 0, 1,30.00,40.00,Monday
250,23.5714933442681
251,7138668.925016803
336,0.0
385,23.633333333333347
386,25.45000000000001
387,0.603506059126282
388,0.0
425,0.0
450,0.0
451,0.0
452,-1.55078878970262
453,0.0
490,0.0
515,0.0
516,0.0
542,0.0
592,4118450.236068587
632,3084745.6131947436
686,0.9702598683735654
687,0.5459607893105306
688,1.6666666666666676
2,21, 1,21, 0, 1,40.00,50.00,Monday
250,23.604239303208807
251,5255030.240908464
336,0.0
385,23.633333333333354
386,25.450000000000017
387,0.5717195680377236
388,0.0
425,0.0
450,0.0
451,0.0
452,-1.5459311667830826
453,0.0
490,0.0
515,0.0
516,0.0
542,0.0
592,3208560.7469716864
632,2053455.8317921301
686,0.6666666666666672
687,0.6666666666666672
688,1.3333333333333344
2,21, 1,21, 0, 1,50.00,60.00,Monday
250,23.194636651887016
251,5212683.605618318
336,0.0
385,23.1
386,25.45
387,0.5505398572367894
388,0.0
425,0.0
450,0.0
451,0.0
452,-1.5446951398415694
453,0.0
490,0.0
515,0.0
516,0.0
542,0.0
592,2352523.081794921
632,2958605.826664922
686,0.525001636736683
687,0.4
688,1.0
2,21, 1,21, 0, 2, 0.00,10.00,Monday
250,23.57190483358231
251,7185850.627077966
336,0.0
385,23.633333333333333
386,25.45
387,0.5281094094608527
388,0.0
425,0.0
450,0.0
451,0.0
452,-1.5453370576615635
453,0.0
490,0.0
515,0.0
516,0.0
542,0.0
592,4140933.6919067586
632,3106486.786140604
686,0.9771281663770269
687,0.5651001840178986
688,1.6666666666666667
2,21, 1,21, 0, 2,10.00,20.00,Monday
250,23.601597197148998
251,5277995.427454475
336,0.0
385,23.633333333333326
386,25.44999999999999
387,0.4971861581278101
388,0.0
425,0.0
450,0.0
451,0.0
452,-1.5495954051227079
453,0.0
490,0.0
515,0.0
516,0.0
542,0.0
592,3198016.8506701393
632,2086960.5211541902
686,0.6666666666666664
687,0.6666666666666664
688,1.3333333333333328
2,21, 1,21, 0, 2,20.00,30.00,Monday
250,23.19288270711925
251,5227026.399534171
336,0.0
385,23.1
386,25.45
387,0.4761950613169801
388,0.0
425,0.0
450,0.0
451,0.0
452,-1.557132390706589
453,0.0
490,0.0
515,0.0
516,0.0
542,0.0
592,2356834.935119749
632,2969127.82317592
686,0.52624730730166
687,0.4
688,1.0
2,21, 1,21, 0, 2,30.00,40.00,Monday
250,23.572015229463485
251,7205452.048618003
336,0.0
385,23.633333333333347
386,25.45000000000001
387,0.45369196401614315
388,0.0
425,0.0
450,0.0
451,0.0
452,-1.5679036458686566
453,0.0
490,0.0
515,0.0
516,0.0
542,0.0
592,4154440.041342922
632,3111849.6494295434
686,0.9790267097723783
687,0.5702627662963254
688,1.6666666666666676
2,21, 1,21, 0, 2,40.00,50.00,Monday
250,23.600190239909875
251,5290325.986589383
336,0.0
385,23.633333333333354
386,25.450000000000017
387,0.4223157561078835
388,0.0
425,0.0
450,0.0
451,0.0
452,-1.5851453537228297
453,0.0
490,0.0
515,0.0
516,0.0
542,0.0
592,3198016.8506701393
632,2099329.699103909
686,0.6666666666666672
687,0.6666666666666672
688,1.3333333333333344
2,21, 1,21, 0, 2,50.00,60.00,Monday
250,23.191573768694123
251,5238937.795720419
336,0.0
385,23.1
386,25.45
387,0.40081540603157384
388,0.0
425,0.0
450,0.0
451,0.0
452,-1.6003382299491824
453,0.0
490,0.0
515,0.0
516,0.0
542,0.0
592,2360452.20625249
632,2977748.0682769488
686,0.5272923435485233
687,0.4
688,1.0
2,21, 1,21, 0, 3, 0.00,10.00,Monday
250,23.572195421307494
251,7232943.621488169
336,0.0
385,23.633333333333333
386,25.45
387,0.3782410645869294
388,0.0
425,0.0
450,0.0
451,0.0
452,-1.6156952690207906
453,0.0
490,0.0
515,0.0
516,0.0
542,0.0
592,4172800.641795557
632,3119840.4533575363
686,0.9815602232288924
687,0.5774111953554013
688,1.6666666666666667
2,21, 1,21, 0, 3,10.00,20.00,Monday
250,23.59932067923862
251,5324251.569967999
336,0.0
385,23.633333333333326
386,25.44999999999999
387,0.3475693067854234
388,0.0
425,0.0
450,0.0
451,0.0
452,-1.6319334365400735
453,0.0
490,0.0
515,0.0
516,0.0
542,0.0
592,3204318.0155466935
632,2125056.5772639657
686,0.6684872730519167
687,0.6666666666666664
688,1.666666666666666
2,21, 1,21, 0, 3,20.00,30.00,Monday
250,23.811284976417
251,6998681.883256214
336,0.0
385,24.3
386,25.45
387,0.3201556627447272
388,0.0
425,0.0
450,0.0
451,0.0
452,-1.6397061005517057
453,0.0
490,0.0
515,0.0
516,0.0
542,0.0
592,4799744.224285982
632,2829955.800341955
686,1.0
687,1.0
688,2.0
2,21, 1,21, 0, 3,30.00,40.00,Monday
250,24.25323762080727
251,7741518.763558196
336,0.0
385,24.30000000000001
386,25.45000000000001
387,0.30010262736352317
388,0.0
425,0.0
450,0.0
451,0.0
452,-1.6387004519130997
453,0.0
490,0.0
515,0.0
516,0.0
542,0.0
592,4797025.27600521
632,2890269.399260534
686,1.0000000000000004
687,1.0000000000000004
688,2.000000000000001
2,21, 1,21, 0, 3,40.00,50.00,Monday
250,23.21108714247072
251,5600506.553607105
336,0.0
385,22.966666666666633
386,25.449999999999964
387,0.2835419314635452
388,0.0
425,0.0
450,0.0
451,0.0
452,-1.6331789881147127
453,0.0
490,0.0
515,0.0
516,0.0
542,0.0
592,2540360.1747375205
632,3000947.055549758
686,0.540689965510517
687,0.49999999999999933
688,1.166666666666665
2,21, 1,21, 0, 3,50.00,60.00,Monday
250,23.587846430237626
251,5433548.9855095735
336,0.0
385,23.633333333333354
386,25.450000000000017
387,0.265797732288343
388,0.0
425,0.0
450,0.0
451,0.0
452,-1.6247853458648223
453,0.0
490,0.0
515,0.0
516,0.0
542,0.0
592,3308885.449667725
632,2162551.955469182
686,0.698578956186574
687,0.6666666666666672
688,1.6666666666666679
2,21, 1,21, 0, 4, 0.00,10.00,Monday
250,23.82099366482763
251,6766660.142368479
336,0.0
385,24.3
386,25.45
387,0.2401472814768148
388,0.0
425,0.0
450,0.0
451,0.0
452,-1.614022507841524
453,0.0
490,0.0
515,0.0
516,0.0
542,0.0
592,4795193.04760998
632,2596211.643679908
686,1.0
687,1.0
688,2.0
2,21, 1,21, 0, 4,10.00,20.00,Monday
250,24.254310191674342
251,7949023.760841928
336,0.0
385,24.3
386,25.45
387,0.21270894841035132
388,0.0
425,0.0
450,0.0
451,0.0
452,-1.606390154619154
453,0.0
490,0.0
515,0.0
516,0.0
542,0.0
592,4787110.239197658
632,3105166.358640667
686,1.0
687,1.0
688,2.0
2,21, 1,21, 0, 4,20.00,30.00,Monday
250,23.197045859232436
251,5865570.859718991
336,0.0
385,22.966666666666683
386,25.45000000000002
387,0.18586505781757187
388,0.0
425,0.0
450,0.0
451,0.0
452,-1.6037876003218479
453,0.0
490,0.0
515,0.0
516,0.0
542,0.0
592,2579807.812256458
632,3231923.3700887747
686,0.5544114673330309
687,0.5000000000000004
688,1.1666666666666674
2,21, 1,21, 0, 4,30.00,40.00,Monday
250,23.59397302992055
251,5786021.860521794
336,0.0
385,23.633333333333354
386,25.450000000000017
387,0.15556292533985042
388,0.0
425,0.0
450,0.0
451,0.0
452,-1.6051603190475856
453,0.0
490,0.0
515,0.0
516,0.0
542,0.0
592,3393915.965012414
632,2403531.483231805
686,0.7274049814999599
687,0.6666666666666672
688,1.6666666666666679
2,21, 1,21, 0, 4,40.00,50.00,Monday
250,23.828589292810825
251,7083623.738974081
336,0.0
385,24.3
386,25.45
387,0.11686874824167852
388,0.0
425,0.0
450,0.0
451,0.0
452,-1.611987221582336
453,0.0
490,0.0
515,0.0
516,0.0
542,0.0
592,4775434.279652747
632,2926261.5915267672
686,1.0
687,1.0
688,2.0
2,21, 1,21, 0, 4,50.00,60.00,Monday
250,24.255206701185394
251,8270671.241674956
336,0.0
385,24.3
386,25.45
387,0.08094552053622944
388,0.0
425,0.0
450,0.0
451,0.0
452,-1.6221438818139462
453,0.0
490,0.0
515,0.0
516,0.0
542,0.0
592,4765435.086161591
632,3446511.12061197
686,1.0
687,1.0
688,2.0
2,21, 1,21, 0, 5, 0.00,10.00,Monday
250,23.186064704151047
251,6073322.560748277
336,0.0
385,22.966666666666665
386,25.449999999999992
387,0.05794800724809508
388,0.0
425,0.0
450,0.0
451,0.0
452,-1.629825609906143
453,0.0
490,0.0
515,0.0
516,0.0
542,0.0
592,2605564.141296285
632,3418119.657945319
686,0.5653789304634533
687,0.5
688,1.1666666666666665
2,21, 1,21, 0, 5,10.00,20.00,Monday
250,23.59546361902398
251,5892551.314894635
336,0.0
385,23.63333333333333
386,25.44999999999999
387,0.04007032633461669
388,0.0
425,0.0
450,0.0
451,0.0
452,-1.63232821435195
453,0.0
490,0.0
515,0.0
516,0.0
542,0.0
592,3407324.3554637562
632,2490031.9240171416
686,0.7360436783952263
687,0.6666666666666665
688,1.6666666666666663
2,21, 1,21, 0, 5,20.00,30.00,Monday
250,23.83051316061876
251,7062062.376284042
336,0.0
385,24.3
386,25.45
387,0.024036703143519567
388,0.0
425,0.0
450,0.0
451,0.0
452,-1.6262205644619168
453,0.0
490,0.0
515,0.0
516,0.0
542,0.0
592,4751017.314735698
632,2926962.0101337014
686,1.0
687,1.0
688,2.0
2,21, 1,21, 0, 5,30.00,40.00,Monday
250,24.25536255499391
251,8140078.746698076
336,0.0
385,24.30000000000001
386,25.45000000000001
387,0.013957553472049144
388,0.0
425,0.0
450,0.0
451,0.0
452,-1.611047569006569
453,0.0
490,0.0
515,0.0
516,0.0
542,0.0
592,4740495.740094985
632,3340346.191929117
686,1.0000000000000004
687,1.0000000000000004
688,2.000000000000001
2,21, 1,21, 0, 5,40.00,50.00,Monday
250,23.193146992766554
251,5940598.546987575
336,0.0
385,22.966666666666633
386,25.449999999999964
387,0.009100413473753571
388,0.0
425,0.0
450,0.0
451,0.0
452,-1.5891363671473582
453,0.0
490,0.0
515,0.0
516,0.0
542,0.0
592,2568729.078814012
632,3319461.396363164
686,0.5588762024012865
687,0.49999999999999933
688,1.166666666666665
2,21, 1,21, 0, 5,50.00,60.00,Monday
250,23.59309230894172
251,5750402.994777836
336,0.0
385,23.633333333333354
386,25.450000000000017
387,0.005953417781705986
388,0.0
425,0.0
450,0.0
451,0.0
452,-1.5605631397999578
453,0.0
490,0.0
515,0.0
516,0.0
542,0.0
592,3346876.4033597913
632,2418838.03741769
686,0.724188988086562
687,0.6666666666666672
688,1.6666666666666679
2,21, 1,21, 0, 6, 0.00,10.00,Monday
250,23.828588935078894
251,7023886.00981351
336,0.0
385,24.3
386,25.45
387,-0.003849849575801978
388,0.0
425,0.0
450,0.0
451,0.0
452,-1.528473199550956
453,0.0
490,0.0
515,0.0
516,0.0
542,0.0
592,4724414.544816521
632,2918804.1379799386
686,1.0
687,1.0
688,2.0
2,21, 1,21, 0, 6,10.00,20.00,Monday
250,24.2552062321677
251,8183152.542732109
336,0.0
385,24.3
386,25.45
387,-0.020608322617789693
388,0.0
425,0.0
450,0.0
451,0.0
452,-1.5110635633097937
453,0.0
490,0.0
515,0.0
516,0.0
542,0.0
592,4717184.630480873
632,3407255.003550977
686,1.0
687,1.0
688,2.0
2,21, 1,21, 0, 6,20.00,30.00,Monday
250,23.186358536868315
251,6068297.969136612
336,0.0
385,22.966666666666683
386,25.45000000000002
387,-0.04108108693748906
388,0.0
425,0.0
450,0.0
451,0.0
452,-1.5105388143516283
453,0.0
490,0.0
515,0.0
516,0.0
542,0.0
592,2581159.9602414626
632,3437327.68670814
686,0.565783078001614
687,0.5000000000000004
688,1.1666666666666674
2,21, 1,21, 0, 6,30.00,40.00,Monday
250,23.597231335947473
251,5979249.685492118
336,0.0
385,23.633333333333354
386,25.450000000000017
387,-0.06586901022202718
388,0.0
425,0.0
450,0.0
451,0.0
452,-1.520201911702976
453,0.0
490,0.0
515,0.0
516,0.0
542,0.0
592,3400219.5797689958
632,2576391.141494043
686,0.7435798012924375
687,0.6666666666666672
688,1.6666666666666679
2,21, 1,21, 0, 6,40.00,50.00,Monday
250,23.833234216888123
251,7232715.888779629
336,0.0
385,24.3
386,25.45
387,-0.09929731857315274
388,0.0
425,0.0
450,0.0
451,0.0
452,-1.5421206179245674
453,0.0
490,0.0
515,0.0
516,0.0
542,0.0
592,4707784.796384664
632,3139721.4330278556
686,1.0
687,1.0
688,2.0
2,21, 1,21, 0, 6,50.00,60.00,Monday
250,24.25573968531188
251,8395456.414230246
336,0.0
385,24.3
386,25.45
387,-0.13145129255610644
388,0.0
425,0.0
450,0.0
451,0.0
452,-1.5705145858768212
453,0.0
490,0.0
515,0.0
516,0.0
542,0.0
592,4698633.733564452
632,3636904.777078881
686,1.0
687,1.0
688,2.0
2,21, 1,21, 0, 7, 0.00,10.00,Monday
250,23.17590847861672
251,6265075.024185969
336,0.0
385,22.966666666666665
386,25.449999999999992
387,-0.16495342383070585
388,0.0
425,0.0
450,0.0
451,0.0
452,-1.6158275080840758
453,0.0
490,0.0
515,0.0
516,0.0
542,0.0
592,2619693.555530288
632,3599628.9546100595
686,0.5759149219067553
687,0.5
688,1.1666666666666665
2,21, 1,21, 0, 7,10.00,20.00,Monday
250,23.600082464059177
251,6160189.658222162
336,0.0
385,23.63333333333333
386,25.44999999999999
387,-0.2079745996977942
388,0.0
425,0.0
450,0.0
451,0.0
452,-1.6965293515128275
453,0.0
490,0.0
515,0.0
516,0.0
542,0.0
592,3474291.131331221
632,2670612.7461921424
686,0.7584246436913734
687,0.6666666666666665
688,1.6666666666666663
2,21, 1,21, 0, 7,20.00,30.00,Monday
250,23.83613807126696
251,7349447.313813125
336,0.0
385,24.3
386,25.45
387,-0.2693153106447494
388,0.0
425,0.0
450,0.0
451,0.0
452,-1.8333447557776297
453,0.0
490,0.0
515,0.0
516,0.0
542,0.0
592,4766846.327724971
632,3193419.703369428
686,1.0
687,1.0
688,2.0
2,21, 1,21, 0, 7,30.00,40.00,Monday
250,24.256019359277253
251,8467881.795830902
336,0.0
385,24.30000000000001
386,25.45000000000001
387,-0.33175537715592196
388,0.0
425,0.0
450,0.0
451,0.0
452,-1.9953799755761157
453,0.0
490,0.0
515,0.0
516,0.0
542,0.0
592,4781101.268487233
632,3626065.3580372697
686,1.0000000000000004
687,1.0000000000000004
688,2.000000000000001
2,21, 1,21, 0, 7,40.00,50.00,Monday
250,23.173363215294472
251,6311664.3773026485
336,0.0
385,22.966666666666633
386,25.449999999999964
387,-0.3934884149058431
388,0.0
425,0.0
450,0.0
451,0.0
452,-2.1757792101843005
453,0.0
490,0.0
515,0.0
516,0.0
542,0.0
592,2668462.6264577364
632,3598535.0704434225
686,0.5771512390204391
687,0.49999999999999933
688,1.166666666666665
2,21, 1,21, 0, 7,50.00,60.00,Monday
250,23.600651938280894
251,6209499.675642803
336,0.0
385,23.633333333333354
386,25.450000000000017
387,-0.4662082727930847
388,0.0
425,0.0
450,0.0
451,0.0
452,-2.3954610020559794
453,0.0
490,0.0
515,0.0
516,0.0
542,0.0
592,3541600.7343193903
632,2650048.8863417115
686,0.7614889694251418
687,0.6666666666666672
688,1.6666666666666679
2,21, 1,21, 0, 8, 0.00,10.00,Monday
250,23.836887138550956
251,7008448.791212061
336,0.0
385,24.3
386,25.45
387,-0.552797393538287
388,0.0
425,0.0
450,0.0
451,0.0
452,-2.6594055750647136
453,0.0
490,0.0
515,0.0
516,0.0
542,0.0
592,4835748.122655115
632,2782522.3092618505
686,1.0
687,1.0
688,2.0
2,21, 1,21, 0, 8,10.00,20.00,Monday
250,24.25606382910264
251,8041969.85282121
336,0.0
385,24.3
386,25.45
387,-0.6153725714887226
388,0.0
425,0.0
450,0.0
451,0.0
452,-2.805332327795326
453,0.0
490,0.0
515,0.0
516,0.0
542,0.0
592,4839846.964497664
632,3141163.38406221
686,1.0
687,1.0
688,2.0
2,21, 1,21, 0, 8,20.00,30.00,Monday
250,23.198952356774175
251,5829354.942350243
336,0.0
385,22.966666666666683
386,25.45000000000002
387,-0.6535355943808127
388,0.0
425,0.0
450,0.0
451,0.0
452,-2.8029475454549524
453,0.0
490,0.0
515,0.0
516,0.0
542,0.0
592,2609981.7897380246
632,3164798.738407796
686,0.5524053771555264
687,0.5000000000000004
688,1.1666666666666674
2,21, 1,21, 0, 8,30.00,40.00,Monday
250,23.5905427169199
251,5611613.211676379
336,0.0
385,23.633333333333354
386,25.450000000000017
387,-0.6825034179328113
388,0.0
425,0.0
450,0.0
451,0.0
452,-2.704340648543714
453,0.0
490,0.0
515,0.0
516,0.0
542,0.0
592,3399089.606524532
632,2239064.837036603
686,0.71183846418701
687,0.6666666666666672
688,1.6666666666666679
2,21, 1,21, 0, 8,40.00,50.00,Monday
250,23.824756201956475
251,6754157.810880345
336,0.0
385,24.3
386,25.45
387,-0.701492185971998
388,0.0
425,0.0
450,0.0
451,0.0
452,-2.468907894320608
453,0.0
490,0.0
515,0.0
516,0.0
542,0.0
592,4877938.013639467
632,2497417.6190127176
686,1.0
687,1.0
688,2.0
2,21, 1,21, 0, 8,50.00,60.00,Monday
250,24.2546744200039
251,7758601.958234783
336,0.0
385,24.3
386,25.45
387,-0.6992127660384724
388,0.0
425,0.0
450,0.0
451,0.0
452,-2.1529690316685772
453,0.0
490,0.0
515,0.0
516,0.0
542,0.0
592,4881868.245072939
632,2818895.4052326297
686,1.0
687,1.0
688,2.0
2,21, 1,21, 0, 9, 0.00,10.00,Monday
250,23.22897893519853
251,5237292.2589307055
336,0.0
385,22.966666666666665
386,25.449999999999992
387,-0.6728799514763315
388,0.0
425,0.0
450,0.0
451,0.0
452,-1.7738773859037824
453,0.0
490,0.0
515,0.0
516,0.0
542,0.0
592,2392300.563359604
632,2790264.2043818757
686,0.5212165283432451
687,0.40222544564148777
688,1.1666666666666665
2,21, 1,21, 0, 9,10.00,20.00,Monday
250,24.193343813035867
251,7226909.876861375
336,0.0
385,24.300000000000004
386,25.450000000000003
387,-0.6263546366917824
388,0.0
425,0.0
450,0.0
451,0.0
452,-1.2806296406321058
453,0.0
490,0.0
515,0.0
516,0.0
542,0.0
592,4917786.408922121
632,2406675.2103918013
686,1.0000000000000002
687,1.0000000000000002
688,2.0000000000000004
2,21, 1,21, 0, 9,20.00,30.00,Monday
250,22.995083682500095
251,5211319.813758722
336,0.0
385,22.966666666666658
386,25.44999999999999
387,-0.5638562257801547
388,0.0
425,0.0
450,0.0
451,0.0
452,-0.7269547905440128
453,0.0
490,0.0
515,0.0
516,0.0
542,0.0
592,3291431.750531577
632,1801337.0351053276
686,0.6666666666666664
687,0.6666666666666664
688,1.3333333333333328
2,21, 1,21, 0, 9,30.00,40.00,Monday
250,23.574559015524866
251,4873896.012199416
336,0.0
385,23.633333333333344
386,25.45000000000001
387,-0.4657438713242683
388,0.0
425,0.0
450,0.0
451,0.0
452,0.01843433462530826
453,0.0
490,0.0
515,0.0
516,0.0
542,0.0
592,2887407.5290003344
632,2084100.7228280623
686,0.6802824291369622
687,0.3333333333333332
688,1.3333333333333335
2,21, 1,21, 0, 9,40.00,50.00,Monday
250,23.607259591694675
251,6176836.567605372
336,0.0
385,23.633333333333354
386,25.450000000000017
387,-0.3807114048445723
388,0.0
425,0.0
450,0.0
451,0.0
452,0.6554866154922834
453,0.0
490,0.0
515,0.0
516,0.0
542,0.0
592,2527219.4674463803
632,3643877.6544273454
686,0.5768138739199856
687,0.3333333333333336
688,1.3333333333333344
2,21, 1,21, 0, 9,50.00,60.00,Monday
250,24.230716937078284
251,6837319.693087881
336,0.0
385,24.3
386,25.45
387,-0.30716592621895866
388,0.0
425,0.0
450,0.0
451,0.0
452,1.170542207147196
453,0.0
490,0.0
515,0.0
516,0.0
542,0.0
592,4987886.410218768
632,1848109.426931445
686,1.0
687,1.0
688,2.0
2,21, 1,21, 0,10, 0.00,10.00,Monday
250,23.353478959145693
251,4408064.988895938
336,0.0
385,23.3
386,25.45
387,-0.20669572322905466
388,0.0
425,0.0
450,0.0
451,0.0
452,1.7691007655424753
453,0.0
490,0.0
515,0.0
516,0.0
542,0.0
592,3225092.1228696615
632,913604.9094531023
686,0.6977136788825702
687,0.5
688,1.5
2,21, 1,21, 0,10,10.00,20.00,Monday
250,24.206319780998847
251,7865693.560747437
336,0.0
385,24.3
386,25.45
387,-0.10192851750501546
388,0.0
425,0.0
450,0.0
451,0.0
452,2.3226727175488096
453,0.0
490,0.0
515,0.0
516,0.0
542,0.0
592,4422850.770179586
632,3517882.1437394745
686,1.0
687,0.5537360620378905
688,2.0
2,21, 1,21, 0,10,20.00,30.00,Monday
250,23.345245419176443
251,4387310.210325097
336,0.0
385,23.3
386,25.45
387,0.010102810227629705
388,0.0
425,0.0
450,0.0
451,0.0
452,2.887993794126338
453,0.0
490,0.0
515,0.0
516,0.0
542,0.0
592,3186032.172802187
632,958549.3685840989
686,0.6753520225824813
687,0.5
688,1.5
2,21, 1,21, 0,10,30.00,40.00,Monday
250,23.63994202018323
251,4536472.415965119
336,0.0
385,23.633333333333354
386,25.450000000000017
387,0.10707190346526975
388,0.0
425,0.0
450,0.0
451,0.0
452,3.4026853042397023
453,0.0
490,0.0
515,0.0
516,0.0
542,0.0
592,3277411.7925265194
632,1308151.6011785716
686,0.6666666666666672
687,0.5711293825788887
688,1.3333333333333344
2,21, 1,21, 0,10,40.00,50.00,Monday
250,23.273637374507697
251,4496836.83432496
336,0.0
385,23.1
386,25.45
387,0.21556952656085832
388,0.0
425,0.0
450,0.0
451,0.0
452,3.990915602488193
453,0.0
490,0.0
515,0.0
516,0.0
542,0.0
592,2291998.3657418676
632,2285934.7218826623
686,0.4615413865575108
687,0.4
688,1.0
2,21, 1,21, 0,10,50.00,60.00,Monday
250,23.561477555891745
251,6013135.057159891
336,0.0
385,23.633333333333354
386,25.450000000000017
387,0.34910198992119706
388,0.0
425,0.0
450,0.0
451,0.0
452,4.696267939013139
453,0.0
490,0.0
515,0.0
516,0.0
542,0.0
592,3460598.604703116
632,2680048.2470233184
686,0.796190757321853
687,0.3333333333333336
688,1.3333333333333344
2,21, 1,21, 0,11, 0.00,10.00,Monday
250,23.71059762888465
251,4380824.576629599
336,0.0
385,23.633333333333333
386,25.45
387,0.5603813099080234
388,0.0
425,0.0
450,0.0
451,0.0
452,5.676387018408998
453,0.0
490,0.0
515,0.0
516,0.0
542,0.0
592,3470941.00529301
632,918757.7981282007
686,0.6666666666666666
687,0.6666666666666666
688,1.3333333333333333
2,21, 1,21, 0,11,10.00,20.00,Monday
250,23.311826903604192
251,4174957.4528251775
336,0.0
385,23.1
386,25.45
387,0.7095843643923583
388,0.0
425,0.0
450,0.0
451,0.0
452,6.422713178736421
453,0.0
490,0.0
515,0.0
516,0.0
542,0.0
592,2206247.5931260954
632,2040961.3055690508
686,0.4340488266228429
687,0.39057989083245975
688,1.0
2,21, 1,21, 0,11,20.00,30.00,Monday
250,23.38477866515506
251,4275068.4992473805
336,0.0
385,23.3
386,25.45
387,0.8766459709705572
388,0.0
425,0.0
450,0.0
451,0.0
452,7.262506285405759
453,0.0
490,0.0
515,0.0
516,0.0
542,0.0
592,1833632.4013738227
632,2600790.8139966875
686,0.3881117751551827
687,0.25
688,1.0
2,21, 1,21, 0,11,30.00,40.00,Monday
250,23.417712591488097
251,5126506.266223469
336,0.0
385,23.3
386,25.45
387,1.1391773622672348
388,0.0
425,0.0
450,0.0
451,0.0
452,8.363752201349833
453,0.0
490,0.0
515,0.0
516,0.0
542,0.0
592,3100429.3028468792
632,2021645.211294428
686,0.6235596889889365
687,0.5
688,1.25
2,21, 1,21, 0,11,40.00,50.00,Monday
250,23.422321790297566
251,5058382.507595879
336,0.0
385,23.3
386,25.45
387,1.3811087027264053
388,0.0
425,0.0
450,0.0
451,0.0
452,9.254202482840636
453,0.0
490,0.0
515,0.0
516,0.0
542,0.0
592,3094454.0321329543
632,1955417.9627958678
686,0.6191290397442264
687,0.5
688,1.25
2,21, 1,21, 0,11,50.00,60.00,Monday
250,23.425310042269206
251,5010726.461658523
336,0.0
385,23.3
386,25.45
387,1.6100743571744078
388,0.0
425,0.0
450,0.0
451,0.0
452,10.013819061222367
453,0.0
490,0.0
515,0.0
516,0.0
542,0.0
592,3090732.7937042587
632,1911116.1037579891
686,0.6153093143535087
687,0.5
688,1.25
2,21, 1,21, 0,12, 0.00,10.00,Monday
250,23.42657886707702
251,4983498.007541575
336,0.0
385,23.3
386,25.45
387,1.8293409084933538
388,0.0
425,0.0
450,0.0
451,0.0
452,10.653627178636421
453,0.0
490,0.0
515,0.0
516,0.0
542,0.0
592,3086980.953309763
632,1887353.7966591367
686,0.6132018829694581
687,0.5
688,1.25
2,21, 1,21, 0,12,10.00,20.00,Monday
250,23.4280370381709
251,4960072.408738211
336,0.0
385,23.3
386,25.45
387,2.037344607426981
388,0.0
425,0.0
450,0.0
451,0.0
452,11.155972661570244
453,0.0
490,0.0
515,0.0
516,0.0
542,0.0
592,3083712.7464664984
632,1867139.3964604414
686,0.6112258993363924
687,0.5
688,1.25
2,21, 1,21, 0,12,20.00,30.00,Monday
250,23.42948186518671
251,4932309.948636235
336,0.0
385,23.3
386,25.45
387,2.2302073208063606
388,0.0
425,0.0
450,0.0
451,0.0
452,11.529052733066065
453,0.0
490,0.0
515,0.0
516,0.0
542,0.0
592,3073405.2377343234
632,1850076.322358409
686,0.608730034798829
687,0.4966217499388626
688,1.25
2,21, 1,21, 0,12,30.00,40.00,Monday
250,23.430207649139547
251,4906746.193696815
336,0.0
385,23.3
386,25.45
387,2.40318595665162
388,0.0
425,0.0
450,0.0
451,0.0
452,11.774837422299216
453,0.0
490,0.0
515,0.0
516,0.0
542,0.0
592,3056720.635699845
632,1842074.3749002747
686,0.6060517125795358
687,0.48946104472673924
688,1.25
2,21, 1,21, 0,12,40.00,50.00,Monday
250,23.430650394089575
251,4885538.834926007
336,0.0
385,23.3
386,25.45
387,2.552949319952956
388,0.0
425,0.0
450,0.0
451,0.0
452,11.870373171495402
453,0.0
490,0.0
515,0.0
516,0.0
542,0.0
592,3046884.3805275015
632,1831074.7293506463
686,0.6035351534080182
687,0.48651083906811143
688,1.25
2,21, 1,21, 0,12,50.00,60.00,Monday
250,23.430934531359377
251,4884722.765721772
336,0.0
385,23.3
386,25.45
387,2.6787214120557135
388,0.0
425,0.0
450,0.0
451,0.0
452,11.824418979615345
453,0.0
490,0.0
515,0.0
516,0.0
542,0.0
592,3042441.0681228046
632,1835541.4666824248
686,0.603766636394651
687,0.48012306732875165
688,1.25
2,21, 1,21, 0,13, 0.00,10.00,Monday
250,23.431115561843598
251,4882624.319350453
336,0.0
385,23.3
386,25.45
387,2.783849038308289
388,0.0
425,0.0
450,0.0
451,0.0
452,11.70611504741948
453,0.0
490,0.0
515,0.0
516,0.0
542,0.0
592,3037118.9790506028
632,1839115.6486198788
686,0.6039500489722489
687,0.47751906106906183
688,1.25
2,21, 1,21, 0,13,10.00,20.00,Monday
250,23.434243744468404
251,4839552.6982520465
336,0.0
385,23.3
386,25.45
387,2.8740027842464033
388,0.0
425,0.0
450,0.0
451,0.0
452,11.596706640744706
453,0.0
490,0.0
515,0.0
516,0.0
542,0.0
592,3006401.1965693757
632,1828370.740945044
686,0.6004688138668797
687,0.46732526372242017
688,1.25
2,21, 1,21, 0,13,20.00,30.00,Monday
250,23.43720361625883
251,4785452.896636495
336,0.0
385,23.3
386,25.45
387,2.9543082521838357
388,0.0
425,0.0
450,0.0
451,0.0
452,11.529626623917933
453,0.0
490,0.0
515,0.0
516,0.0
542,0.0
592,2954256.1371836336
632,1829449.1743016583
686,0.5964470430950544
687,0.44413435988771355
688,1.25
2,21, 1,21, 0,13,30.00,40.00,Monday
250,23.440057360811316
251,4731809.504358151
336,0.0
385,23.3
386,25.45
387,3.029745101811371
388,0.0
425,0.0
450,0.0
451,0.0
452,11.495995280856764
453,0.0
490,0.0
515,0.0
516,0.0
542,0.0
592,2902796.8815487213
632,1830268.3927775903
686,0.5924077689787703
687,0.4214040659977749
688,1.25
2,21, 1,21, 0,13,40.00,50.00,Monday
250,23.44286403172212
251,4678574.928249913
336,0.0
385,23.3
386,25.45
387,3.1034086808346255
388,0.0
425,0.0
450,0.0
451,0.0
452,11.479106487496507
453,0.0
490,0.0
515,0.0
516,0.0
542,0.0
592,2852425.350952459
632,1830348.1599547043
686,0.5883428957380601
687,0.3994257834759106
688,1.25
2,21, 1,21, 0,13,50.00,60.00,Monday
250,23.445628484421675
251,4625890.867262456
336,0.0
385,23.3
386,25.45
387,3.175936896856399
388,0.0
425,0.0
450,0.0
451,0.0
452,11.468073568187656
453,0.0
490,0.0
515,0.0
516,0.0
542,0.0
592,2802753.034073163
632,1830255.319664182
686,0.5842991293237487
687,0.37781971605636344
688,1.25
2,21, 1,21, 0,14, 0.00,10.00,Monday
250,23.449501745770583
251,4558264.198514031
336,0.0
385,23.3
386,25.45
387,3.2486813581140472
388,0.0
425,0.0
450,0.0
451,0.0
452,11.426363651052315
453,0.0
490,0.0
515,0.0
516,0.0
542,0.0
592,2747077.144334493
632,1822118.2481142543
686,0.5786692224358541
687,0.35058451444047006
688,1.25
2,21, 1,21, 0,14,10.00,20.00,Monday
250,23.450780321623878
251,4519018.606188523
336,0.0
385,23.3
386,25.45
387,3.3197805373286906
388,0.0
425,0.0
450,0.0
451,0.0
452,11.310391508655847
453,0.0
490,0.0
515,0.0
516,0.0
542,0.0
592,2705578.556819689
632,1827463.9378565666
686,0.5755562280547388
687,0.3265329181905781
688,1.25
2,21, 1,21, 0,14,20.00,30.00,Monday
250,23.452284250379435
251,4489755.86849033
336,0.0
385,23.3
386,25.45
387,3.38472587167735
388,0.0
425,0.0
450,0.0
451,0.0
452,11.119091916960667
453,0.0
490,0.0
515,0.0
516,0.0
542,0.0
592,2681822.072223236
632,1823903.5058600644
686,0.5730676833555797
687,0.3128599399512271
688,1.25
2,21, 1,21, 0,14,30.00,40.00,Monday
250,23.452668681389852
251,4476142.785038655
336,0.0
385,23.3
386,25.45
387,3.4359848693162887
388,0.0
425,0.0
450,0.0
451,0.0
452,10.837489844297487
453,0.0
490,0.0
515,0.0
516,0.0
542,0.0
592,2667585.366750379
632,1825981.6194391777
686,0.5720010765777345
687,0.30196554978699286
688,1.25
2,21, 1,21, 0,14,40.00,50.00,Monday
250,23.45249938015245
251,4473850.558589008
336,0.0
385,23.3
386,25.45
387,3.4673841961097547
388,0.0