Program Version,EnergyPlus, Version 24.2.0-94a887817b, YMD=2025.02.04 17:10
1,5,Environment Title[],Latitude[deg],Longitude[deg],Time Zone[],Elevation[m]
2,8,Day of Simulation[],Month[],Day of Month[],DST Indicator[1=yes 0=no],Hour[],StartMinute[],EndMinute[],DayType
3,5,Cumulative Day of Simulation[],Month[],Day of Month[],DST Indicator[1=yes 0=no],DayType  ! When Daily Meters Requested
4,2,Cumulative Days of Simulation[],Month[]  ! When Monthly Meters Requested
5,1,Cumulative Days of Simulation[] ! When Run Period Meters Requested
6,1,Calendar Year of Simulation[] ! When Annual Meters Requested
11,9,Electricity:Facility [J] !Monthly [Value,Min,Day,Hour,Minute,Max,Day,Hour,Minute]
23,9,Electricity:Building [J] !Monthly [Value,Min,Day,Hour,Minute,Max,Day,Hour,Minute]
59,9,InteriorLights:Electricity [J] !Monthly [Value,Min,Day,Hour,Minute,Max,Day,Hour,Minute]
521,9,Electricity:HVAC [J] !Monthly [Value,Min,Day,Hour,Minute,Max,Day,Hour,Minute]
637,9,NaturalGas:Facility [J] !Monthly [Value,Min,Day,Hour,Minute,Max,Day,Hour,Minute]
649,9,NaturalGas:HVAC [J] !Monthly [Value,Min,Day,Hour,Minute,Max,Day,Hour,Minute]
13,11,Electricity:Facility [J] !RunPeriod [Value,Min,Month,Day,Hour,Minute,Max,Month,Day,Hour,Minute]
25,11,Electricity:Building [J] !RunPeriod [Value,Min,Month,Day,Hour,Minute,Max,Month,Day,Hour,Minute]
61,11,InteriorLights:Electricity [J] !RunPeriod [Value,Min,Month,Day,Hour,Minute,Max,Month,Day,Hour,Minute]
523,11,Electricity:HVAC [J] !RunPeriod [Value,Min,Month,Day,Hour,Minute,Max,Month,Day,Hour,Minute]
639,11,NaturalGas:Facility [J] !RunPeriod [Value,Min,Month,Day,Hour,Minute,Max,Month,Day,Hour,Minute]
651,11,NaturalGas:HVAC [J] !RunPeriod [Value,Min,Month,Day,Hour,Minute,Max,Month,Day,Hour,Minute]
End of Data Dictionary
1,YEARSIMULATION,  41.98, -87.92,  -6.00, 201.00
4,31, 1
11,9202651445.93501,345688.5162302659,11,20,10,3507511.8726175195,23,14,10
23,1853495855.6653247,109731.09310530478,11,20,50,1014315.153180301,30,13,60
59,951378549.0750533,29418.013267627357, 1, 1,10,588360.265352547, 1, 8,10
521,7349155590.269722,0.0,11,14,10,2578343.3771823416,27,19,50
637,16994311485.195763,0.0, 1,10,60,20849718.338229373,31, 7,60
649,16994311485.195763,0.0, 1,10,60,20849718.338229373,31, 7,60
4,59, 2
11,7638521794.99583,249402.65679793255,11,14,60,-99999999999999.0,23,14,10
23,1635514454.012267,99999999999999.0,11,20,50,-99999999999999.0,30,13,60
59,831706071.1023494,99999999999999.0, 1, 1,10,-99999999999999.0, 1, 8,10
521,6003007340.983556,99999999999999.0,11,14,10,2615115.1402974594, 5, 2,10
637,13757762263.148754,99999999999999.0, 1,10,60,21421878.023945387, 3, 8,30
649,13757762263.148754,99999999999999.0, 1,10,60,21421878.023945387, 3, 8,30
4,90, 3
11,7603349065.950478,98154.79388822048,31,16,40,-99999999999999.0,23,14,10
23,1777074059.054374,95721.15011116958,31,16,50,-99999999999999.0,30,13,60
59,915723916.9946886,99999999999999.0, 1, 1,10,-99999999999999.0, 1, 8,10
521,5826275006.896079,99999999999999.0,11,14,10,-99999999999999.0, 5, 2,10
637,10376059130.431196,99999999999999.0, 1,10,60,-99999999999999.0, 3, 8,30
649,10376059130.431196,99999999999999.0, 1,10,60,-99999999999999.0, 3, 8,30
4,120, 4
11,4515778121.845726,29418.013267627357,12,19,20,-99999999999999.0,23,14,10
23,1605748115.3426216,29418.013267627357,11,19,30,-99999999999999.0,30,13,60
59,875833091.0037922,99999999999999.0, 1, 1,10,-99999999999999.0, 1, 8,10
521,2910030006.5031223,99999999999999.0,11,14,10,-99999999999999.0, 5, 2,10
637,4335220560.249216,99999999999999.0, 1,10,60,-99999999999999.0, 3, 8,30
649,4335220560.249216,99999999999999.0, 1,10,60,-99999999999999.0, 3, 8,30
4,151, 5
11,3234588114.104565,99999999999999.0,12,19,20,-99999999999999.0,23,14,10
23,1636764695.9483066,99999999999999.0,11,19,30,-99999999999999.0,30,13,60
59,951378549.0750533,99999999999999.0, 1, 1,10,-99999999999999.0, 1, 8,10
521,1597823418.1562657,99999999999999.0,11,14,10,-99999999999999.0, 5, 2,10
637,1070887029.5394323,99999999999999.0, 1,10,60,-99999999999999.0, 3, 8,30
649,1070887029.5394323,99999999999999.0, 1,10,60,-99999999999999.0, 3, 8,30
4,181, 6
11,3011526535.3270283,99999999999999.0,12,19,20,-99999999999999.0,23,14,10
23,1435409334.767493,99999999999999.0,11,19,30,-99999999999999.0,30,13,60
59,875833091.003791,99999999999999.0, 1, 1,10,-99999999999999.0, 1, 8,10
521,1576117200.5595162,99999999999999.0,11,14,10,-99999999999999.0, 5, 2,10
637,66354457.25546168,99999999999999.0, 1,10,60,-99999999999999.0, 3, 8,30
649,66354457.25546168,99999999999999.0, 1,10,60,-99999999999999.0, 3, 8,30
4,212, 7
11,3667081147.6553416,99999999999999.0,12,19,20,-99999999999999.0,23,14,10
23,1432155554.0043092,99999999999999.0,11,19,30,-99999999999999.0,30,13,60
59,915723916.994692,99999999999999.0, 1, 1,10,-99999999999999.0, 1, 8,10
521,2234925593.651032,99999999999999.0,11,14,10,-99999999999999.0, 5, 2,10
637,1379414.747095157,99999999999999.0, 1,10,60,-99999999999999.0, 3, 8,30
649,1379414.747095157,99999999999999.0, 1,10,60,-99999999999999.0, 3, 8,30
4,243, 8
11,3369389949.0333157,99999999999999.0,12,19,20,-99999999999999.0,23,14,10
23,1516005309.8647037,99999999999999.0,11,19,30,-99999999999999.0,30,13,60
59,951378549.0750492,99999999999999.0, 1, 1,10,-99999999999999.0, 1, 8,10
521,1853384639.1686206,99999999999999.0,11,14,10,-99999999999999.0, 5, 2,10
637,19309475.576549623,99999999999999.0, 1,10,60,-99999999999999.0, 3, 8,30
649,19309475.576549623,99999999999999.0, 1,10,60,-99999999999999.0, 3, 8,30
4,273, 9
11,2636377978.825797,99999999999999.0,12,19,20,-99999999999999.0,23,14,10
23,1408263371.9155664,99999999999999.0,11,19,30,-99999999999999.0,30,13,60
59,840178458.9234303,99999999999999.0, 1, 1,10,-99999999999999.0, 1, 8,10
521,1228114606.9102318,99999999999999.0,11,14,10,-99999999999999.0, 5, 2,10
637,82566640.40606995,99999999999999.0, 1,10,60,-99999999999999.0, 3, 8,30
649,82566640.40606995,99999999999999.0, 1,10,60,-99999999999999.0, 3, 8,30
4,304,10
11,3631024489.0560093,99999999999999.0,12,19,20,-99999999999999.0,23,14,10
23,1684497272.423636,99999999999999.0,11,19,30,-99999999999999.0,30,13,60
59,951378549.0750533,99999999999999.0, 1, 1,10,-99999999999999.0, 1, 8,10
521,1946527216.6323824,99999999999999.0,11,14,10,-99999999999999.0, 5, 2,10
637,2352621686.0091934,99999999999999.0, 1,10,60,-99999999999999.0, 3, 8,30
649,2352621686.0091934,99999999999999.0, 1,10,60,-99999999999999.0, 3, 8,30
4,334,11
11,6365246817.764422,99999999999999.0,12,19,20,-99999999999999.0,23,14,10
23,1713701188.6910124,99999999999999.0,11,19,30,-99999999999999.0,30,13,60
59,911487723.084149,99999999999999.0, 1, 1,10,-99999999999999.0, 1, 8,10
521,4651545629.073432,99999999999999.0,11,14,10,-99999999999999.0, 5, 2,10
637,8577430335.100855,99999999999999.0, 1,10,60,-99999999999999.0, 3, 8,30
649,8577430335.100855,99999999999999.0, 1,10,60,-99999999999999.0, 3, 8,30
4,365,12
11,7974335782.731483,99999999999999.0,12,19,20,3520553.0158883813,18,11,60
23,1700739064.0911186,99999999999999.0,11,19,30,-99999999999999.0,30,13,60
59,880069284.9143301,99999999999999.0, 1, 1,10,-99999999999999.0, 1, 8,10
521,6273596718.640371,99999999999999.0,11,14,10,-99999999999999.0, 5, 2,10
637,10431365122.885832,99999999999999.0, 1,10,60,-99999999999999.0, 3, 8,30
649,10431365122.885832,99999999999999.0, 1,10,60,-99999999999999.0, 3, 8,30
5,365
13,62849871243.22516,29418.013267627357, 4,12,19,20,3520553.0158883813,12,18,11,60
25,19399368275.77852,29418.013267627357, 4,11,19,30,1014315.153180301, 1,30,13,60
61,10852069750.315596,29418.013267627357, 1, 1, 1,10,588360.265352547, 1, 1, 8,10
523,43450502967.44445,0.0, 1,11,14,10,2615115.1402974594, 2, 5, 2,10
639,68065267600.545876,0.0, 1, 1,10,60,21421878.023945387, 2, 3, 8,30
651,68065267600.545876,0.0, 1, 1,10,60,21421878.023945387, 2, 3, 8,30
End of Data
 Number of Records Written=          78
