Program Version,EnergyPlus, Version 24.2.0-94a887817b, YMD=2025.02.11 00:15
1,5,Environment Title[],Latitude[deg],Longitude[deg],Time Zone[],Elevation[m]
2,8,Day of Simulation[],Month[],Day of Month[],DST Indicator[1=yes 0=no],Hour[],StartMinute[],EndMinute[],DayType
3,5,Cumulative Day of Simulation[],Month[],Day of Month[],DST Indicator[1=yes 0=no],DayType  ! When Daily Meters Requested
4,2,Cumulative Days of Simulation[],Month[]  ! When Monthly Meters Requested
5,1,Cumulative Days of Simulation[] ! When Run Period Meters Requested
6,1,Calendar Year of Simulation[] ! When Annual Meters Requested
11,9,Electricity:Facility [J] !Monthly [Value,Min,Day,Hour,Minute,Max,Day,Hour,Minute]
23,9,Electricity:Building [J] !Monthly [Value,Min,Day,Hour,Minute,Max,Day,Hour,Minute]
59,9,InteriorLights:Electricity [J] !Monthly [Value,Min,Day,Hour,Minute,Max,Day,Hour,Minute]
521,9,Electricity:HVAC [J] !Monthly [Value,Min,Day,Hour,Minute,Max,Day,Hour,Minute]
637,9,NaturalGas:Facility [J] !Monthly [Value,Min,Day,Hour,Minute,Max,Day,Hour,Minute]
649,9,NaturalGas:HVAC [J] !Monthly [Value,Min,Day,Hour,Minute,Max,Day,Hour,Minute]
13,11,Electricity:Facility [J] !RunPeriod [Value,Min,Month,Day,Hour,Minute,Max,Month,Day,Hour,Minute]
25,11,Electricity:Building [J] !RunPeriod [Value,Min,Month,Day,Hour,Minute,Max,Month,Day,Hour,Minute]
61,11,InteriorLights:Electricity [J] !RunPeriod [Value,Min,Month,Day,Hour,Minute,Max,Month,Day,Hour,Minute]
523,11,Electricity:HVAC [J] !RunPeriod [Value,Min,Month,Day,Hour,Minute,Max,Month,Day,Hour,Minute]
639,11,NaturalGas:Facility [J] !RunPeriod [Value,Min,Month,Day,Hour,Minute,Max,Month,Day,Hour,Minute]
651,11,NaturalGas:HVAC [J] !RunPeriod [Value,Min,Month,Day,Hour,Minute,Max,Month,Day,Hour,Minute]
End of Data Dictionary
1,RUN PERIOD 1,  41.98, -87.92,  -6.00, 201.00
4,31, 1
11,8642250695.171022,363264.5850452905,11,21,20,3507702.893697321,14,13,20
23,1899673800.919601,105337.1994786259,11,20,50,1053487.73643652,31,14,30
59,964049375.7593395,29809.813721687453, 1, 1,10,596196.274433749, 1, 8,10
521,6742576894.251442,0.0,11,13,50,2562098.646938838,27,20,20
637,15703857363.673904,0.0, 1,10,60,19451332.096606288,31, 7,30
649,15703857363.673904,0.0, 1,10,60,19451332.096606288,31, 7,30
4,59, 2
11,7134174125.547463,269312.53556131024, 9,15,50,3517596.2519266796,26,10,30
23,1675385442.7841775,99999999999999.0,11,20,50,-99999999999999.0,31,14,30
59,842783053.5395321,99999999999999.0, 1, 1,10,-99999999999999.0, 1, 8,10
521,5458788682.763283,99999999999999.0,11,13,50,-99999999999999.0,27,20,20
637,12606907276.581411,99999999999999.0, 1,10,60,20431445.435694106, 3, 7,60
649,12606907276.581411,99999999999999.0, 1,10,60,20431445.435694106, 3, 7,60
4,90, 3
11,7052046099.576038,92003.99794812629,31,16,60,-99999999999999.0,26,10,30
23,1766670934.163009,92003.99794812629,31,16,60,1062986.2014731788,18, 9,60
59,891790387.2979745,99999999999999.0, 1, 1,10,-99999999999999.0, 1, 8,10
521,5285375165.413022,99999999999999.0,11,13,50,-99999999999999.0,27,20,20
637,9169551702.44095,99999999999999.0, 1,10,60,-99999999999999.0, 3, 7,60
649,9169551702.44095,99999999999999.0, 1,10,60,-99999999999999.0, 3, 7,60
4,120, 4
11,4164146642.149364,29809.813721687453, 5, 3,50,-99999999999999.0,26,10,30
23,1708351773.5521681,29809.813721687453, 5, 2,60,-99999999999999.0,18, 9,60
59,923627268.3527342,99999999999999.0, 1, 1,10,-99999999999999.0, 1, 8,10
521,2455794868.5971894,99999999999999.0,11,13,50,-99999999999999.0,27,20,20
637,3612003447.078531,99999999999999.0, 1,10,60,-99999999999999.0, 3, 7,60
649,3612003447.078531,99999999999999.0, 1,10,60,-99999999999999.0, 3, 7,60
4,151, 5
11,2971002668.602258,99999999999999.0, 5, 3,50,-99999999999999.0,26,10,30
23,1701511943.2383723,99999999999999.0, 5, 2,60,-99999999999999.0,18, 9,60
59,964049375.7593396,99999999999999.0, 1, 1,10,-99999999999999.0, 1, 8,10
521,1269490725.3638663,99999999999999.0,11,13,50,-99999999999999.0,27,20,20
637,808680795.5272155,99999999999999.0, 1,10,60,-99999999999999.0, 3, 7,60
649,808680795.5272155,99999999999999.0, 1,10,60,-99999999999999.0, 3, 7,60
4,181, 6
11,2804176486.870487,99999999999999.0, 5, 3,50,-99999999999999.0,26,10,30
23,1446908329.166658,99999999999999.0, 5, 2,60,-99999999999999.0,18, 9,60
59,851368279.8913693,99999999999999.0, 1, 1,10,-99999999999999.0, 1, 8,10
521,1357268157.7038062,99999999999999.0,11,13,50,-99999999999999.0,27,20,20
637,32111299.23543265,99999999999999.0, 1,10,60,-99999999999999.0, 3, 7,60
649,32111299.23543265,99999999999999.0, 1,10,60,-99999999999999.0, 3, 7,60
4,212, 7
11,3633911657.0942273,99999999999999.0, 5, 3,50,-99999999999999.0,26,10,30
23,1564228021.4202158,99999999999999.0, 5, 2,60,-99999999999999.0,18, 9,60
59,964049375.7593395,99999999999999.0, 1, 1,10,-99999999999999.0, 1, 8,10
521,2069683635.6739712,99999999999999.0,11,13,50,-99999999999999.0,27,20,20
637,0.0,99999999999999.0, 1,10,60,-99999999999999.0, 3, 7,60
649,0.0,99999999999999.0, 1,10,60,-99999999999999.0, 3, 7,60
4,243, 8
11,3166268087.0563803,99999999999999.0, 5, 3,50,-99999999999999.0,26,10,30
23,1540726931.1435924,99999999999999.0, 5, 2,60,-99999999999999.0,18, 9,60
59,927919881.5286701,99999999999999.0, 1, 1,10,-99999999999999.0, 1, 8,10
521,1625541155.912775,99999999999999.0,11,13,50,-99999999999999.0,27,20,20
637,6201871.5318395365,99999999999999.0, 1,10,60,-99999999999999.0, 3, 7,60
649,6201871.5318395365,99999999999999.0, 1,10,60,-99999999999999.0, 3, 7,60
4,273, 9
11,2525298904.480667,99999999999999.0, 5, 3,50,-99999999999999.0,26,10,30
23,1524164959.1707087,99999999999999.0, 5, 2,60,-99999999999999.0,18, 9,60
59,887497774.1220518,99999999999999.0, 1, 1,10,-99999999999999.0, 1, 8,10
521,1001133945.309951,99999999999999.0,11,13,50,-99999999999999.0,27,20,20
637,50143645.417634904,99999999999999.0, 1,10,60,-99999999999999.0, 3, 7,60
649,50143645.417634904,99999999999999.0, 1,10,60,-99999999999999.0, 3, 7,60
4,304,10
11,3294722449.547734,99999999999999.0, 5, 3,50,-99999999999999.0,26,10,30
23,1739133745.7916765,99999999999999.0, 5, 2,60,-99999999999999.0,18, 9,60
59,964049375.7593395,99999999999999.0, 1, 1,10,-99999999999999.0, 1, 8,10
521,1555588703.7560475,99999999999999.0,11,13,50,-99999999999999.0,27,20,20
637,1827479262.1060781,99999999999999.0, 1,10,60,-99999999999999.0, 3, 7,60
649,1827479262.1060781,99999999999999.0, 1,10,60,-99999999999999.0, 3, 7,60
4,334,11
11,5870015368.3864975,99999999999999.0, 5, 3,50,-99999999999999.0,26,10,30
23,1703889252.221776,99999999999999.0, 5, 2,60,-99999999999999.0,18, 9,60
59,887497774.1220559,99999999999999.0, 1, 1,10,-99999999999999.0, 1, 8,10
521,4166126116.164714,99999999999999.0,11,13,50,-99999999999999.0,27,20,20
637,7700568340.8748455,99999999999999.0, 1,10,60,-99999999999999.0, 3, 7,60
649,7700568340.8748455,99999999999999.0, 1,10,60,-99999999999999.0, 3, 7,60
4,365,12
11,7371516942.629241,99999999999999.0, 5, 3,50,-99999999999999.0,26,10,30
23,1796600659.9658666,99999999999999.0, 5, 2,60,-99999999999999.0,18, 9,60
59,927919881.5286571,99999999999999.0, 1, 1,10,-99999999999999.0, 1, 8,10
521,5574916282.663359,99999999999999.0,11,13,50,-99999999999999.0,27,20,20
637,9580859260.014952,99999999999999.0, 1,10,60,-99999999999999.0, 3, 7,60
649,9580859260.014952,99999999999999.0, 1,10,60,-99999999999999.0, 3, 7,60
5,365
13,58629530127.11135,29809.813721687453, 4, 5, 3,50,3517596.2519266796, 2,26,10,30
25,20067245793.538403,29809.813721687453, 4, 5, 2,60,1062986.2014731788, 3,18, 9,60
61,10996601803.426281,29809.813721687453, 1, 1, 1,10,596196.274433749, 1, 1, 8,10
523,38562284333.57347,0.0, 1,11,13,50,2562098.646938838, 1,27,20,20
639,61098364264.48255,0.0, 1, 1,10,60,20431445.435694106, 2, 3, 7,60
651,61098364264.48255,0.0, 1, 1,10,60,20431445.435694106, 2, 3, 7,60
1,RUN PERIOD 2,  41.98, -87.92,  -6.00, 201.00
4,1, 7
11,111153556.2620533,99999999999999.0, 5, 3,50,-99999999999999.0,26,10,30
23,65705198.47075866,99999999999999.0, 5, 2,60,-99999999999999.0,18, 9,60
59,40422107.40660817,99999999999999.0, 1, 1,10,-99999999999999.0, 1, 8,10
521,45448357.79129464,99999999999999.0,11,13,50,-99999999999999.0,27,20,20
637,0.0,99999999999999.0, 1,10,60,-99999999999999.0, 3, 7,60
649,0.0,99999999999999.0, 1,10,60,-99999999999999.0, 3, 7,60
5,1
13,111153556.2620533,99999999999999.0, 4, 5, 3,50,-99999999999999.0, 2,26,10,30
25,65705198.47075866,99999999999999.0, 4, 5, 2,60,-99999999999999.0, 3,18, 9,60
61,40422107.40660817,99999999999999.0, 1, 1, 1,10,-99999999999999.0, 1, 1, 8,10
523,45448357.79129464,99999999999999.0, 1,11,13,50,-99999999999999.0, 1,27,20,20
639,0.0,99999999999999.0, 1, 1,10,60,-99999999999999.0, 2, 3, 7,60
651,0.0,99999999999999.0, 1, 1,10,60,-99999999999999.0, 2, 3, 7,60
End of Data
 Number of Records Written=          90
