Program Version,EnergyPlus, Version 24.2.0-94a887817b, YMD=2025.02.12 11:47
1,5,Environment Title[],Latitude[deg],Longitude[deg],Time Zone[],Elevation[m]
2,8,Day of Simulation[],Month[],Day of Month[],DST Indicator[1=yes 0=no],Hour[],StartMinute[],EndMinute[],DayType
3,5,Cumulative Day of Simulation[],Month[],Day of Month[],DST Indicator[1=yes 0=no],DayType  ! When Daily Report Variables Requested
4,2,Cumulative Days of Simulation[],Month[]  ! When Monthly Report Variables Requested
5,1,Cumulative Days of Simulation[] ! When Run Period Report Variables Requested
6,1,Calendar Year of Simulation[] ! When Annual Report Variables Requested
250,1,LIVING ZONE,Zone Air Temperature [C] !TimeStep,REPORTSCH
251,1,LIVING ZONE,Zone Air System Sensible Heating Energy [J] !TimeStep,REPORTSCH
336,1,LIVING ZONE,Zone Air System Sensible Cooling Energy [J] !TimeStep,REPORTSCH
385,1,LIVING ZONE,Zone Thermostat Heating Setpoint Temperature [C] !TimeStep,REPORTSCH
386,1,LIVING ZONE,Zone Thermostat Cooling Setpoint Temperature [C] !TimeStep,REPORTSCH
387,1,GARAGE ZONE,Zone Air Temperature [C] !TimeStep,REPORTSCH
388,1,GARAGE ZONE,Zone Air System Sensible Heating Energy [J] !TimeStep,REPORTSCH
425,1,GARAGE ZONE,Zone Air System Sensible Cooling Energy [J] !TimeStep,REPORTSCH
450,1,GARAGE ZONE,Zone Thermostat Heating Setpoint Temperature [C] !TimeStep,REPORTSCH
451,1,GARAGE ZONE,Zone Thermostat Cooling Setpoint Temperature [C] !TimeStep,REPORTSCH
452,1,ATTIC ZONE,Zone Air Temperature [C] !TimeStep,REPORTSCH
453,1,ATTIC ZONE,Zone Air System Sensible Heating Energy [J] !TimeStep,REPORTSCH
490,1,ATTIC ZONE,Zone Air System Sensible Cooling Energy [J] !TimeStep,REPORTSCH
515,1,ATTIC ZONE,Zone Thermostat Heating Setpoint Temperature [C] !TimeStep,REPORTSCH
516,1,ATTIC ZONE,Zone Thermostat Cooling Setpoint Temperature [C] !TimeStep,REPORTSCH
542,1,ACDXCOIL 1,Cooling Coil Total Cooling Energy [J] !TimeStep,REPORTSCH
592,1,HEAT PUMP DX HEATING COIL 1,Heating Coil Heating Energy [J] !TimeStep,REPORTSCH
632,1,SUPP HEATING COIL 1,Heating Coil Heating Energy [J] !TimeStep,REPORTSCH
686,1,TWOSPEED HEAT PUMP 1,Unitary System DX Coil Cycling Ratio [] !TimeStep,REPORTSCH
687,1,TWOSPEED HEAT PUMP 1,Unitary System DX Coil Speed Ratio [] !TimeStep,REPORTSCH
688,1,TWOSPEED HEAT PUMP 1,Unitary System DX Coil Speed Level [] !TimeStep,REPORTSCH
End of Data Dictionary
1,RUN PERIOD 1,  41.98, -87.92,  -6.00, 201.00
2,21, 1,21, 0, 1, 0.00,10.00,Monday
250,23.422954627062687
251,5793335.0920086205
336,0.0
385,23.46333333333333
386,26.25
387,0.6391081193703387
388,0.0
425,0.0
450,0.0
451,0.0
452,-1.6105564868629871
453,0.0
490,0.0
515,0.0
516,0.0
542,0.0
592,3453079.3916012268
632,2301250.7176164743
686,0.7240432391782945
687,0.6666666666666666
688,1.6666666666666665
2,21, 1,21, 0, 1,10.00,20.00,Monday
250,23.65983744872548
251,7034352.319760242
336,0.0
385,24.13
386,26.25
387,0.6069446580224204
388,0.0
425,0.0
450,0.0
451,0.0
452,-1.5978389284675707
453,0.0
490,0.0
515,0.0
516,0.0
542,0.0
592,4863050.857331238
632,2714380.2395171258
686,1.0
687,1.0
688,2.0
2,21, 1,21, 0, 1,20.00,30.00,Monday
250,24.085355696056016
251,8147309.913788618
336,0.0
385,24.13
386,26.25
387,0.5794261546983874
388,0.0
425,0.0
450,0.0
451,0.0
452,-1.5890995913882247
453,0.0
490,0.0
515,0.0
516,0.0
542,0.0
592,4844477.046506858
632,3167124.384036527
686,1.0
687,1.0
688,2.0
2,21, 1,21, 0, 1,30.00,40.00,Monday
250,23.020499312680723
251,5998205.021397366
336,0.0
385,22.796666666666653
386,26.24999999999998
387,0.5568545770949919
388,0.0
425,0.0
450,0.0
451,0.0
452,-1.5844616152024504
453,0.0
490,0.0
515,0.0
516,0.0
542,0.0
592,2621829.0534769823
632,3282812.830874407
686,0.5592459612586257
687,0.49999999999999967
688,1.1666666666666659
2,21, 1,21, 0, 1,40.00,50.00,Monday
250,23.42440545916254
251,5861120.398250206
336,0.0
385,23.463333333333352
386,26.25000000000002
387,0.5330313316777238
388,0.0
425,0.0
450,0.0
451,0.0
452,-1.581099716605526
453,0.0
490,0.0
515,0.0
516,0.0
542,0.0
592,3428538.4582137535
632,2387125.1152310777
686,0.7298810016439912
687,0.6666666666666672
688,1.6666666666666679
2,21, 1,21, 0, 1,50.00,60.00,Monday
250,23.66165182864478
251,7104967.942440995
336,0.0
385,24.13
386,26.25
387,0.5043673951765087
388,0.0
425,0.0
450,0.0
451,0.0
452,-1.578547278537604
453,0.0
490,0.0
515,0.0
516,0.0
542,0.0
592,4799742.696653379
632,2847334.6167573906
686,1.0
687,1.0
688,2.0
2,21, 1,21, 0, 2, 0.00,10.00,Monday
250,24.085568201670306
251,8201937.430120121
336,0.0
385,24.13
386,26.25
387,0.47900831730746285
388,0.0
425,0.0
450,0.0
451,0.0
452,-1.5785934332635283
453,0.0
490,0.0
515,0.0
516,0.0
542,0.0
592,4797025.27600521
632,3268759.500325501
686,1.0
687,1.0
688,2.0
2,21, 1,21, 0, 2,10.00,20.00,Monday
250,23.018490301766004
251,6037477.434664496
336,0.0
385,22.796666666666663
386,26.25
387,0.45745394150058843
388,0.0
425,0.0
450,0.0
451,0.0
452,-1.582581716635751
453,0.0
490,0.0
515,0.0
516,0.0
542,0.0
592,2612639.188799729
632,3331876.552778655
686,0.5615521332978395
687,0.5
688,1.1666666666666665
2,21, 1,21, 0, 2,20.00,30.00,Monday
250,23.424840012366815
251,5889804.261771515
336,0.0
385,23.463333333333324
386,26.24999999999999
387,0.4342547303766797
388,0.0
425,0.0
450,0.0
451,0.0
452,-1.590148320845263
453,0.0
490,0.0
515,0.0
516,0.0
542,0.0
592,3425058.345792548
632,2417290.8938156352
686,0.7321302174188318
687,0.6666666666666664
688,1.666666666666666
2,21, 1,21, 0, 2,30.00,40.00,Monday
250,23.662335353843456
251,7117815.0635300195
336,0.0
385,24.129999999999992
386,26.249999999999993
387,0.40581078932738807
388,0.0
425,0.0
450,0.0
451,0.0
452,-1.6024155686790649
453,0.0
490,0.0
515,0.0
516,0.0
542,0.0
592,4799742.5124787195
632,2859862.7355695777
686,0.9999999999999997
687,0.9999999999999997
688,1.9999999999999993
2,21, 1,21, 0, 2,40.00,50.00,Monday
250,24.08564118479962
251,8213473.33505495
336,0.0
385,24.13
386,26.25
387,0.38026290629901993
388,0.0
425,0.0
450,0.0
451,0.0
452,-1.6162749740313367
453,0.0
490,0.0
515,0.0
516,0.0
542,0.0
592,4797025.27600521
632,3280134.224686641
686,1.0
687,1.0
688,2.0
2,21, 1,21, 0, 2,50.00,60.00,Monday
250,23.018035314490582
251,6046307.190071959
336,0.0
385,22.796666666666635
386,26.24999999999996
387,0.35820696419068304
388,0.0
425,0.0
450,0.0
451,0.0
452,-1.6314956369779945
453,0.0
490,0.0
515,0.0
516,0.0
542,0.0
592,2614228.8936803946
632,3339266.5656793434
686,0.5620111608364228
687,0.49999999999999933
688,1.166666666666665
2,21, 1,21, 0, 3, 0.00,10.00,Monday
250,23.425183152935098
251,5910792.380088888
336,0.0
385,23.46333333333333
386,26.25
387,0.3348320839421246
388,0.0
425,0.0
450,0.0
451,0.0
452,-1.647375226098665
453,0.0
490,0.0
515,0.0
516,0.0
542,0.0
592,3430384.0767198713
632,2431422.650736862
686,0.7336688459756245
687,0.6666666666666666
688,1.6666666666666665
2,21, 1,21, 0, 3,10.00,20.00,Monday
250,23.66302757576756
251,7149619.267959419
336,0.0
385,24.13
386,26.25
387,0.306915816179961
388,0.0
425,0.0
450,0.0
451,0.0
452,-1.6620711493120517
453,0.0
490,0.0
515,0.0
516,0.0
542,0.0
592,4799742.381573035
632,2891552.5119626867
686,1.0
687,1.0
688,2.0
2,21, 1,21, 0, 3,20.00,30.00,Monday
250,24.085734334223687
251,8254999.75941476
336,0.0
385,24.13
386,26.25
387,0.28294536706014184
388,0.0
425,0.0
450,0.0
451,0.0
452,-1.668249590694899
453,0.0
490,0.0
515,0.0
516,0.0
542,0.0
592,4797025.27600521
632,3321491.7522600163
686,1.0
687,1.0
688,2.0
2,21, 1,21, 0, 3,30.00,40.00,Monday
250,23.015335852753005
251,6097639.436026588
336,0.0
385,22.796666666666653
386,26.24999999999998
387,0.26358311868145934
388,0.0
425,0.0
450,0.0
451,0.0
452,-1.66733210666401
453,0.0
490,0.0
515,0.0
516,0.0
542,0.0
592,2623205.6670287815
632,3382505.33701206
686,0.5646031940000203
687,0.49999999999999967
688,1.1666666666666659
2,21, 1,21, 0, 3,40.00,50.00,Monday
250,23.426029813423106
251,5965309.847687559
336,0.0
385,23.463333333333352
386,26.25000000000002
387,0.24366862952397697
388,0.0
425,0.0
450,0.0
451,0.0
452,-1.6630814310467492
453,0.0
490,0.0
515,0.0
516,0.0
542,0.0
592,3444917.7754608784
632,2467462.6754075037
686,0.7378673154009426
687,0.6666666666666672
688,1.6666666666666679
2,21, 1,21, 0, 3,50.00,60.00,Monday
250,23.66430665293406
251,7198885.420340226
336,0.0
385,24.13
386,26.25
387,0.2203025449366735
388,0.0
425,0.0
450,0.0
451,0.0
452,-1.6544403005225818
453,0.0
490,0.0
515,0.0
516,0.0
542,0.0
592,4799741.993791013
632,2940029.468226577
686,1.0
687,1.0
688,2.0
2,21, 1,21, 0, 4, 0.00,10.00,Monday
250,24.085917482394553
251,8371803.3586754445
336,0.0
385,24.13
386,26.25
387,0.1961206078655967
388,0.0
425,0.0
450,0.0
451,0.0
452,-1.6458516342715348
453,0.0
490,0.0
515,0.0
516,0.0
542,0.0
592,4792145.574879368
632,3442852.5387526923
686,1.0
687,1.0
688,2.0
2,21, 1,21, 0, 4,10.00,20.00,Monday
250,23.005661860589598
251,6280746.455872457
336,0.0
385,22.796666666666663
386,26.25
387,0.17137385793818408
388,0.0
425,0.0
450,0.0
451,0.0
452,-1.6399952502691588
453,0.0
490,0.0
515,0.0
516,0.0
542,0.0
592,2650168.534942939
632,3541814.36523777
686,0.5739712693567791
687,0.5
688,1.1666666666666665
2,21, 1,21, 0, 4,20.00,30.00,Monday
250,23.430550092193947
251,6234627.945709126
336,0.0
385,23.463333333333324
386,26.24999999999999
387,0.14272280878860188
388,0.0
425,0.0
450,0.0
451,0.0
452,-1.6368394739456935
453,0.0
490,0.0
515,0.0
516,0.0
542,0.0
592,3509512.3595582126
632,2650968.5938353185
686,0.759816794835363
687,0.6666666666666664
688,1.666666666666666
2,21, 1,21, 0, 4,30.00,40.00,Monday
250,23.670090863063674
251,7512214.912847416
336,0.0
385,24.129999999999992
386,26.249999999999993
387,0.10567287766218682
388,0.0
425,0.0
450,0.0
451,0.0
452,-1.6375319693707377
453,0.0
490,0.0
515,0.0
516,0.0
542,0.0
592,4780607.626143603
632,3267734.4898962346
686,0.9999999999999997
687,0.9999999999999997
688,1.9999999999999993
2,21, 1,21, 0, 4,40.00,50.00,Monday
250,24.08661884654817
251,8692068.442450892
336,0.0
385,24.13
386,26.25
387,0.07120887769016439
388,0.0
425,0.0
450,0.0
451,0.0
452,-1.6437680514853354
453,0.0
490,0.0
515,0.0
516,0.0
542,0.0
592,4771081.634377803
632,3782680.0084393304
686,1.0
687,1.0
688,2.0
2,21, 1,21, 0, 4,50.00,60.00,Monday
250,22.988638908715824
251,6603611.37549194
336,0.0
385,22.796666666666635
386,26.24999999999996
387,0.040162527320566604
388,0.0
425,0.0
450,0.0
451,0.0
452,-1.6539042187156965
453,0.0
490,0.0
515,0.0
516,0.0
542,0.0
592,2695670.982053767
632,3824782.9891477595
686,0.5907097830952104
687,0.49999999999999933
688,1.166666666666665
2,21, 1,21, 0, 5, 0.00,10.00,Monday
250,23.433926820666024
251,6463811.207789814
336,0.0
385,23.46333333333333
386,26.25
387,0.014837180860470051
388,0.0
425,0.0
450,0.0
451,0.0
452,-1.6623268761600265
453,0.0
490,0.0
515,0.0
516,0.0
542,0.0
592,3557494.825607109
632,2815852.4353270703
686,0.7785992745372347
687,0.6666666666666666
688,1.6666666666666665
2,21, 1,21, 0, 5,10.00,20.00,Monday
250,23.67408087497638
251,7598666.526061192
336,0.0
385,24.13
386,26.25
387,-0.007920049085840786
388,0.0
425,0.0
450,0.0
451,0.0
452,-1.6660445471439715
453,0.0
490,0.0
515,0.0
516,0.0
542,0.0
592,4757792.453010062
632,3372492.0764621655
686,1.0
687,1.0
688,2.0
2,21, 1,21, 0, 5,20.00,30.00,Monday
250,24.087012796707423
251,8672169.460847702
336,0.0
385,24.13
386,26.25
387,-0.022075321219532488
388,0.0
425,0.0
450,0.0
451,0.0
452,-1.659781068359082
453,0.0
490,0.0
515,0.0
516,0.0
542,0.0
592,4747356.631969323
632,3785453.9936241535
686,1.0
687,1.0
688,2.0
2,21, 1,21, 0, 5,30.00,40.00,Monday
250,22.995934073989837
251,6466282.798950042
336,0.0
385,22.796666666666653
386,26.24999999999998
387,-0.029171071483464865
388,0.0
425,0.0
450,0.0
451,0.0
452,-1.6444046305965885
453,0.0
490,0.0
515,0.0
516,0.0
542,0.0
592,2659097.0704217
632,3721519.8065399984
686,0.5841285246140123
687,0.49999999999999967
688,1.1666666666666659
2,21, 1,21, 0, 5,40.00,50.00,Monday
250,23.431657185948296
251,6316845.319009139
336,0.0
385,23.463333333333352
386,26.25000000000002
387,-0.03413290357507204
388,0.0
425,0.0
450,0.0
451,0.0
452,-1.621561516996911
453,0.0
490,0.0
515,0.0
516,0.0
542,0.0
592,3497506.891059891
632,2739777.5036073793
686,0.7667129452936803
687,0.6666666666666672
688,1.6666666666666679
2,21, 1,21, 0, 5,50.00,60.00,Monday
250,23.671736193662692
251,7469827.816495964
336,0.0
385,24.13
386,26.25
387,-0.03766503531138804
388,0.0
425,0.0
450,0.0
451,0.0
452,-1.5880948754368422
453,0.0
490,0.0
515,0.0
516,0.0
542,0.0
592,4728164.3205424445
632,3276270.169093136
686,1.0
687,1.0
688,2.0
2,21, 1,21, 0, 6, 0.00,10.00,Monday
250,24.086779434729145
251,8623273.125713926
336,0.0
385,24.13
386,26.25
387,-0.04714483659768957
388,0.0
425,0.0
450,0.0
451,0.0
452,-1.5607950457162332
453,0.0
490,0.0
515,0.0
516,0.0
542,0.0
592,4721419.738568605
632,3763120.611959584
686,1.0
687,1.0
688,2.0
2,21, 1,21, 0, 6,10.00,20.00,Monday
250,22.994010630912697
251,6502588.053603768
336,0.0
385,22.796666666666663
386,26.25
387,-0.06296070938195451
388,0.0
425,0.0
450,0.0
451,0.0
452,-1.547549508254609
453,0.0
490,0.0
515,0.0
516,0.0
542,0.0
592,2653711.2341135377
632,3763798.0015452043
686,0.5863886025586647
687,0.5
688,1.1666666666666665
2,21, 1,21, 0, 6,20.00,30.00,Monday
250,23.43406498005251
251,6448080.249636476
336,0.0
385,23.463333333333324
386,26.24999999999999
387,-0.08397048709352896
388,0.0
425,0.0
450,0.0
451,0.0
452,-1.5445670131504365
453,0.0
490,0.0
515,0.0
516,0.0
542,0.0
592,3520491.261864455
632,2836811.266144747
686,0.7779862445517581
687,0.6666666666666664
688,1.666666666666666
2,21, 1,21, 0, 6,30.00,40.00,Monday
250,23.674692746787265
251,7677985.625088451
336,0.0
385,24.129999999999992
386,26.249999999999993
387,-0.11369846653263356
388,0.0
425,0.0
450,0.0
451,0.0
452,-1.5533721533758638
453,0.0
490,0.0
515,0.0
516,0.0
542,0.0
592,4712186.811190094
632,3498105.5939619397
686,0.9999999999999997
687,0.9999999999999997
688,1.9999999999999993
2,21, 1,21, 0, 6,40.00,50.00,Monday
250,24.087140346858405
251,8834919.123382386
336,0.0
385,24.13
386,26.25
387,-0.1431854531126118
388,0.0
425,0.0
450,0.0
451,0.0
452,-1.5724960792267169
453,0.0
490,0.0
515,0.0
516,0.0
542,0.0
592,4703510.587502489
632,3991916.938574369
686,1.0
687,1.0
688,2.0
2,21, 1,21, 0, 6,50.00,60.00,Monday
250,22.982758619822445
251,6715726.851681586
336,0.0
385,22.796666666666635
386,26.24999999999996
387,-0.17119607817114235
388,0.0
425,0.0
450,0.0
451,0.0
452,-1.5996785433145528
453,0.0
490,0.0
515,0.0
516,0.0
542,0.0
592,2681645.8309855247
632,3952708.8923988603
686,0.5977310799704096
687,0.49999999999999933
688,1.166666666666665
2,21, 1,21, 0, 7, 0.00,10.00,Monday
250,23.4375292651669
251,6669072.156986564
336,0.0
385,23.46333333333333
386,26.25
387,-0.20668716174888935
388,0.0
425,0.0
450,0.0
451,0.0
452,-1.64652894527172
453,0.0
490,0.0
515,0.0
516,0.0
542,0.0
592,3587795.296246455
632,2973890.9028551574
686,0.7963149848025487
687,0.6666666666666666
688,1.6666666666666665
2,21, 1,21, 0, 7,10.00,20.00,Monday
250,23.678236048650195
251,7834113.846628495
336,0.0
385,24.13
386,26.25
387,-0.2584484175985704
388,0.0
425,0.0
450,0.0
451,0.0
452,-1.7363179124490202
453,0.0
490,0.0
515,0.0
516,0.0
542,0.0
592,4746235.261040816
632,3615624.9833328775
686,1.0
687,1.0
688,2.0
2,21, 1,21, 0, 7,20.00,30.00,Monday
250,24.08749725803566
251,8949763.132099139
336,0.0
385,24.13
386,26.25
387,-0.31281513122538274
388,0.0
425,0.0
450,0.0
451,0.0
452,-1.8592536933806647
453,0.0
490,0.0
515,0.0
516,0.0
542,0.0
592,4761369.827767805
632,4047952.0099156485
686,1.0
687,1.0
688,2.0
2,21, 1,21, 0, 7,30.00,40.00,Monday
250,22.978744393166274
251,6790483.791230662
336,0.0
385,22.796666666666653
386,26.24999999999998
387,-0.36797484409515013
388,0.0
425,0.0
450,0.0
451,0.0
452,-2.010333264692078
453,0.0
490,0.0
515,0.0
516,0.0
542,0.0
592,2736421.556329294
632,3974265.4507000125
686,0.5999813201957704
687,0.49999999999999967
688,1.1666666666666659
2,21, 1,21, 0, 7,40.00,50.00,Monday
250,23.43805018050658
251,6728101.178091154
336,0.0
385,23.463333333333352
386,26.25000000000002
387,-0.43374619012159205
388,0.0
425,0.0
450,0.0
451,0.0
452,-2.201452696457777
453,0.0
490,0.0
515,0.0
516,0.0
542,0.0
592,3659587.097166392
632,2958494.6849956783
686,0.7996066526358121
687,0.6666666666666672
688,1.6666666666666679
2,21, 1,21, 0, 7,50.00,60.00,Monday
250,23.678871833029007
251,7885971.185526455
336,0.0
385,24.13
386,26.25
387,-0.5219115435152574
388,0.0
425,0.0
450,0.0
451,0.0
452,-2.45779747062011
453,0.0
490,0.0
515,0.0
516,0.0
542,0.0
592,4825238.323154189
632,3587395.9158148332
686,1.0
687,1.0
688,2.0
2,21, 1,21, 0, 8, 0.00,10.00,Monday
250,24.08757167980839
251,8610014.996417494
336,0.0
385,24.13
386,26.25
387,-0.5971907553596125
388,0.0
425,0.0
450,0.0
451,0.0
452,-2.689049315434611
453,0.0
490,0.0
515,0.0
516,0.0
542,0.0
592,4829340.300401132
632,3640024.1749756644
686,1.0
687,1.0
688,2.0
2,21, 1,21, 0, 8,10.00,20.00,Monday
250,23.002285996238328
251,6345227.402499626
336,0.0
385,22.796666666666663
386,26.25
387,-0.6475888032755264
388,0.0
425,0.0
450,0.0
451,0.0
452,-2.804034283218874
453,0.0
490,0.0
515,0.0
516,0.0
542,0.0
592,2690613.940081102
632,3566954.094821063
686,0.5771690038851018
687,0.5
688,1.1666666666666665
2,21, 1,21, 0, 8,20.00,30.00,Monday
250,23.42946745449771
251,6198691.37348069
336,0.0
385,23.463333333333324
386,26.24999999999999
387,-0.6910605534861629
388,0.0
425,0.0
450,0.0
451,0.0
452,-2.8222981681938997
453,0.0
490,0.0
515,0.0
516,0.0
542,0.0
592,3543216.18266277
632,2586560.2181012244
686,0.7552862075178886
687,0.6666666666666664
688,1.666666666666666
2,21, 1,21, 0, 8,30.00,40.00,Monday
250,23.67011114746224
251,7330649.670807244
336,0.0
385,24.129999999999992
386,26.249999999999993
387,-0.7296511761287618
388,0.0
425,0.0
450,0.0
451,0.0
452,-2.7256639263369493
453,0.0
490,0.0
515,0.0
516,0.0
542,0.0
592,4867414.446318312
632,3000522.954297644
686,0.9999999999999997
687,0.9999999999999997
688,1.9999999999999993
2,21, 1,21, 0, 8,40.00,50.00,Monday
250,24.08659606810341
251,8340542.505700149
336,0.0
385,24.13
386,26.25
387,-0.7467960962198288
388,0.0
425,0.0
450,0.0
451,0.0
452,-2.5166654647449453
453,0.0
490,0.0
515,0.0
516,0.0
542,0.0
592,4871363.731218229
632,3330777.156770249
686,1.0
687,1.0
688,2.0
2,21, 1,21, 0, 8,50.00,60.00,Monday
250,23.017255926207525
251,6060078.413858574
336,0.0
385,22.796666666666635
386,26.24999999999996
387,-0.7403599471115254
388,0.0
425,0.0
450,0.0
451,0.0
452,-2.213501595208477
453,0.0
490,0.0
515,0.0
516,0.0
542,0.0
592,2661870.6264591576
632,3305698.2360393703
686,0.5623308942036168
687,0.49999999999999933
688,1.166666666666665
2,21, 1,21, 0, 9, 0.00,10.00,Monday
250,23.417846050383368
251,5533013.118098011
336,0.0
385,23.46333333333333
386,26.25
387,-0.7140172769472284
388,0.0
425,0.0
450,0.0
451,0.0
452,-1.8165629314976117
453,0.0
490,0.0
515,0.0
516,0.0
542,0.0
592,3389869.2725079344
632,2128544.046429873
686,0.7015645152041288
687,0.6666666666666666
688,1.6666666666666665
2,21, 1,21, 0, 9,10.00,20.00,Monday
250,24.060595066498234
251,7517299.715301728
336,0.0
385,24.13
386,26.25
387,-0.6674716928261927
388,0.0
425,0.0
450,0.0
451,0.0
452,-1.3117543699410787
453,0.0
490,0.0
515,0.0
516,0.0
542,0.0
592,4916735.505984357
632,2527950.463496798
686,1.0
687,1.0
688,2.0
2,21, 1,21, 0, 9,20.00,30.00,Monday
250,23.040913843267838
251,5587268.549133617
336,0.0
385,22.796666666666685
386,26.25000000000002
387,-0.6076846995094847
388,0.0
425,0.0
450,0.0
451,0.0
452,-0.7780393827529262
453,0.0
490,0.0
515,0.0
516,0.0
542,0.0
592,2584633.093702154
632,2904695.714601024
686,0.5389600782008922
687,0.4834637481544756
688,1.1666666666666674
2,21, 1,21, 0, 9,30.00,40.00,Monday
250,23.41470329503828
251,5294476.366565568
336,0.0
385,23.463333333333352
386,26.25000000000002
387,-0.535395580156665
388,0.0
425,0.0
450,0.0
451,0.0
452,-0.1940112920570363
453,0.0
490,0.0
515,0.0
516,0.0
542,0.0
592,3364054.817014568
632,1930713.3607726272
686,0.6840580999286916
687,0.6666666666666672
688,1.6666666666666679
2,21, 1,21, 0, 9,40.00,50.00,Monday
250,23.44598089366282
251,6687274.649676107
336,0.0
385,23.463333333333352
386,26.25000000000002
387,-0.4353120660869755
388,0.0
425,0.0
450,0.0
451,0.0
452,0.5719926288251509
453,0.0
490,0.0
515,0.0
516,0.0
542,0.0
592,2801263.320056575
632,3791764.430180342
686,0.6534573796868064
687,0.3333333333333336
688,1.3333333333333344
2,21, 1,21, 0, 9,50.00,60.00,Monday
250,23.447403198435936
251,6670480.2378917355
336,0.0
385,23.463333333333352
386,26.25000000000002
387,-0.3446530745118327
388,0.0
425,0.0
450,0.0
451,0.0
452,1.1814840229844896
453,0.0
490,0.0
515,0.0
516,0.0
542,0.0
592,2833451.807735579
632,3736479.869785033
686,0.6594940420123615
687,0.3333333333333336
688,1.3333333333333344
2,21, 1,21, 0,10, 0.00,10.00,Monday
250,24.063124233000277
251,7332735.294614824
336,0.0
385,24.13
386,26.25
387,-0.26460644466499794
388,0.0
425,0.0
450,0.0
451,0.0
452,1.6749772800964124
453,0.0
490,0.0
515,0.0
516,0.0
542,0.0
592,5021226.017901814
632,2231111.8770225
686,1.0
687,1.0
688,2.0
2,21, 1,21, 0,10,10.00,20.00,Monday
250,23.0528839120373
251,5342687.716101509
336,0.0
385,22.796666666666663
386,26.25
387,-0.18430035483009116
388,0.0
425,0.0
450,0.0
451,0.0
452,2.143841059684279
453,0.0
490,0.0
515,0.0
516,0.0
542,0.0
592,2488962.7931746366
632,2762158.120350917
686,0.5253272532175082
687,0.40603604369082147
688,1.1666666666666665
2,21, 1,21, 0,10,20.00,30.00,Monday
250,23.414527251089453
251,5024233.074558044
336,0.0
385,23.463333333333324
386,26.24999999999999
387,-0.0886770825067818
388,0.0
425,0.0
450,0.0
451,0.0
452,2.6692498648521754
453,0.0
490,0.0
515,0.0
516,0.0
542,0.0
592,3388432.3090397585
632,1653281.510637222
686,0.6666666666666664
687,0.663741948490898
688,1.3333333333333328
2,21, 1,21, 0,10,30.00,40.00,Monday
250,23.052419828823073
251,4963770.993736902
336,0.0
385,22.929999999999993
386,26.249999999999993
387,0.016439569674984847
388,0.0
425,0.0
450,0.0
451,0.0
452,3.2367895536169073
453,0.0
490,0.0
515,0.0
516,0.0
542,0.0
592,2408596.470228125
632,2611098.9966897527
686,0.49716887861534803
687,0.3999999999999997
688,0.9999999999999993
2,21, 1,21, 0,10,40.00,50.00,Monday
250,23.39587855945897
251,6636414.062881243
336,0.0
385,23.463333333333352
386,26.25000000000002
387,0.13870008791778266
388,0.0
425,0.0
450,0.0
451,0.0
452,3.8869976070341687
453,0.0
490,0.0
515,0.0
516,0.0
542,0.0
592,3840850.5354064098
632,2834688.57443802
686,0.8995576613251292
687,0.34576650364605205
688,1.666666666666668
2,21, 1,21, 0,10,50.00,60.00,Monday
250,23.492902646340834
251,4800771.258979414
336,0.0
385,23.463333333333352
386,26.25000000000002
387,0.3336529657969054
388,0.0
425,0.0
450,0.0
451,0.0
452,4.799803828000781
453,0.0
490,0.0
515,0.0
516,0.0
542,0.0
592,3458609.9419835815
632,1299256.8754217941
686,0.6666666666666672
687,0.6666666666666672
688,1.3333333333333344
2,21, 1,21, 0,11, 0.00,10.00,Monday
250,23.094522133558744
251,4609826.054503235
336,0.0
385,22.93
386,26.25
387,0.47215473624857185
388,0.0
425,0.0
450,0.0
451,0.0
452,5.506812328927946
453,0.0
490,0.0
515,0.0
516,0.0
542,0.0
592,2340310.3317297422
632,2316835.121454986
686,0.4682703224939296
687,0.4
688,1.0
2,21, 1,21, 0,11,10.00,20.00,Monday
250,23.392952037723216
251,6207432.191403592
336,0.0
385,23.46333333333333
386,26.25
387,0.6309603603402743
388,0.0
425,0.0
450,0.0
451,0.0
452,6.310473512163439
453,0.0
490,0.0
515,0.0
516,0.0
542,0.0
592,3569072.456691991
632,2702963.563492768
686,0.8183843051169417
687,0.33333333333333337
688,1.3333333333333333
2,21, 1,21, 0,11,20.00,30.00,Monday
250,23.26132436153336
251,5114332.112116594
336,0.0
385,23.13
386,26.25
387,0.8078307994045052
388,0.0
425,0.0
450,0.0
451,0.0
452,7.180216026772858
453,0.0
490,0.0
515,0.0
516,0.0
542,0.0
592,3841457.888298029
632,1112850.1411652686
686,0.75
687,0.6873338194364919
688,1.5
2,21, 1,21, 0,11,30.00,40.00,Monday
250,23.22690886024662
251,5372914.812906835
336,0.0
385,23.13
386,26.25
387,1.0783360131927942
388,0.0
425,0.0
450,0.0
451,0.0
452,8.297120392109406
453,0.0
490,0.0
515,0.0
516,0.0
542,0.0
592,2936898.075621291
632,2342917.0364221674
686,0.5804398579214742
687,0.5
688,1.25
2,21, 1,21, 0,11,40.00,50.00,Monday
250,23.226096974342113
251,5319757.870956827
336,0.0
385,23.13
386,26.25
387,1.3219567961370167
388,0.0
425,0.0
450,0.0
451,0.0
452,9.189849826875761
453,0.0
490,0.0
515,0.0
516,0.0
542,0.0
592,2969024.396575276
632,2260826.7447897936
686,0.5861596861162728
687,0.5
688,1.25
2,21, 1,21, 0,11,50.00,60.00,Monday
250,23.500921025462787
251,4221325.476391692
336,0.0
385,23.463333333333352
386,26.25000000000002
387,1.5050421582918478
388,0.0
425,0.0
450,0.0
451,0.0
452,9.849109347445907
453,0.0
490,0.0
515,0.0
516,0.0
542,0.0
592,3278193.8101286273
632,936477.3182692203
686,0.6666666666666672
687,0.49507667203357475
688,1.3333333333333344
2,21, 1,21, 0,12, 0.00,10.00,Monday
250,23.127783687210126
251,4301035.094844702
336,0.0
385,22.93
386,26.25
387,1.6847060840937953
388,0.0
425,0.0
450,0.0
451,0.0
452,10.421165761512013
453,0.0
490,0.0
515,0.0
516,0.0
542,0.0
592,2291051.9897159976
632,2051715.924625062
686,0.44361594738803856
687,0.4
688,1.0
2,21, 1,21, 0,12,10.00,20.00,Monday
250,23.389136326963715
251,5812868.610052962
336,0.0
385,23.46333333333333
386,26.25
387,1.8742043287897232
388,0.0
425,0.0
450,0.0
451,0.0
452,10.918618381033422
453,0.0
490,0.0
515,0.0
516,0.0
542,0.0
592,3328123.630620053
632,2574580.891597311
686,0.7396577284962873
687,0.33333333333333337
688,1.3333333333333333
2,21, 1,21, 0,12,20.00,30.00,Monday
250,23.551720095622883
251,4295117.611757287
336,0.0
385,23.463333333333324
386,26.24999999999999
387,2.130511562261085
388,0.0
425,0.0
450,0.0
451,0.0
452,11.420716685612714
453,0.0
490,0.0
515,0.0
516,0.0
542,0.0
592,3547485.612634628
632,705730.8344512621
686,0.6666666666666664
687,0.6666666666666664
688,1.3333333333333328
2,21, 1,21, 0,12,30.00,40.00,Monday
250,23.146715895053006
251,4150067.591328022
336,0.0
385,22.929999999999993
386,26.249999999999993
387,2.276327427118459
388,0.0
425,0.0
450,0.0
451,0.0
452,11.634035598968268
453,0.0
490,0.0
515,0.0
516,0.0
542,0.0
592,2177109.7147452976
632,2014767.3371296672
686,0.43074278221649276
687,0.3496444094981598
688,0.9999999999999993
2,21, 1,21, 0,12,40.00,50.00,Monday
250,23.387928773141184
251,5683630.393647113
336,0.0
385,23.463333333333352
386,26.25000000000002
387,2.413525305192316
388,0.0
425,0.0
450,0.0
451,0.0
452,11.734893148168517
453,0.0
490,0.0
515,0.0
516,0.0
542,0.0
592,3248708.1893338384
632,2531759.1508667753
686,0.7154171392250546
687,0.3333333333333336
688,1.3333333333333344
2,21, 1,21, 0,12,50.00,60.00,Monday
250,23.558151053094434
251,4229699.981524896
336,0.0
385,23.463333333333352
386,26.25000000000002
387,2.5856184014850925
388,0.0
425,0.0
450,0.0
451,0.0
452,11.733627292227744
453,0.0
490,0.0
515,0.0
516,0.0
542,0.0
592,3562244.6990783075
632,625720.1727083961
686,0.6666666666666672
687,0.6666666666666672
688,1.3333333333333344
2,21, 1,21, 0,13, 0.00,10.00,Monday
250,23.15065526012038
251,4117693.639277161
336,0.0
385,22.93
386,26.25
387,2.6769687629088423
388,0.0
425,0.0
450,0.0
451,0.0
452,11.642401526804994
453,0.0
490,0.0
515,0.0
516,0.0
542,0.0
592,2148971.610240473
632,2011091.245806876
686,0.4282581965276878
687,0.33400712006920963
688,1.0
2,21, 1,21, 0,13,10.00,20.00,Monday
250,23.38684067325079
251,5570005.980380144
336,0.0
385,23.46333333333333
386,26.25
387,2.7619984394839476
388,0.0
425,0.0
450,0.0
451,0.0
452,11.550632023486063
453,0.0
490,0.0
515,0.0
516,0.0
542,0.0
592,3179362.514835263
632,2493148.686669726
686,0.6974003163597153
687,0.33333333333333337
688,1.3333333333333333
2,21, 1,21, 0,13,20.00,30.00,Monday
250,23.57172141278328
251,4111593.680469458
336,0.0
385,23.463333333333324
386,26.24999999999999
387,2.871308878713481
388,0.0
425,0.0
450,0.0
451,0.0
452,11.463509382145588
453,0.0
490,0.0
515,0.0
516,0.0
542,0.0
592,3554736.412427117
632,515295.55636491673
686,0.6666666666666664
687,0.6666666666666664
688,1.3333333333333328
2,21, 1,21, 0,13,30.00,40.00,Monday
250,23.16634874641951
251,3982948.929201985
336,0.0
385,22.929999999999993
386,26.249999999999993
387,2.937205722925062
388,0.0
425,0.0
450,0.0
451,0.0
452,11.436258061140608
453,0.0
490,0.0
515,0.0
516,0.0
542,0.0
592,2015893.0621683935
632,2012586.9942804466
686,0.41889250521810134
687,0.27119201834109713
688,0.9999999999999993
2,21, 1,21, 0,13,40.00,50.00,Monday
250,23.38483044722757
251,5363004.406161525
336,0.0
385,23.463333333333352
386,26.25000000000002
387,3.0051407524286393
388,0.0
425,0.0
450,0.0
451,0.0
452,11.419882452401266
453,0.0
490,0.0
515,0.0
516,0.0
542,0.0
592,3036683.0341903693
632,2441353.996761178
686,0.6619710607585456
687,0.3333333333333336
688,1.3333333333333344
2,21, 1,21, 0,13,50.00,60.00,Monday
250,23.12031943061959
251,5013735.244040497
336,0.0
385,23.13
386,26.25
387,3.0737281114897477
388,0.0
425,0.0
450,0.0
451,0.0
452,11.408617262569646
453,0.0
490,0.0
515,0.0
516,0.0
542,0.0
592,3110455.2901963843
632,1976590.8625936934
686,0.6168590558403122
687,0.5
688,1.25
2,21, 1,21, 0,14, 0.00,10.00,Monday
250,23.385481003916613
251,5296832.585668668
336,0.0
385,23.46333333333333
386,26.25
387,3.1455543512746207
388,0.0
425,0.0
450,0.0
451,0.0
452,11.367036979617854
453,0.0
490,0.0
515,0.0
516,0.0
542,0.0
592,3007538.688590719
632,2411022.250856254
686,0.6530209927033437
687,0.3333333333333333
688,1.3333333333333335
2,21, 1,21, 0,14,10.00,20.00,Monday
250,23.13138105246109
251,4843126.163008211
336,0.0
385,23.13
386,26.25
387,3.215093279698534
388,0.0
425,0.0
450,0.0
451,0.0
452,11.261523167959435
453,0.0
490,0.0
515,0.0
516,0.0
542,0.0
592,3072312.445564558
632,1840511.4197456813
686,0.6033292653052293
687,0.5
688,1.25
2,21, 1,21, 0,14,20.00,30.00,Monday
250,23.384210415600418
251,5176525.940168938
336,0.0
385,23.463333333333324
386,26.24999999999999
387,3.2813978656358733
388,0.0
425,0.0
450,0.0
451,0.0
452,11.092226478056435
453,0.0
490,0.0
515,0.0
516,0.0
542,0.0
592,2932131.690314135
632,2374474.009491306
686,0.6298595148235787
687,0.3333333333333332
688,1.3333333333333328
2,21, 1,21, 0,14,30.00,40.00,Monday
250,23.134649405414585
251,4773553.125263688
336,0.0