Program Version,EnergyPlus, Version 24.2.0-94a887817b, YMD=2025.02.11 00:15
1,5,Environment Title[],Latitude[deg],Longitude[deg],Time Zone[],Elevation[m]
2,8,Day of Simulation[],Month[],Day of Month[],DST Indicator[1=yes 0=no],Hour[],StartMinute[],EndMinute[],DayType
3,5,Cumulative Day of Simulation[],Month[],Day of Month[],DST Indicator[1=yes 0=no],DayType  ! When Daily Report Variables Requested
4,2,Cumulative Days of Simulation[],Month[]  ! When Monthly Report Variables Requested
5,1,Cumulative Days of Simulation[] ! When Run Period Report Variables Requested
6,1,Calendar Year of Simulation[] ! When Annual Report Variables Requested
250,1,LIVING ZONE,Zone Air Temperature [C] !TimeStep,REPORTSCH
251,1,LIVING ZONE,Zone Air System Sensible Heating Energy [J] !TimeStep,REPORTSCH
336,1,LIVING ZONE,Zone Air System Sensible Cooling Energy [J] !TimeStep,REPORTSCH
385,1,LIVING ZONE,Zone Thermostat Heating Setpoint Temperature [C] !TimeStep,REPORTSCH
386,1,LIVING ZONE,Zone Thermostat Cooling Setpoint Temperature [C] !TimeStep,REPORTSCH
387,1,GARAGE ZONE,Zone Air Temperature [C] !TimeStep,REPORTSCH
388,1,GARAGE ZONE,Zone Air System Sensible Heating Energy [J] !TimeStep,REPORTSCH
425,1,GARAGE ZONE,Zone Air System Sensible Cooling Energy [J] !TimeStep,REPORTSCH
450,1,GARAGE ZONE,Zone Thermostat Heating Setpoint Temperature [C] !TimeStep,REPORTSCH
451,1,GARAGE ZONE,Zone Thermostat Cooling Setpoint Temperature [C] !TimeStep,REPORTSCH
452,1,ATTIC ZONE,Zone Air Temperature [C] !TimeStep,REPORTSCH
453,1,ATTIC ZONE,Zone Air System Sensible Heating Energy [J] !TimeStep,REPORTSCH
490,1,ATTIC ZONE,Zone Air System Sensible Cooling Energy [J] !TimeStep,REPORTSCH
515,1,ATTIC ZONE,Zone Thermostat Heating Setpoint Temperature [C] !TimeStep,REPORTSCH
516,1,ATTIC ZONE,Zone Thermostat Cooling Setpoint Temperature [C] !TimeStep,REPORTSCH
542,1,ACDXCOIL 1,Cooling Coil Total Cooling Energy [J] !TimeStep,REPORTSCH
592,1,HEAT PUMP DX HEATING COIL 1,Heating Coil Heating Energy [J] !TimeStep,REPORTSCH
632,1,SUPP HEATING COIL 1,Heating Coil Heating Energy [J] !TimeStep,REPORTSCH
686,1,TWOSPEED HEAT PUMP 1,Unitary System DX Coil Cycling Ratio [] !TimeStep,REPORTSCH
687,1,TWOSPEED HEAT PUMP 1,Unitary System DX Coil Speed Ratio [] !TimeStep,REPORTSCH
688,1,TWOSPEED HEAT PUMP 1,Unitary System DX Coil Speed Level [] !TimeStep,REPORTSCH
End of Data Dictionary
1,RUN PERIOD 1,  41.98, -87.92,  -6.00, 201.00
2,21, 1,21, 0, 1, 0.00,10.00,Monday
250,22.49127429498928
251,7202659.96743788
336,0.0
385,22.553333333333335
386,27.28
387,0.6093533872735466
388,0.0
425,0.0
450,0.0
451,0.0
452,-1.64275827055685
453,0.0
490,0.0
515,0.0
516,0.0
542,0.0
592,4128947.1850237036
632,3074217.755351921
686,0.9658781162436386
687,0.5282112960993575
688,1.6666666666666667
2,21, 1,21, 0, 1,10.00,20.00,Monday
250,22.523123786136317
251,5294077.468300002
336,0.0
385,22.55333333333333
386,27.28
387,0.5743883282329978
388,0.0
425,0.0
450,0.0
451,0.0
452,-1.6283894622405093
453,0.0
490,0.0
515,0.0
516,0.0
542,0.0
592,3241404.385270834
632,2008599.2159245375
686,0.6666666666666667
687,0.6666666666666667
688,1.3333333333333335
2,21, 1,21, 0, 1,20.00,30.00,Monday
250,22.11344542319207
251,5255348.531008669
336,0.0
385,22.02
386,27.28
387,0.551989437618754
388,0.0
425,0.0
450,0.0
451,0.0
452,-1.62123673305257
453,0.0
490,0.0
515,0.0
516,0.0
542,0.0
592,2371164.116552566
632,2944468.665581096
686,0.5234669525140649
687,0.4
688,1.0
2,21, 1,21, 0, 1,30.00,40.00,Monday
250,22.491927604102553
251,7255591.136057194
336,0.0
385,22.55333333333335
386,27.280000000000022
387,0.528680577860475
388,0.0
425,0.0
450,0.0
451,0.0
452,-1.615744288289127
453,0.0
490,0.0
515,0.0
516,0.0
542,0.0
592,4141366.224288655
632,3110184.097799165
686,0.9718195800643951
687,0.5519936072410687
688,1.666666666666668
2,21, 1,21, 0, 1,40.00,50.00,Monday
250,22.519168940175224
251,5333255.700561473
336,0.0
385,22.55333333333335
386,27.280000000000022
387,0.49703139455825973
388,0.0
425,0.0
450,0.0
451,0.0
452,-1.6106350444626485
453,0.0
490,0.0
515,0.0
516,0.0
542,0.0
592,3210971.869660185
632,2077757.5971002071
686,0.6670167585503003
687,0.6666666666666672
688,1.6666666666666679
2,21, 1,21, 0, 1,50.00,60.00,Monday
250,22.735508410647448
251,7045687.215049653
336,0.0
385,23.22
386,27.28
387,0.4681937159926989
388,0.0
425,0.0
450,0.0
451,0.0
452,-1.608229623996707
453,0.0
490,0.0
515,0.0
516,0.0
542,0.0
592,4798332.862158069
632,2804370.68886833
686,1.0
687,1.0
688,2.0
2,21, 1,21, 0, 2, 0.00,10.00,Monday
250,23.173912880575266
251,7757601.863760928
336,0.0
385,23.22
386,27.28
387,0.4459921596958231
388,0.0
425,0.0
450,0.0
451,0.0
452,-1.6089571793904192
453,0.0
490,0.0
515,0.0
516,0.0
542,0.0
592,4798595.121908283
632,2827070.8074687338
686,1.0
687,1.0
688,2.0
2,21, 1,21, 0, 2,10.00,20.00,Monday
250,22.132748068584416
251,5597452.776376292
336,0.0
385,21.886666666666663
386,27.28
387,0.42641562799224797
388,0.0
425,0.0
450,0.0
451,0.0
452,-1.6131025003895285
453,0.0
490,0.0
515,0.0
516,0.0
542,0.0
592,2533157.3242107676
632,2963543.90808117
686,0.5384870722558527
687,0.5
688,1.1666666666666665
2,21, 1,21, 0, 2,20.00,30.00,Monday
250,22.507081914773728
251,5420340.323708623
336,0.0
385,22.553333333333324
386,27.27999999999999
387,0.40443007617326415
388,0.0
425,0.0
450,0.0
451,0.0
452,-1.6205648216833208
453,0.0
490,0.0
515,0.0
516,0.0
542,0.0
592,3292510.1086845156
632,2117526.608502466
686,0.6935593533256359
687,0.6666666666666664
688,1.666666666666666
2,21, 1,21, 0, 2,30.00,40.00,Monday
250,22.74338463773995
251,6709761.343627992
336,0.0
385,23.21999999999999
386,27.27999999999999
387,0.37680555957052175
388,0.0
425,0.0
450,0.0
451,0.0
452,-1.6325997962584338
453,0.0
490,0.0
515,0.0
516,0.0
542,0.0
592,4798389.882916749
632,2462645.079459956
686,0.9999999999999997
687,0.9999999999999997
688,1.9999999999999993
2,21, 1,21, 0, 2,40.00,50.00,Monday
250,23.174708377915266
251,7795095.666449427
336,0.0
385,23.22
386,27.28
387,0.35164502245037504
388,0.0
425,0.0
450,0.0
451,0.0
452,-1.6462792012492902
453,0.0
490,0.0
515,0.0
516,0.0
542,0.0
592,4798584.9879920855
632,2862532.1033377806
686,1.0
687,1.0
688,2.0
2,21, 1,21, 0, 2,50.00,60.00,Monday
250,22.13135106723612
251,5624756.708912412
336,0.0
385,21.886666666666635
386,27.279999999999962
387,0.32967699791018823
388,0.0
425,0.0
450,0.0
451,0.0
452,-1.661399032156365
453,0.0
490,0.0
515,0.0
516,0.0
542,0.0
592,2537998.273207707
632,2986443.3457947634
686,0.539882575981075
687,0.49999999999999933
688,1.166666666666665
2,21, 1,21, 0, 3, 0.00,10.00,Monday
250,22.5076645734618
251,5456488.663969609
336,0.0
385,22.553333333333335
386,27.28
387,0.3063231572770394
388,0.0
425,0.0
450,0.0
451,0.0
452,-1.6772385837672172
453,0.0
490,0.0
515,0.0
516,0.0
542,0.0
592,3301631.591514026
632,2141950.7933251564
686,0.696191688910275
687,0.6666666666666666
688,1.6666666666666665
2,21, 1,21, 0, 3,10.00,20.00,Monday
250,22.74450540703827
251,6751816.039122654
336,0.0
385,23.22
386,27.28
387,0.2783812896096041
388,0.0
425,0.0
450,0.0
451,0.0
452,-1.6919788240076568
453,0.0
490,0.0
515,0.0
516,0.0
542,0.0
592,4798395.281582206
632,2504372.570627637
686,1.0
687,1.0
688,2.0
2,21, 1,21, 0, 3,20.00,30.00,Monday
250,23.174852312196023
251,7844524.978995981
336,0.0
385,23.22
386,27.28
387,0.2543561708980149
388,0.0
425,0.0
450,0.0
451,0.0
452,-1.698244011456619
453,0.0
490,0.0
515,0.0
516,0.0
542,0.0
592,4798583.516268439
632,2911681.9847283233
686,1.0
687,1.0
688,2.0
2,21, 1,21, 0, 3,30.00,40.00,Monday
250,22.12834833739278
251,5681887.584882413
336,0.0
385,21.88666666666665
386,27.27999999999998
387,0.23492474968103594
388,0.0
425,0.0
450,0.0
451,0.0
452,-1.697423331977937
453,0.0
490,0.0
515,0.0
516,0.0
542,0.0
592,2547963.411839718
632,3034565.966641542
686,0.5427552206495867
687,0.49999999999999967
688,1.1666666666666659
2,21, 1,21, 0, 3,40.00,50.00,Monday
250,22.50862109769971
251,5516456.209604604
336,0.0
385,22.55333333333335
386,27.280000000000022
387,0.21492063858998445
388,0.0
425,0.0
450,0.0
451,0.0
452,-1.693285648799649
453,0.0
490,0.0
515,0.0
516,0.0
542,0.0
592,3317456.6083068172
632,2181673.511826444
686,0.7007584737975899
687,0.6666666666666672
688,1.6666666666666679
2,21, 1,21, 0, 3,50.00,60.00,Monday
250,22.74599502624502
251,6805476.151400894
336,0.0
385,23.22
386,27.28
387,0.19143387843909943
388,0.0
425,0.0
450,0.0
451,0.0
452,-1.6847798479015543
453,0.0
490,0.0
515,0.0
516,0.0
542,0.0
592,4798404.733005185
632,2557153.719151601
686,1.0
687,1.0
688,2.0
2,21, 1,21, 0, 4, 0.00,10.00,Monday
250,23.175061838576035
251,7963007.6379892705
336,0.0
385,23.22
386,27.28
387,0.1671372776519855
388,0.0
425,0.0
450,0.0
451,0.0
452,-1.676293575562623
453,0.0
490,0.0
515,0.0
516,0.0
542,0.0
592,4793827.774412719
632,3034543.056729057
686,1.0
687,1.0
688,2.0
2,21, 1,21, 0, 4,10.00,20.00,Monday
250,22.118728338952547
251,5864110.771638995
336,0.0
385,21.886666666666663
386,27.28
387,0.14230053095347647
388,0.0
425,0.0
450,0.0
451,0.0
452,-1.6704808741389738
453,0.0
490,0.0
515,0.0
516,0.0
542,0.0
592,2574909.251836407
632,3192923.901884633
686,0.5519709243149362
687,0.5
688,1.1666666666666665
2,21, 1,21, 0, 4,20.00,30.00,Monday
250,22.513166289445405
251,5782346.740871383
336,0.0
385,22.553333333333324
386,27.27999999999999
387,0.1135642892259518
388,0.0
425,0.0
450,0.0
451,0.0
452,-1.6673309122849411
453,0.0
490,0.0
515,0.0
516,0.0
542,0.0
592,3381019.1607434307
632,2362730.238768998
686,0.7221232081271883
687,0.6666666666666664
688,1.666666666666666
2,21, 1,21, 0, 4,30.00,40.00,Monday
250,22.751939323871106
251,7113258.666024615
336,0.0
385,23.21999999999999
386,27.27999999999999
387,0.07643296216055429
388,0.0
425,0.0
450,0.0
451,0.0
452,-1.667986150752042
453,0.0
490,0.0
515,0.0
516,0.0
542,0.0
592,4780304.702502845
632,2878329.739759401
686,0.9999999999999997
687,0.9999999999999997
688,1.9999999999999993
2,21, 1,21, 0, 4,40.00,50.00,Monday
250,23.175785834654004
251,8277390.606473985
336,0.0
385,23.22
386,27.28
387,0.041910041063789094
388,0.0
425,0.0
450,0.0
451,0.0
452,-1.6741489020072802
453,0.0
490,0.0
515,0.0
516,0.0
542,0.0
592,4773259.186510988
632,3367951.870224879
686,1.0
687,1.0
688,2.0
2,21, 1,21, 0, 4,50.00,60.00,Monday
250,22.102037506996485
251,6180939.631764072
336,0.0
385,21.886666666666635
386,27.279999999999962
387,0.010842127634191666
388,0.0
425,0.0
450,0.0
451,0.0
452,-1.6841857972675918
453,0.0
490,0.0
515,0.0
516,0.0
542,0.0
592,2619661.0456048464
632,3470387.859930101
686,0.5681852607812137
687,0.49999999999999933
688,1.166666666666665
2,21, 1,21, 0, 5, 0.00,10.00,Monday
250,22.516561860295113
251,6008355.070562376
336,0.0
385,22.553333333333335
386,27.28
387,-0.014510213533575303
388,0.0
425,0.0
450,0.0
451,0.0
452,-1.692514683900507
453,0.0
490,0.0
515,0.0
516,0.0
542,0.0
592,3428033.420736269
632,2525383.848691196
686,0.740331533837837
687,0.6666666666666666
688,1.6666666666666665
2,21, 1,21, 0, 5,10.00,20.00,Monday
250,22.756028271274364
251,7200361.991106227
336,0.0
385,23.22
386,27.28
387,-0.03731778848097604
388,0.0
425,0.0
450,0.0
451,0.0
452,-1.6961790906183538
453,0.0
490,0.0
515,0.0
516,0.0
542,0.0
592,4757529.719314259
632,2983748.3660446987
686,1.0
687,1.0
688,2.0
2,21, 1,21, 0, 5,20.00,30.00,Monday
250,23.1761927579454
251,8261119.407015212
336,0.0
385,23.22
386,27.28
387,-0.05154376919492306
388,0.0
425,0.0
450,0.0
451,0.0
452,-1.6899292040599774
453,0.0
490,0.0
515,0.0
516,0.0
542,0.0
592,4749259.71943765
632,3374602.45984908
686,1.0
687,1.0
688,2.0
2,21, 1,21, 0, 5,30.00,40.00,Monday
250,22.10896819829228
251,6050420.238698009
336,0.0
385,21.88666666666665
386,27.27999999999998
387,-0.05873092308148239
388,0.0
425,0.0
450,0.0
451,0.0
452,-1.6746108864403633
453,0.0
490,0.0
515,0.0
516,0.0
542,0.0
592,2583903.6905948846
632,3373299.5435490115
686,0.5619143896831862
687,0.49999999999999967
688,1.1666666666666659
2,21, 1,21, 0, 5,40.00,50.00,Monday
250,22.514314371768073
251,5868462.830940328
336,0.0
385,22.55333333333335
386,27.280000000000022
387,-0.06385163429131878
388,0.0
425,0.0
450,0.0
451,0.0
452,-1.6518500436021266
453,0.0
490,0.0
515,0.0
516,0.0
542,0.0
592,3369775.453919124
632,2454547.5559354136
686,0.7289490527644269
687,0.6666666666666672
688,1.6666666666666679
2,21, 1,21, 0, 5,50.00,60.00,Monday
250,22.753733741765895
251,7078190.012088565
336,0.0
385,23.22
386,27.28
387,-0.06742912559986342
388,0.0
425,0.0
450,0.0
451,0.0
452,-1.6184650956532585
453,0.0
490,0.0
515,0.0
516,0.0
542,0.0
592,4726906.583405079
632,2895156.924254099
686,1.0
687,1.0
688,2.0
2,21, 1,21, 0, 6, 0.00,10.00,Monday
250,23.175965884678497
251,8216522.744912051
336,0.0
385,23.22
386,27.28
387,-0.07694079580823257
388,0.0
425,0.0
450,0.0
451,0.0
452,-1.591225202660771
453,0.0
490,0.0
515,0.0
516,0.0
542,0.0
592,4723065.480101766
632,3356813.096714637
686,1.0
687,1.0
688,2.0
2,21, 1,21, 0, 6,10.00,20.00,Monday
250,22.10695642238805
251,6088460.379356664
336,0.0
385,21.886666666666663
386,27.28
387,-0.09279120199548427
388,0.0
425,0.0
450,0.0
451,0.0
452,-1.5779918647590105
453,0.0
490,0.0
515,0.0
516,0.0
542,0.0
592,2578817.7717615482
632,3417038.3274920774
686,0.5641494040673867
687,0.5
688,1.1666666666666665
2,21, 1,21, 0, 6,20.00,30.00,Monday
250,22.516722708579064
251,5998916.359643196
336,0.0
385,22.553333333333324
386,27.27999999999999
387,-0.11385075075989962
388,0.0
425,0.0
450,0.0
451,0.0
452,-1.5749892402349948
453,0.0
490,0.0
515,0.0
516,0.0
542,0.0
592,3392603.129152649
632,2550973.739175098
686,0.7399022056869765
687,0.6666666666666664
688,1.666666666666666
2,21, 1,21, 0, 6,30.00,40.00,Monday
250,22.756768657336927
251,7283086.986059658
336,0.0
385,23.21999999999999
386,27.27999999999999
387,-0.14365779280622254
388,0.0
425,0.0
450,0.0
451,0.0
452,-1.583748466552386
453,0.0
490,0.0
515,0.0
516,0.0
542,0.0
592,4711925.227506908
632,3112772.669578263
686,0.9999999999999997
687,0.9999999999999997
688,1.9999999999999993
2,21, 1,21, 0, 6,40.00,50.00,Monday
250,23.176338194010743
251,8424857.425582018
336,0.0
385,23.22
386,27.28
387,-0.17321257421224012
388,0.0
425,0.0
450,0.0
451,0.0
452,-1.6028132434904532
453,0.0
490,0.0
515,0.0
516,0.0
542,0.0
592,4705647.1132085305
632,3581787.387851689
686,1.0
687,1.0
688,2.0
2,21, 1,21, 0, 6,50.00,60.00,Monday
250,22.095892350449432
251,6298272.461595014
336,0.0
385,21.886666666666635
386,27.279999999999962
387,-0.20127709621646153
388,0.0
425,0.0
450,0.0
451,0.0
452,-1.6299276588912455
453,0.0
490,0.0
515,0.0
516,0.0
542,0.0
592,2606527.536846956
632,3602716.437231504
686,0.5751400578979496
687,0.49999999999999933
688,1.166666666666665
2,21, 1,21, 0, 7, 0.00,10.00,Monday
250,22.520520534205147
251,6232118.738797243
336,0.0
385,22.553333333333335
386,27.28
387,-0.23682097859049273
388,0.0
425,0.0
450,0.0
451,0.0
452,-1.676660948311215
453,0.0
490,0.0
515,0.0
516,0.0
542,0.0
592,3463580.7165132347
632,2695046.5435303403
686,0.7591576301686049
687,0.6666666666666666
688,1.6666666666666665
2,21, 1,21, 0, 7,10.00,20.00,Monday
250,22.760637260570284
251,7453228.494343545
336,0.0
385,23.22
386,27.28
387,-0.2886738937978911
388,0.0
425,0.0
450,0.0
451,0.0
452,-1.7663263288817213
453,0.0
490,0.0
515,0.0
516,0.0
542,0.0
592,4746925.550534697
632,3243008.188588549
686,1.0
687,1.0
688,2.0
2,21, 1,21, 0, 7,20.00,30.00,Monday
250,23.17672974365996
251,8555311.61798207
336,0.0
385,23.22
386,27.28
387,-0.343133693736143
388,0.0
425,0.0
450,0.0
451,0.0
452,-1.8891115066618829
453,0.0
490,0.0
515,0.0
516,0.0
542,0.0
592,4763976.17203976
632,3652878.5207110276
686,1.0
687,1.0
688,2.0
2,21, 1,21, 0, 7,30.00,40.00,Monday
250,22.090943094887802
251,6390899.260486324
336,0.0
385,21.88666666666665
386,27.27999999999998
387,-0.3983479845287322
388,0.0
425,0.0
450,0.0
451,0.0
452,-2.0400054281482274
453,0.0
490,0.0
515,0.0
516,0.0
542,0.0
592,2664652.4258934446
632,3639041.2794195553
686,0.5785916984906299
687,0.49999999999999967
688,1.1666666666666659
2,21, 1,21, 0, 7,40.00,50.00,Monday
250,22.52121327367173
251,6296588.24583816
336,0.0
385,22.55333333333335
386,27.280000000000022
387,-0.46409627467352454
388,0.0
425,0.0
450,0.0
451,0.0
452,-2.2309596181595794
453,0.0
490,0.0
515,0.0
516,0.0
542,0.0
592,3536876.923137815
632,2682741.4188348087
686,0.7633271881504989
687,0.6666666666666672
688,1.6666666666666679
2,21, 1,21, 0, 7,50.00,60.00,Monday
250,22.761486529537162
251,7508143.339105181
336,0.0
385,23.22
386,27.28
387,-0.5521794407420179
388,0.0
425,0.0
450,0.0
451,0.0
452,-2.4874026553987267
453,0.0
490,0.0
515,0.0
516,0.0
542,0.0
592,4826810.599820781
632,3216730.075954038
686,1.0
687,1.0
688,2.0
2,21, 1,21, 0, 8, 0.00,10.00,Monday
250,23.17682688359833
251,8248278.098902638
336,0.0
385,23.22
386,27.28
387,-0.6273975697443925
388,0.0
425,0.0
450,0.0
451,0.0
452,-2.718817530789791
453,0.0
490,0.0
515,0.0
516,0.0
542,0.0
592,4832313.820429526
632,3277242.7532789856
686,1.0
687,1.0
688,2.0
2,21, 1,21, 0, 8,10.00,20.00,Monday
250,22.11256477851625
251,5981156.405242472
336,0.0
385,21.886666666666663
386,27.28
387,-0.6777878282960232
388,0.0
425,0.0
450,0.0
451,0.0
452,-2.834136100111621
453,0.0
490,0.0
515,0.0
516,0.0
542,0.0
592,2625323.2566175438
632,3261535.7919351505
686,0.5578614619893718
687,0.5
688,1.1666666666666665
2,21, 1,21, 0, 8,20.00,30.00,Monday
250,22.51312283847958
251,5806165.229657724
336,0.0
385,22.553333333333324
386,27.27999999999999
387,-0.7212842158871151
388,0.0
425,0.0
450,0.0
451,0.0
452,-2.8527838370811813
453,0.0
490,0.0
515,0.0
516,0.0
542,0.0
592,3432129.1966492673
632,2335808.396753993
686,0.7227249787794374
687,0.6666666666666664
688,1.666666666666666
2,21, 1,21, 0, 8,30.00,40.00,Monday
250,22.75312896734225
251,6988737.843021624
336,0.0
385,23.21999999999999
386,27.27999999999999
387,-0.759937265548898
388,0.0
425,0.0
450,0.0
451,0.0
452,-2.7566923608040184
453,0.0
490,0.0
515,0.0
516,0.0
542,0.0
592,4868905.924706839
632,2665135.6713524153
686,0.9999999999999997
687,0.9999999999999997
688,1.9999999999999993
2,21, 1,21, 0, 8,40.00,50.00,Monday
250,23.175888520199415
251,7986539.391252458
336,0.0
385,23.22
386,27.28
387,-0.7771685640824658
388,0.0
425,0.0
450,0.0
451,0.0
452,-2.548567533976253
453,0.0
490,0.0
515,0.0
516,0.0
542,0.0
592,4874389.672552418
632,2975570.8629130125
686,1.0
687,1.0
688,2.0
2,21, 1,21, 0, 8,50.00,60.00,Monday
250,22.127224655755526
251,5701739.195958713
336,0.0
385,21.886666666666635
386,27.279999999999962
387,-0.7708456773374599
388,0.0
425,0.0
450,0.0
451,0.0
452,-2.246788037722829
453,0.0
490,0.0
515,0.0
516,0.0
542,0.0
592,2597730.591314574
632,3005040.407353907
686,0.5435397466484203
687,0.49999999999999933
688,1.166666666666665
2,21, 1,21, 0, 9, 0.00,10.00,Monday
250,22.501577149710663
251,5154832.140421577
336,0.0
385,22.553333333333335
386,27.28
387,-0.744664304417356
388,0.0
425,0.0
450,0.0
451,0.0
452,-1.8497737665786627
453,0.0
490,0.0
515,0.0
516,0.0
542,0.0
592,3283471.5996572105
632,1887017.838274311
686,0.6707545735391189
687,0.6666666666666666
688,1.6666666666666665
2,21, 1,21, 0, 9,10.00,20.00,Monday
250,23.149822815619636
251,7173450.596206616
336,0.0
385,23.22
386,27.28
387,-0.6983498050611299
388,0.0
425,0.0
450,0.0
451,0.0
452,-1.3450505883837003
453,0.0
490,0.0
515,0.0
516,0.0
542,0.0
592,4920242.137373859
632,2182212.1713880333
686,1.0
687,1.0
688,2.0
2,21, 1,21, 0, 9,20.00,30.00,Monday
250,21.90656284091563
251,5375419.808993727
336,0.0
385,21.886666666666656
386,27.27999999999999
387,-0.6370686268583933
388,0.0
425,0.0
450,0.0
451,0.0
452,-0.7931733307371389
453,0.0
490,0.0
515,0.0
516,0.0
542,0.0
592,3292322.204790661
632,1911959.0162963555
686,0.6666666666666664
687,0.6666666666666664
688,1.3333333333333328
2,21, 1,21, 0, 9,30.00,40.00,Monday
250,22.49627780836064
251,5008863.274481975
336,0.0
385,22.55333333333334
386,27.280000000000012
387,-0.541188717797095
388,0.0
425,0.0
450,0.0
451,0.0
452,-0.049219336375385454
453,0.0
490,0.0
515,0.0
516,0.0
542,0.0
592,2942712.6134687103
632,2110635.982939089
686,0.6902167702266339
687,0.34429385367837934
688,1.666666666666667
2,21, 1,21, 0, 9,40.00,50.00,Monday
250,22.528888258690742
251,6327283.295881019
336,0.0
385,22.55333333333335
386,27.280000000000022
387,-0.45679993376095795
388,0.0
425,0.0
450,0.0
451,0.0
452,0.5879501790339574
453,0.0
490,0.0
515,0.0
516,0.0
542,0.0
592,2586365.9417426223
632,3685579.2100725346
686,0.5924066873233667
687,0.3333333333333336
688,1.3333333333333344
2,21, 1,21, 0, 9,50.00,60.00,Monday
250,23.15214818257045
251,7019530.99693393
336,0.0
385,23.22
386,27.28
387,-0.38360373442045415
388,0.0
425,0.0
450,0.0
451,0.0
452,1.1020395689989004
453,0.0
490,0.0
515,0.0
516,0.0
542,0.0
592,4990788.990247627
632,1950551.767335738
686,1.0
687,1.0
688,2.0
2,21, 1,21, 0,10, 0.00,10.00,Monday
250,22.15821184947071
251,5045243.321749831
336,0.0
385,21.886666666666667
386,27.28
387,-0.3108092331095204
388,0.0
425,0.0
450,0.0
451,0.0
452,1.567072595328018
453,0.0
490,0.0
515,0.0
516,0.0
542,0.0
592,2304558.133532071
632,2656456.5698013413
686,0.5056711181109942
687,0.33333333333333326
688,1.0
2,21, 1,21, 0,10,10.00,20.00,Monday
250,23.114759263938517
251,7015009.411987701
336,0.0
385,23.22
386,27.28
387,-0.22048240993822132
388,0.0
425,0.0
450,0.0
451,0.0
452,2.0921463797994173
453,0.0
490,0.0
515,0.0
516,0.0
542,0.0
592,5058120.330122771
632,1975473.474402507
686,1.0
687,1.0
688,2.0
2,21, 1,21, 0,10,20.00,30.00,Monday
250,21.94038053726529
251,4970548.01185474
336,0.0
385,21.886666666666656
386,27.27999999999999
387,-0.12086170799246657
388,0.0
425,0.0
450,0.0
451,0.0
452,2.6370280800984416
453,0.0
490,0.0
515,0.0
516,0.0
542,0.0
592,3394287.415013618
632,1395869.533000618
686,0.6666666666666664
687,0.6666666666666664
688,1.3333333333333328
2,21, 1,21, 0,10,30.00,40.00,Monday
250,22.501941509488045
251,4664477.26582863
336,0.0
385,22.55333333333334
386,27.280000000000012
387,0.028827167830234333
388,0.0
425,0.0
450,0.0
451,0.0
452,3.363614845234956
453,0.0
490,0.0
515,0.0
516,0.0
542,0.0
592,2767847.721942906
632,1967542.4997957295
686,0.6197906749501875
687,0.3333333333333332
688,1.0
2,21, 1,21, 0,10,40.00,50.00,Monday
250,22.183325971755217
251,4583973.8245255845
336,0.0
385,22.02
386,27.28
387,0.13839532801659804
388,0.0
425,0.0
450,0.0
451,0.0
452,3.9415773077666163
453,0.0
490,0.0
515,0.0
516,0.0
542,0.0
592,2310492.5795057886
632,2323128.719257986
686,0.4662709620813289
687,0.4
688,1.0
2,21, 1,21, 0,10,50.00,60.00,Monday
250,22.482307042878507
251,6138492.100635501
336,0.0
385,22.55333333333335
386,27.280000000000022
387,0.2681982756124653
388,0.0
425,0.0
450,0.0
451,0.0
452,4.631872154253377
453,0.0
490,0.0
515,0.0
516,0.0
542,0.0
592,3494531.7664802694
632,2715702.7116558123
686,0.8027706746096073
687,0.3333333333333336
688,1.3333333333333344
2,21, 1,21, 0,11, 0.00,10.00,Monday
250,22.625785080380616
251,4469116.282421411
336,0.0
385,22.553333333333335
386,27.28
387,0.47634249920815697
388,0.0
425,0.0
450,0.0
451,0.0
452,5.59975485525644
453,0.0
490,0.0
515,0.0
516,0.0
542,0.0
592,3472968.6227607727
632,953843.2744886199
686,0.6666666666666666
687,0.6666666666666666
688,1.3333333333333333
2,21, 1,21, 0,11,10.00,20.00,Monday
250,22.227844285649148
251,4257794.9033671515
336,0.0
385,22.02
386,27.28
387,0.6246444857073408
388,0.0
425,0.0
450,0.0
451,0.0
452,6.343669589163658
453,0.0
490,0.0
515,0.0
516,0.0
542,0.0
592,2230048.4281590604
632,2067506.8941644814
686,0.4403415392226383
687,0.3899575907473676
688,1.0
2,21, 1,21, 0,11,20.00,30.00,Monday
250,22.303406804358637
251,4349926.988196817
336,0.0
385,22.22
386,27.28
387,0.7922414167370344
388,0.0
425,0.0
450,0.0
451,0.0
452,7.181827620847324
453,0.0
490,0.0
515,0.0
516,0.0
542,0.0
592,1854308.9316272873
632,2625727.1594822044
686,0.3929399859781408
687,0.25
688,1.0
2,21, 1,21, 0,11,30.00,40.00,Monday
250,22.33665964861038
251,5197289.289746243
336,0.0
385,22.22
386,27.28
387,1.0544876391048343
388,0.0
425,0.0
450,0.0
451,0.0
452,8.282337123324263
453,0.0
490,0.0
515,0.0
516,0.0
542,0.0
592,3112536.027330024
632,2033770.835452538
686,0.6260825576499545
687,0.5
688,1.25
2,21, 1,21, 0,11,40.00,50.00,Monday
250,22.341184321107097
251,5121353.038747188
336,0.0
385,22.22
386,27.28
387,1.2959839708706085
388,0.0
425,0.0
450,0.0
451,0.0
452,9.171442753430703
453,0.0
490,0.0
515,0.0
516,0.0
542,0.0
592,3103627.6974371905
632,1962961.6942206607
686,0.6208783402099368
687,0.5
688,1.25
2,21, 1,21, 0,11,50.00,60.00,Monday
250,22.344102877647806
251,5069289.763860005
336,0.0
385,22.22
386,27.28
387,1.5240369731228354
388,0.0
425,0.0
450,0.0
451,0.0
452,9.931204117111927
453,0.0
490,0.0
515,0.0
516,0.0
542,0.0
592,3097615.826174085
632,1916837.3756845908
686,0.6164629631611334
687,0.5
688,1.25
2,21, 1,21, 0,12, 0.00,10.00,Monday
250,22.345278016735385
251,5043325.226365597
336,0.0
385,22.22
386,27.28
387,1.7430394699700575
388,0.0
425,0.0
450,0.0
451,0.0
452,10.569907473336311
453,0.0
490,0.0
515,0.0
516,0.0
542,0.0
592,3094404.934196284
632,1893922.9636237347
686,0.6145003503649819
687,0.5
688,1.25
2,21, 1,21, 0,12,10.00,20.00,Monday
250,22.34662155285444
251,5019236.738891787
336,0.0
385,22.22
386,27.28
387,1.9502611988678984
388,0.0
425,0.0
450,0.0
451,0.0
452,11.070668504296012
453,0.0
490,0.0
515,0.0
516,0.0
542,0.0
592,3090512.226831751
632,1873812.7637498514
686,0.6123649106820177
687,0.5
688,1.25
2,21, 1,21, 0,12,20.00,30.00,Monday
250,22.347940988488286
251,4993390.599716747
336,0.0
385,22.22
386,27.28
387,2.1421407508174726
388,0.0
425,0.0
450,0.0
451,0.0
452,11.442265140815596
453,0.0
490,0.0
515,0.0
516,0.0
542,0.0
592,3081061.891408227
632,1858004.8701685562
686,0.6100709491380856
687,0.4966307449789561
688,1.25
2,21, 1,21, 0,12,30.00,40.00,Monday
250,22.348598076861236
251,4974022.907320166
336,0.0
385,22.22
386,27.28
387,2.3143471969389426
388,0.0
425,0.0
450,0.0
451,0.0
452,11.687289540369973
453,0.0
490,0.0
515,0.0
516,0.0
542,0.0
592,3066397.956539511
632,1854546.3513882556
686,0.6082510555246532
687,0.48848080117612225
688,1.25
2,21, 1,21, 0,12,40.00,50.00,Monday
250,22.349042156972924
251,4961168.029851406
336,0.0
385,22.22
386,27.28
387,2.4634420205261183
388,0.0
425,0.0
450,0.0
451,0.0
452,11.781921640319968
453,0.0
490,0.0
515,0.0
516,0.0
542,0.0
592,3057800.3179569556
632,1851154.3083605967
686,0.6069840682625642
687,0.4830506868884471
688,1.25
2,21, 1,21, 0,12,50.00,60.00,Monday
250,22.349419474467545
251,4950542.616485795
336,0.0
385,22.22
386,27.28
387,2.588604108094417
388,0.0
425,0.0
450,0.0
451,0.0
452,11.734856242503893
453,0.0
490,0.0
515,0.0
516,0.0
542,0.0
592,3051706.0470507643
632,1847305.5783870213
686,0.6058891061901234
687,0.47889725876897093
688,1.25
2,21, 1,21, 0,13, 0.00,10.00,Monday
250,22.349506953998763
251,4943638.054135005
336,0.0
385,22.22
386,27.28
387,2.6931167067659514
388,0.0
425,0.0
450,0.0
451,0.0
452,11.615704170672885
453,0.0
490,0.0
515,0.0
516,0.0
542,0.0
592,3046067.6975196805
632,1846190.4631401175
686,0.605319634606464
687,0.4780117647724303
688,1.25
2,21, 1,21, 0,13,10.00,20.00,Monday
250,22.352580035389053
251,4897359.364788027
336,0.0
385,22.22
386,27.28
387,2.7826166600555418
388,0.0
425,0.0
450,0.0
451,0.0
452,11.505412898749341
453,0.0
490,0.0
515,0.0
516,0.0
542,0.0
592,3016363.4683212563
632,1831361.8544331067
686,0.6013650441672482
687,0.46960488948602513
688,1.25
2,21, 1,21, 0,13,20.00,30.00,Monday
250,22.35547934755161
251,4839282.878007863
336,0.0
385,22.22
386,27.28
387,2.8622451531282325
388,0.0
425,0.0
450,0.0
451,0.0
452,11.437455087688182
453,0.0
490,0.0
515,0.0
516,0.0
542,0.0
592,2965204.662027339
632,1827832.5056187687
686,0.5967727639667691
687,0.4482094245797066
688,1.25
2,21, 1,21, 0,13,30.00,40.00,Monday
250,22.358339193436105
251,4781419.261247696
336,0.0
385,22.22
386,27.28
387,2.936983419318029
388,0.0
425,0.0
450,0.0
451,0.0
452,11.402934521540683
453,0.0
490,0.0
515,0.0
516,0.0
542,0.0
592,2914336.512515322
632,1824232.1660304659
686,0.5921649626544028
687,0.427008418818323
688,1.25
2,21, 1,21, 0,13,40.00,50.00,Monday
250,22.36114567589761
251,4724831.499085129
336,0.0
385,22.22
386,27.28
387,3.0099220635072452
388,0.0
425,0.0
450,0.0
451,0.0
452,11.385101395395363
453,0.0
490,0.0
515,0.0
516,0.0
542,0.0
592,2864261.5338084227
632,1821108.0149184768
686,0.5876717314092905
687,0.40600401887467163
688,1.25
2,21, 1,21, 0,13,50.00,60.00,Monday
250,22.36390768578929
251,4669000.339578886
336,0.0
385,22.22
386,27.28
387,3.0817030689994125
388,0.0
425,0.0
450,0.0
451,0.0
452,11.373047326588603
453,0.0
490,0.0
515,0.0
516,0.0
542,0.0
592,2815029.325177625
632,1817854.6152169679
686,0.5832159159741939
687,0.3854336148230947
688,1.25
2,21, 1,21, 0,14, 0.00,10.00,Monday
250,22.367944672645784
251,4596297.457701889
336,0.0
385,22.22
386,27.28
387,3.1538760753239172
388,0.0
425,0.0
450,0.0
451,0.0
452,11.330329167503404
453,0.0
490,0.0
515,0.0
516,0.0
542,0.0
592,2758603.825110358
632,1806096.7204474937
686,0.57705016902858
687,0.3587343595355735
688,1.25
2,21, 1,21, 0,14,10.00,20.00,Monday
250,22.36912210704994
251,4558690.0727062365
336,0.0
385,22.22
386,27.28
387,3.2246027465712093
388,0.0
425,0.0
450,0.0
451,0.0
452,11.213365575547627
453,0.0
490,0.0
515,0.0
516,0.0
542,0.0
592,2716977.31464754
632,1813888.9165744788
686,0.5742430667126002
687,0.3334611306468194
688,1.25
2,21, 1,21, 0,14,20.00,30.00,Monday
250,22.370606379255857
251,4528506.40710107
336,0.0
385,22.22
386,27.28
387,3.2892340814781984
388,0.0
425,0.0
450,0.0
451,0.0
452,11.021027095256855
453,0.0
490,0.0
515,0.0
516,0.0
542,0.0
592,2694343.782686816
632,1808492.660344341
686,0.571602650059402
687,0.3208024971191396
688,1.25
2,21, 1,21, 0,14,30.00,40.00,Monday
250,22.37113829035136
251,4510981.757046608
336,0.0
385,22.22
386,27.28
387,3.34025086542693
388,0.0
425,0.0
450,0.0
451,0.0
452,10.73847655557909
453,0.0
490,0.0
515,0.0
516,0.0
542,0.0
592,2679189.0395364836
632,1807761.0142755136
686,0.5700752307104506
687,0.3103851659372018
688,1.25
2,21, 1,21, 0,14,40.00,50.00,Monday
250,22.371009276175407
251,4510432.04952243
336,0.0
385,22.22
386,27.28
387,3.371499508275423
388,0.0
425,0.0
450,0.0
451,0.0
452,10.330862376880528
453,0.0
490,0.0
515,0.0
516,0.0
542,0.0
592,2677179.2906113714
632,1810045.5872344314