Program Version,EnergyPlus, Version 24.2.0-94a887817b, YMD=2025.02.04 17:10
1,5,Environment Title[],Latitude[deg],Longitude[deg],Time Zone[],Elevation[m]
2,8,Day of Simulation[],Month[],Day of Month[],DST Indicator[1=yes 0=no],Hour[],StartMinute[],EndMinute[],DayType
3,5,Cumulative Day of Simulation[],Month[],Day of Month[],DST Indicator[1=yes 0=no],DayType  ! When Daily Report Variables Requested
4,2,Cumulative Days of Simulation[],Month[]  ! When Monthly Report Variables Requested
5,1,Cumulative Days of Simulation[] ! When Run Period Report Variables Requested
6,1,Calendar Year of Simulation[] ! When Annual Report Variables Requested
250,1,LIVING ZONE,Zone Air Temperature [C] !TimeStep,REPORTSCH
251,1,LIVING ZONE,Zone Air System Sensible Heating Energy [J] !TimeStep,REPORTSCH
336,1,LIVING ZONE,Zone Air System Sensible Cooling Energy [J] !TimeStep,REPORTSCH
385,1,LIVING ZONE,Zone Thermostat Heating Setpoint Temperature [C] !TimeStep,REPORTSCH
386,1,LIVING ZONE,Zone Thermostat Cooling Setpoint Temperature [C] !TimeStep,REPORTSCH
387,1,GARAGE ZONE,Zone Air Temperature [C] !TimeStep,REPORTSCH
388,1,GARAGE ZONE,Zone Air System Sensible Heating Energy [J] !TimeStep,REPORTSCH
425,1,GARAGE ZONE,Zone Air System Sensible Cooling Energy [J] !TimeStep,REPORTSCH
450,1,GARAGE ZONE,Zone Thermostat Heating Setpoint Temperature [C] !TimeStep,REPORTSCH
451,1,GARAGE ZONE,Zone Thermostat Cooling Setpoint Temperature [C] !TimeStep,REPORTSCH
452,1,ATTIC ZONE,Zone Air Temperature [C] !TimeStep,REPORTSCH
453,1,ATTIC ZONE,Zone Air System Sensible Heating Energy [J] !TimeStep,REPORTSCH
490,1,ATTIC ZONE,Zone Air System Sensible Cooling Energy [J] !TimeStep,REPORTSCH
515,1,ATTIC ZONE,Zone Thermostat Heating Setpoint Temperature [C] !TimeStep,REPORTSCH
516,1,ATTIC ZONE,Zone Thermostat Cooling Setpoint Temperature [C] !TimeStep,REPORTSCH
542,1,ACDXCOIL 1,Cooling Coil Total Cooling Energy [J] !TimeStep,REPORTSCH
592,1,HEAT PUMP DX HEATING COIL 1,Heating Coil Heating Energy [J] !TimeStep,REPORTSCH
632,1,SUPP HEATING COIL 1,Heating Coil Heating Energy [J] !TimeStep,REPORTSCH
686,1,TWOSPEED HEAT PUMP 1,Unitary System DX Coil Cycling Ratio [] !TimeStep,REPORTSCH
687,1,TWOSPEED HEAT PUMP 1,Unitary System DX Coil Speed Ratio [] !TimeStep,REPORTSCH
688,1,TWOSPEED HEAT PUMP 1,Unitary System DX Coil Speed Level [] !TimeStep,REPORTSCH
End of Data Dictionary
1,YEARSIMULATION,  41.98, -87.92,  -6.00, 201.00
2,21, 1,21, 0, 1, 0.00,10.00,Sunday
250,24.024699837965528
251,7301375.3032609625
336,0.0
385,24.49
386,26.51
387,0.6296628293663172
388,0.0
425,0.0
450,0.0
451,0.0
452,-1.6001663865324531
453,0.0
490,0.0
515,0.0
516,0.0
542,0.0
592,4878596.3237263085
632,2959848.938236742
686,1.0
687,1.0
688,2.0
2,21, 1,21, 0, 1,10.00,20.00,Sunday
250,24.445855309746793
251,8410797.3370527
336,0.0
385,24.49
386,26.51
387,0.6010843182112195
388,0.0
425,0.0
450,0.0
451,0.0
452,-1.5892957534049807
453,0.0
490,0.0
515,0.0
516,0.0
542,0.0
592,4860297.128483826
632,3413508.355686929
686,1.0
687,1.0
688,2.0
2,21, 1,21, 0, 1,20.00,30.00,Sunday
250,23.365846574191515
251,6266197.343759815
336,0.0
385,23.15666666666668
386,26.510000000000023
387,0.5780145316344026
388,0.0
425,0.0
450,0.0
451,0.0
452,-1.5821708677368345
453,0.0
490,0.0
515,0.0
516,0.0
542,0.0
592,2676892.1310227094
632,3500614.4996212972
686,0.5726433520519866
687,0.5000000000000004
688,1.1666666666666674
2,21, 1,21, 0, 1,30.00,40.00,Sunday
250,23.789290005071628
251,6163753.726669842
336,0.0
385,23.823333333333352
386,26.510000000000026
387,0.5538530485657285
388,0.0
425,0.0
450,0.0
451,0.0
452,-1.5765394349431654
453,0.0
490,0.0
515,0.0
516,0.0
542,0.0
592,3525578.178274437
632,2569312.336048357
686,0.7546191626056159
687,0.6666666666666672
688,1.6666666666666679
2,21, 1,21, 0, 1,40.00,50.00,Sunday
250,24.02684654329394
251,7374385.83121275
336,0.0
385,24.49
386,26.51
387,0.5249613770307855
388,0.0
425,0.0
450,0.0
451,0.0
452,-1.5717928595576682
453,0.0
490,0.0
515,0.0
516,0.0
542,0.0
592,4815280.16482349
632,3094834.0701171383
686,1.0
687,1.0
688,2.0
2,21, 1,21, 0, 1,50.00,60.00,Sunday
250,24.446118706723695
251,8483296.675323272
336,0.0
385,24.49
386,26.51
387,0.49949605888266735
388,0.0
425,0.0
450,0.0
451,0.0
452,-1.5694188411519006
453,0.0
490,0.0
515,0.0
516,0.0
542,0.0
592,4797025.2760052085
632,3548731.3126567956
686,1.0
687,1.0
688,2.0
2,21, 1,21, 0, 2, 0.00,10.00,Sunday
250,23.36298971043436
251,6321953.604993669
336,0.0
385,23.156666666666666
386,26.509999999999998
387,0.47798025016465073
388,0.0
425,0.0
450,0.0
451,0.0
452,-1.5701929707178537
453,0.0
490,0.0
515,0.0
516,0.0
542,0.0
592,2662523.856996824
632,3571581.1217324072
686,0.5760651472570939
687,0.5
688,1.1666666666666667
2,21, 1,21, 0, 2,10.00,20.00,Sunday
250,23.790055054798078
251,6209696.576268266
336,0.0
385,23.82333333333333
386,26.509999999999998
387,0.45494507732679035
388,0.0
425,0.0
450,0.0
451,0.0
452,-1.5740982658711116
453,0.0
490,0.0
515,0.0
516,0.0
542,0.0
592,3516051.960174323
632,2621228.6248760885
686,0.7585388877206389
687,0.6666666666666667
688,1.6666666666666667
2,21, 1,21, 0, 2,20.00,30.00,Sunday
250,24.02795839110229
251,7402090.2185940305
336,0.0
385,24.49
386,26.51
387,0.4268329921397331
388,0.0
425,0.0
450,0.0
451,0.0
452,-1.5822848607848905
453,0.0
490,0.0
515,0.0
516,0.0
542,0.0
592,4799452.776260234
632,3137648.379007731
686,1.0
687,1.0
688,2.0
2,21, 1,21, 0, 2,30.00,40.00,Sunday
250,24.446236311499263
251,8496793.809055585
336,0.0
385,24.49
386,26.51
387,0.4016221651320563
388,0.0
425,0.0
450,0.0
451,0.0
452,-1.5931047930533329
453,0.0
490,0.0
515,0.0
516,0.0
542,0.0
592,4797025.27600521
632,3561947.8071668465
686,1.0
687,1.0
688,2.0
2,21, 1,21, 0, 2,40.00,50.00,Sunday
250,23.362451928252327
251,6332369.273528537
336,0.0
385,23.15666666666663
386,26.50999999999997
387,0.37986927755287103
388,0.0
425,0.0
450,0.0
451,0.0
452,-1.6061995792423078
453,0.0
490,0.0
515,0.0
516,0.0
542,0.0
592,2664392.5184373674
632,3580306.068884518
686,0.5766045652746942
687,0.49999999999999933
688,1.166666666666665
2,21, 1,21, 0, 2,50.00,60.00,Sunday
250,23.790189321930367
251,6219777.302326115
336,0.0
385,23.823333333333352
386,26.510000000000026
387,0.3563002957741178
388,0.0
425,0.0
450,0.0
451,0.0
452,-1.622532288788625
453,0.0
490,0.0
515,0.0
516,0.0
542,0.0
592,3518355.42428688
632,2628419.5621918007
686,0.7592042071412298
687,0.6666666666666672
688,1.6666666666666679
2,21, 1,21, 0, 3, 0.00,10.00,Sunday
250,24.028416671525548
251,7423174.349131722
336,0.0
385,24.49
386,26.51
387,0.3278181587245093
388,0.0
425,0.0
450,0.0
451,0.0
452,-1.6415130280235788
453,0.0
490,0.0
515,0.0
516,0.0
542,0.0
592,4799452.217362868
632,3158788.759431455
686,1.0
687,1.0
688,2.0
2,21, 1,21, 0, 3,10.00,20.00,Sunday
250,24.44630163163763
251,8528145.692974698
336,0.0
385,24.49
386,26.51
387,0.3031877187084042
388,0.0
425,0.0
450,0.0
451,0.0
452,-1.653785430063882
453,0.0
490,0.0
515,0.0
516,0.0
542,0.0
592,4797025.27600521
632,3593187.2633328857
686,1.0
687,1.0
688,2.0
2,21, 1,21, 0, 3,20.00,30.00,Sunday
250,23.360329028550353
251,6372764.99451986
336,0.0
385,23.15666666666668
386,26.510000000000023
387,0.2830731709406578
388,0.0
425,0.0
450,0.0
451,0.0
452,-1.65802914533227
453,0.0
490,0.0
515,0.0
516,0.0
542,0.0
592,2671482.1029949402
632,3614316.272722564
686,0.5786510491539407
687,0.5000000000000004
688,1.1666666666666674
2,21, 1,21, 0, 3,30.00,40.00,Sunday
250,23.791070923691176
251,6275483.527931809
336,0.0
385,23.823333333333352
386,26.510000000000026
387,0.2623042023772077
388,0.0
425,0.0
450,0.0
451,0.0
452,-1.6580540316458736
453,0.0
490,0.0
515,0.0
516,0.0
542,0.0
592,3533320.195656077
632,2665069.000116927
686,0.7635271561550881
687,0.6666666666666672
688,1.6666666666666679
2,21, 1,21, 0, 3,40.00,50.00,Sunday
250,24.029697235559908
251,7474325.538434109
336,0.0
385,24.49
386,26.51
387,0.23790893243007935
388,0.0
425,0.0
450,0.0
451,0.0
452,-1.65358100107924
453,0.0
490,0.0
515,0.0
516,0.0
542,0.0
592,4799448.256591777
632,3209131.385907221
686,1.0
687,1.0
688,2.0
2,21, 1,21, 0, 3,50.00,60.00,Sunday
250,24.446455939759836
251,8578169.28467078
336,0.0
385,24.49
386,26.51
387,0.21721025312178535
388,0.0
425,0.0
450,0.0
451,0.0
452,-1.6459711153334022
453,0.0
490,0.0
515,0.0
516,0.0
542,0.0
592,4797025.276005209
632,3642882.108896601
686,1.0
687,1.0
688,2.0
2,21, 1,21, 0, 4, 0.00,10.00,Sunday
250,23.35416342407446
251,6489589.277169753
336,0.0
385,23.156666666666666
386,26.509999999999998
387,0.19597504410905056
388,0.0
425,0.0
450,0.0
451,0.0
452,-1.6382724750792264
453,0.0
490,0.0
515,0.0
516,0.0
542,0.0
592,2689408.4616992753
632,3715257.087916592
686,0.5846330220658064
687,0.5
688,1.1666666666666667
2,21, 1,21, 0, 4,10.00,20.00,Sunday
250,23.794379311608356
251,6473091.5014898
336,0.0
385,23.82333333333333
386,26.509999999999998
387,0.1699359036549991
388,0.0
425,0.0
450,0.0
451,0.0
452,-1.631571345841667
453,0.0
490,0.0
515,0.0
516,0.0
542,0.0
592,3581497.400206433
632,2799010.0103157572
686,0.7796809215422478
687,0.6666666666666667
688,1.6666666666666667
2,21, 1,21, 0, 4,20.00,30.00,Sunday
250,24.034021338362194
251,7724244.341098939
336,0.0
385,24.49
386,26.51
387,0.13516528477067763
388,0.0
425,0.0
450,0.0
451,0.0
452,-1.6268008462979047
453,0.0
490,0.0
515,0.0
516,0.0
542,0.0
592,4785013.795180369
632,3470136.70824865
686,1.0
687,1.0
688,2.0
2,21, 1,21, 0, 4,30.00,40.00,Sunday
250,24.44701487023685
251,8901058.115821153
336,0.0
385,24.49
386,26.51
387,0.10220486992334099
388,0.0
425,0.0
450,0.0
451,0.0
452,-1.627566344650032
453,0.0
490,0.0
515,0.0
516,0.0
542,0.0
592,4776577.136259315
632,3985102.3425989933
686,1.0
687,1.0
688,2.0
2,21, 1,21, 0, 4,40.00,50.00,Sunday
250,23.337062994391555
251,6813779.14027642
336,0.0
385,23.15666666666663
386,26.50999999999997
387,0.0722895266503839
388,0.0
425,0.0
450,0.0
451,0.0
452,-1.634442029768157
453,0.0
490,0.0
515,0.0
516,0.0
542,0.0
592,2735358.510753204
632,3999186.219097348
686,0.6014928083625479
687,0.49999999999999933
688,1.166666666666665
2,21, 1,21, 0, 4,50.00,60.00,Sunday
250,23.799943594856714
251,6825565.347549163
336,0.0
385,23.823333333333352
386,26.510000000000026
387,0.03885697729831942
388,0.0
425,0.0
450,0.0
451,0.0
452,-1.6448151418256922
453,0.0
490,0.0
515,0.0
516,0.0
542,0.0
592,3664919.0570213883
632,3041588.057334574
686,0.8089055627008317
687,0.6666666666666672
688,1.6666666666666679
2,21, 1,21, 0, 5, 0.00,10.00,Sunday
250,24.040170042786126
251,7926102.571926146
336,0.0
385,24.49
386,26.51
387,0.0058542498959123215
388,0.0
425,0.0
450,0.0
451,0.0
452,-1.6552049357800964
453,0.0
490,0.0
515,0.0
516,0.0
542,0.0
592,4763314.482025955
632,3686874.612622348
686,1.0
687,1.0
688,2.0
2,21, 1,21, 0, 5,10.00,20.00,Sunday
250,24.44765739782609
251,8995514.997509599
336,0.0
385,24.49
386,26.51
387,-0.013799589155616545
388,0.0
425,0.0
450,0.0
451,0.0
452,-1.6576675602451652
453,0.0
490,0.0
515,0.0
516,0.0
542,0.0
592,4753796.85020029
632,4100725.5012395107
686,1.0
687,1.0
688,2.0
2,21, 1,21, 0, 5,20.00,30.00,Sunday
250,23.338263831817414
251,6791971.201132956
336,0.0
385,23.15666666666668
386,26.510000000000023
387,-0.023437523376667123
388,0.0
425,0.0
450,0.0
451,0.0
452,-1.650447593890334
453,0.0
490,0.0
515,0.0
516,0.0
542,0.0
592,2719662.812187601
632,3992588.88708454
686,0.6008399937775992
687,0.5000000000000004
688,1.1666666666666674
2,21, 1,21, 0, 5,30.00,40.00,Sunday
250,23.79745001035975
251,6680322.651907965
336,0.0
385,23.823333333333352
386,26.510000000000026
387,-0.030706838424287834
388,0.0
425,0.0
450,0.0
451,0.0
452,-1.635139584193693
453,0.0
490,0.0
515,0.0
516,0.0
542,0.0
592,3606013.368422103
632,2966916.493114691
686,0.7970531157196296
687,0.6666666666666672
688,1.6666666666666679
2,21, 1,21, 0, 5,40.00,50.00,Sunday
250,24.037914769113048
251,7791616.506004967
336,0.0
385,24.49
386,26.51
387,-0.036607439528322606
388,0.0
425,0.0
450,0.0
451,0.0
452,-1.6090342911186877
453,0.0
490,0.0
515,0.0
516,0.0
542,0.0
592,4735793.155041572
632,3582806.226271011
686,1.0
687,1.0
688,2.0
2,21, 1,21, 0, 5,50.00,60.00,Sunday
250,24.447405772057465
251,8858370.243711898
336,0.0
385,24.49
386,26.51
387,-0.039477699759103785
388,0.0
425,0.0
450,0.0
451,0.0
452,-1.5797713349710039
453,0.0
490,0.0
515,0.0
516,0.0
542,0.0
592,4725491.416569139
632,3992480.392464591
686,1.0
687,1.0
688,2.0
2,21, 1,21, 0, 6, 0.00,10.00,Sunday
250,23.341011301718332
251,6739977.552504142
336,0.0
385,23.156666666666666
386,26.509999999999998
387,-0.048498508561021496
388,0.0
425,0.0
450,0.0
451,0.0
452,-1.556158088849436
453,0.0
490,0.0
515,0.0
516,0.0
542,0.0
592,2697581.106376765
632,3961682.9665282834
686,0.5986777168079428
687,0.5
688,1.1666666666666667
2,21, 1,21, 0, 6,10.00,20.00,Sunday
250,23.798363511812255
251,6717221.282506033
336,0.0
385,23.82333333333333
386,26.509999999999998
387,-0.0642024285324489
388,0.0
425,0.0
450,0.0
451,0.0
452,-1.5400833491278874
453,0.0
490,0.0
515,0.0
516,0.0
542,0.0
592,3600468.9719016356
632,3005276.2329891957
686,0.8006384422991979
687,0.6666666666666667
688,1.6666666666666667
2,21, 1,21, 0, 6,20.00,30.00,Sunday
250,24.039182514350024
251,7917185.078357753
336,0.0
385,24.49
386,26.51
387,-0.08906706009431829
388,0.0
425,0.0
450,0.0
451,0.0
452,-1.5337722555269897
453,0.0
490,0.0
515,0.0
516,0.0
542,0.0
592,4715805.9840912325
632,3727903.745244542
686,1.0
687,1.0
688,2.0
2,21, 1,21, 0, 6,30.00,40.00,Sunday
250,24.447603010387095
251,9071483.146726161
336,0.0
385,24.49
386,26.51
387,-0.1152883794405623
388,0.0
425,0.0
450,0.0
451,0.0
452,-1.5417779325512129
453,0.0
490,0.0
515,0.0
516,0.0
542,0.0
592,4708228.858139927
632,4222544.2210321175
686,1.0
687,1.0
688,2.0
2,21, 1,21, 0, 6,40.00,50.00,Sunday
250,23.329686324598473
251,6954386.950889361
336,0.0
385,23.15666666666663
386,26.50999999999997
387,-0.14130565094758227
388,0.0
425,0.0
450,0.0
451,0.0
452,-1.5615190053249992
453,0.0
490,0.0
515,0.0
516,0.0
542,0.0
592,2725945.0100864614
632,4151502.87643232
686,0.6101437435402608
687,0.49999999999999933
688,1.166666666666665
2,21, 1,21, 0, 6,50.00,60.00,Sunday
250,23.802102285452598
251,6949677.223927052
336,0.0
385,23.823333333333352
386,26.510000000000026
387,-0.17137296096291424
388,0.0
425,0.0
450,0.0
451,0.0
452,-1.5899376432134613
453,0.0
490,0.0
515,0.0
516,0.0
542,0.0
592,3652973.1264847517
632,3167369.5798373483
686,0.8205613883016518
687,0.6666666666666672
688,1.6666666666666679
2,21, 1,21, 0, 7, 0.00,10.00,Sunday
250,24.043144590984912
251,8084505.799035845
336,0.0
385,24.49
386,26.51
387,-0.21425940038653626
388,0.0
425,0.0
450,0.0
451,0.0
452,-1.642169888182074
453,0.0
490,0.0
515,0.0
516,0.0
542,0.0
592,4724002.605419912
632,3882366.6552080256
686,1.0
687,1.0
688,2.0
2,21, 1,21, 0, 7,10.00,20.00,Sunday
250,24.44801534015027
251,9205722.729785703
336,0.0
385,24.49
386,26.51
387,-0.26056374183717157
388,0.0
425,0.0
450,0.0
451,0.0
452,-1.7240214560480007
453,0.0
490,0.0
515,0.0
516,0.0
542,0.0
592,4741052.506580858
632,4322920.231507245
686,1.0
687,1.0
688,2.0
2,21, 1,21, 0, 7,20.00,30.00,Sunday
250,23.324591755467466
251,7050180.426210343
336,0.0
385,23.15666666666668
386,26.510000000000023
387,-0.30889008354556885
388,0.0
425,0.0
450,0.0
451,0.0
452,-1.8405394472356131
453,0.0
490,0.0
515,0.0
516,0.0
542,0.0
592,2771949.0765785878
632,4203200.279457582
686,0.6138589740730482
687,0.5000000000000004
688,1.1666666666666674
2,21, 1,21, 0, 7,30.00,40.00,Sunday
250,23.802482133326002
251,7009658.097676796
336,0.0
385,23.823333333333352
386,26.510000000000026
387,-0.36754483617190226
388,0.0
425,0.0
450,0.0
451,0.0
452,-1.9986176034199237
453,0.0
490,0.0
515,0.0
516,0.0
542,0.0
592,3726568.33013201
632,3151732.3523330707
686,0.8235168474621776
687,0.6666666666666672
688,1.6666666666666679
2,21, 1,21, 0, 7,40.00,50.00,Sunday
250,24.043655049420302
251,8135443.507133969
336,0.0
385,24.49
386,26.51
387,-0.4473383729817511
388,0.0
425,0.0
450,0.0
451,0.0
452,-2.2204398712343374
453,0.0
490,0.0
515,0.0
516,0.0
542,0.0
592,4804952.507177915
632,3851473.969983064
686,1.0
687,1.0
688,2.0
2,21, 1,21, 0, 7,50.00,60.00,Sunday
250,24.448064662327617
251,9261501.947791822
336,0.0
385,24.49
386,26.51
387,-0.5252868748829037
388,0.0
425,0.0
450,0.0
451,0.0
452,-2.447649985439244
453,0.0
490,0.0
515,0.0
516,0.0
542,0.0
592,4818833.098640986
632,4300759.097326742
686,1.0
687,1.0
688,2.0
2,21, 1,21, 0, 8, 0.00,10.00,Sunday
250,23.32179412528388
251,7102192.978044819
336,0.0
385,23.156666666666666
386,26.509999999999998
387,-0.588835177424067
388,0.0
425,0.0
450,0.0
451,0.0
452,-2.652258964863316
453,0.0
490,0.0
515,0.0
516,0.0
542,0.0
592,2815447.634752179
632,4212870.690338927
686,0.615042454757953
687,0.5
688,1.1666666666666667
2,21, 1,21, 0, 8,10.00,20.00,Sunday
250,23.80181926298678
251,6999291.68685306
336,0.0
385,23.82333333333333
386,26.509999999999998
387,-0.6451074123898374
388,0.0
425,0.0
450,0.0
451,0.0
452,-2.7883127120490188
453,0.0
490,0.0
515,0.0
516,0.0
542,0.0
592,3763157.79180029
632,3107771.463518191
686,0.8209680805922583
687,0.6666666666666667
688,1.6666666666666667
2,21, 1,21, 0, 8,20.00,30.00,Sunday
250,24.042869375946427
251,8082249.276799614
336,0.0
385,24.49
386,26.51
387,-0.7006487042728176
388,0.0
425,0.0
450,0.0
451,0.0
452,-2.8289431741576783
453,0.0
490,0.0
515,0.0
516,0.0
542,0.0
592,4855307.926906368
632,3748186.1100954693
686,1.0
687,1.0
688,2.0
2,21, 1,21, 0, 8,30.00,40.00,Sunday
250,24.447961215624858
251,9137026.246510424
336,0.0
385,24.49
386,26.51
387,-0.7349831582983455
388,0.0
425,0.0
450,0.0
451,0.0
452,-2.7379840874210393
453,0.0
490,0.0
515,0.0
516,0.0
542,0.0
592,4860858.679864949
632,4134429.6227011494
686,1.0
687,1.0
688,2.0
2,21, 1,21, 0, 8,40.00,50.00,Sunday
250,23.33292949404512
251,6890702.511047404
336,0.0
385,23.15666666666663
386,26.50999999999997
387,-0.7456268038088206
388,0.0
425,0.0
450,0.0
451,0.0
452,-2.524774201786864
453,0.0
490,0.0
515,0.0
516,0.0
542,0.0
592,2799844.3514715973
632,4013267.0479012053
686,0.6035996349722774
687,0.49999999999999933
688,1.166666666666665
2,21, 1,21, 0, 8,50.00,60.00,Sunday
250,23.797599447700946
251,6732168.399108463
336,0.0
385,23.823333333333352
386,26.510000000000026
387,-0.7408042251404039
388,0.0
425,0.0
450,0.0
451,0.0
452,-2.208408264741796
453,0.0
490,0.0
515,0.0
516,0.0
542,0.0
592,3718887.595220479
632,2904806.3628496397
686,0.799032069218233
687,0.6666666666666672
688,1.6666666666666679
2,21, 1,21, 0, 9, 0.00,10.00,Sunday
250,24.423058241650466
251,8649832.609260324
336,0.0
385,24.49
386,26.51
387,-0.7154671495427078
388,0.0
425,0.0
450,0.0
451,0.0
452,-1.794065409261682
453,0.0
490,0.0
515,0.0
516,0.0
542,0.0
592,4899244.47633786
632,3672847.906260673
686,1.0
687,1.0
688,2.0
2,21, 1,21, 0, 9,10.00,20.00,Sunday
250,23.409487410590003
251,6063475.339970884
336,0.0
385,23.290000000000003
386,26.51
387,-0.671053269520211
388,0.0
425,0.0
450,0.0
451,0.0
452,-1.3165262790897594
453,0.0
490,0.0
515,0.0
516,0.0
542,0.0
592,2644320.322391673
632,3435286.67448416
686,0.5913207559668486
687,0.4
688,1.0
2,21, 1,21, 0, 9,20.00,30.00,Sunday
250,23.768377651515408
251,8131417.304322328
336,0.0
385,23.823333333333323
386,26.50999999999999
387,-0.6099636073147936
388,0.0
425,0.0
450,0.0
451,0.0
452,-0.7712822410686637
453,0.0
490,0.0
515,0.0
516,0.0
542,0.0
592,4691806.891099748
632,3391930.983534261
686,0.9999999999999996
687,0.8240436234858634
688,1.9999999999999991
2,21, 1,21, 0, 9,30.00,40.00,Sunday
250,23.806689706291003
251,6268877.629885198
336,0.0
385,23.82333333333334
386,26.510000000000012
387,-0.5133781005911079
388,0.0
425,0.0
450,0.0
451,0.0
452,-0.012733670501928473
453,0.0
490,0.0
515,0.0
516,0.0
542,0.0
592,3574625.9492485896
632,2565944.9358238718
686,0.7433883695456969
687,0.6666666666666667
688,1.666666666666667
2,21, 1,21, 0, 9,40.00,50.00,Sunday
250,23.824648601923826
251,7639605.591174113
336,0.0
385,23.823333333333352
386,26.510000000000026
387,-0.4282662517275023
388,0.0
425,0.0
450,0.0
451,0.0
452,0.6305985477744283
453,0.0
490,0.0
515,0.0
516,0.0
542,0.0
592,3411743.3048470905
632,4031364.3302375604
686,0.8160669282311325
687,0.3541738026371597
688,1.6666666666666679
2,21, 1,21, 0, 9,50.00,60.00,Sunday
250,24.425196086794664
251,8381617.988594899
336,0.0
385,24.49
386,26.51
387,-0.3549334029486474
388,0.0
425,0.0
450,0.0
451,0.0
452,1.1457138619370586
453,0.0
490,0.0
515,0.0
516,0.0
542,0.0
592,4987886.41021877
632,3308824.3387947874
686,1.0
687,1.0
688,2.0
2,21, 1,21, 0,10, 0.00,10.00,Sunday
250,23.35561951344647
251,6441033.268559927
336,0.0
385,23.156666666666666
386,26.509999999999998
387,-0.2822267362006005
388,0.0
425,0.0
450,0.0
451,0.0
452,1.6106768356615602
453,0.0
490,0.0
515,0.0
516,0.0
542,0.0
592,2796746.1035977704
632,3559527.352230481
686,0.578839516940817
687,0.5
688,1.1666666666666667
2,21, 1,21, 0,10,10.00,20.00,Sunday
250,23.78919719256441
251,6214218.959733328
336,0.0
385,23.82333333333333
386,26.509999999999998
387,-0.1955450284478323
388,0.0
425,0.0
450,0.0
451,0.0
452,2.121193499165318
453,0.0
490,0.0
515,0.0
516,0.0
542,0.0
592,3698081.7916781083
632,2446623.392052669
686,0.7569067103809763
687,0.6666666666666667
688,1.6666666666666667
2,21, 1,21, 0,10,20.00,30.00,Sunday
250,23.821155581902765
251,7529170.289349908
336,0.0
385,23.823333333333323
386,26.50999999999999
387,-0.0605755639055845
388,0.0
425,0.0
450,0.0
451,0.0
452,2.8125476746304603
453,0.0
490,0.0
515,0.0
516,0.0
542,0.0
592,3401970.570812612
632,3948036.7779359133
686,0.7992402103114141
687,0.3333333333333332
688,1.3333333333333328
2,21, 1,21, 0,10,30.00,40.00,Sunday
250,23.82151482279918
251,7450719.105696545
336,0.0
385,23.82333333333334
386,26.510000000000012
387,0.0703411120129868
388,0.0
425,0.0
450,0.0
451,0.0
452,3.44391618470711
453,0.0
490,0.0
515,0.0
516,0.0
542,0.0
592,3399637.209282864
632,3872046.278277712
686,0.7925604994279942
687,0.3333333333333332
688,1.3333333333333335
2,21, 1,21, 0,10,40.00,50.00,Sunday
250,23.819849484098008
251,7349791.80141274
336,0.0
385,23.823333333333352
386,26.510000000000026
387,0.20897799367862396
388,0.0
425,0.0
450,0.0
451,0.0
452,4.120916326832964
453,0.0
490,0.0
515,0.0
516,0.0
542,0.0
592,3348479.8270243173
632,3832549.5048794793
686,0.7728064107829942
687,0.3333333333333336
688,1.3333333333333344
2,21, 1,21, 0,10,50.00,60.00,Sunday
250,23.818083043292635
251,7245672.765267149
336,0.0
385,23.823333333333352
386,26.510000000000026
387,0.36537741888181563
388,0.0
425,0.0
450,0.0
451,0.0
452,4.878240370292982
453,0.0
490,0.0
515,0.0
516,0.0
542,0.0
592,3293519.5012045526
632,3794172.9548703646
686,0.7522880976761241
687,0.3333333333333336
688,1.3333333333333344
2,21, 1,21, 0,11, 0.00,10.00,Sunday
250,23.81636668085139
251,7141779.649442124
336,0.0
385,23.82333333333333
386,26.509999999999998
387,0.5351864166393967
388,0.0
425,0.0
450,0.0
451,0.0
452,5.699536951128918
453,0.0
490,0.0
515,0.0
516,0.0
542,0.0
592,3233226.326421365
632,3760885.672837108
686,0.7330566438957926
687,0.3333333333333333
688,1.3333333333333335
2,21, 1,21, 0,11,10.00,20.00,Sunday
250,23.8143551036462
251,7034857.891650048
336,0.0
385,23.82333333333333
386,26.509999999999998
387,0.7158035058847342
388,0.0
425,0.0
450,0.0
451,0.0
452,6.566033838345364
453,0.0
490,0.0
515,0.0
516,0.0
542,0.0
592,3171306.9582602214
632,3725980.302257481
686,0.7135296319072373
687,0.33333333333333337
688,1.3333333333333333
2,21, 1,21, 0,11,20.00,30.00,Sunday
250,23.557218659240185
251,6203760.828282533
336,0.0
385,23.49
386,26.51
387,0.86515960005744
388,0.0
425,0.0
450,0.0
451,0.0
452,7.33909427921206
453,0.0
490,0.0
515,0.0
516,0.0
542,0.0
592,3933418.197473593
632,2128169.716543714
686,0.75
687,0.75
688,1.5
2,21, 1,21, 0,11,30.00,40.00,Sunday
250,23.506296308185107
251,6667251.707034467
336,0.0
385,23.49
386,26.51
387,1.097442589349447
388,0.0
425,0.0
450,0.0
451,0.0
452,8.363364068383529
453,0.0
490,0.0
515,0.0
516,0.0
542,0.0
592,3303934.540406257
632,3295902.3741068216
686,0.6774388470987383
687,0.5
688,1.25
2,21, 1,21, 0,11,40.00,50.00,Sunday
250,23.5091216133716
251,6501673.241413852
336,0.0
385,23.49
386,26.51
387,1.3255846974934582
388,0.0
425,0.0
450,0.0
451,0.0
452,9.236085970838706
453,0.0
490,0.0
515,0.0
516,0.0
542,0.0
592,3316032.330840604
632,3122850.0707278745
686,0.6775656325950216
687,0.5
688,1.25
2,21, 1,21, 0,11,50.00,60.00,Sunday
250,23.781237685200583
251,5225574.129546226
336,0.0
385,23.823333333333352
386,26.510000000000026
387,1.5028768395582919
388,0.0
425,0.0
450,0.0
451,0.0
452,9.884668861203785
453,0.0
490,0.0
515,0.0
516,0.0
542,0.0
592,3630612.963440145
632,1566852.7771984234
686,0.69234243912111
687,0.6666666666666672
688,1.6666666666666679
2,21, 1,21, 0,12, 0.00,10.00,Sunday
250,23.806917358571305
251,6685150.874274375
336,0.0
385,23.82333333333333
386,26.509999999999998
387,1.745657524939289
388,0.0
425,0.0
450,0.0
451,0.0
452,10.600558122188104
453,0.0
490,0.0
515,0.0
516,0.0
542,0.0
592,2939871.6877046144
632,3648908.3724924815
686,0.6399791762114311
687,0.3333333333333333
688,1.3333333333333335
2,21, 1,21, 0,12,10.00,20.00,Sunday
250,24.421316999534945
251,7286179.482855851
336,0.0
385,24.49
386,26.51
387,1.9299914820000437
388,0.0
425,0.0
450,0.0
451,0.0
452,11.06626958708642
453,0.0
490,0.0
515,0.0
516,0.0
542,0.0
592,5313791.733726392
632,1891688.615688009
686,1.0
687,1.0
688,2.0
2,21, 1,21, 0,12,20.00,30.00,Sunday
250,23.556034367962138
251,4890710.185785054
336,0.0
385,23.49
386,26.51
387,2.1438066986867543
388,0.0
425,0.0
450,0.0
451,0.0
452,11.475287034766708
453,0.0
490,0.0
515,0.0
516,0.0
542,0.0
592,3586036.8657272905
632,940983.1461374654
686,0.7416597229482009
687,0.5
688,1.5
2,21, 1,21, 0,12,30.00,40.00,Sunday
250,24.39629176017108
251,8326620.817898462
336,0.0
385,24.49
386,26.51
387,2.3231747935100397
388,0.0
425,0.0
450,0.0
451,0.0
452,11.719730174953003
453,0.0
490,0.0
515,0.0
516,0.0
542,0.0
592,4781904.688843394
632,3543036.256570784
686,1.0
687,0.634027530514564
688,2.0
2,21, 1,21, 0,12,40.00,50.00,Sunday
250,24.484075217052908
251,6631257.670308021
336,0.0
385,24.49
386,26.51
387,2.472915406532632
388,0.0
425,0.0
450,0.0
451,0.0
452,11.814061021022134
453,0.0
490,0.0
515,0.0
516,0.0
542,0.0
592,5335923.472596238
632,1046657.1596814109
686,1.0
687,1.0
688,2.0
2,21, 1,21, 0,12,50.00,60.00,Sunday
250,23.423208382654835
251,5172855.239597444
336,0.0
385,23.15666666666663
386,26.50999999999997
387,2.567855373304845
388,0.0
425,0.0
450,0.0
451,0.0
452,11.764173045694069
453,0.0
490,0.0
515,0.0
516,0.0
542,0.0
592,2490748.66479228
632,2595873.453202091
686,0.5133990575482751
687,0.34419812741950473
688,1.166666666666665
2,21, 1,21, 0,13, 0.00,10.00,Sunday
250,24.378789932323322
251,7083402.820690924
336,0.0
385,24.49
386,26.51
387,2.661635563880009
388,0.0
425,0.0
450,0.0
451,0.0
452,11.664994184383662
453,0.0
490,0.0
515,0.0
516,0.0
542,0.0
592,5339548.690346628
632,1762652.338934364
686,1.0
687,1.0
688,2.0
2,21, 1,21, 0,13,10.00,20.00,Sunday
250,24.481983855641477
251,6310488.198060159
336,0.0
385,24.49
386,26.51
387,2.7652888728693017
388,0.0
425,0.0
450,0.0
451,0.0
452,11.551179657437977
453,0.0
490,0.0
515,0.0
516,0.0
542,0.0
592,5335793.470214101
632,729478.9596952305
686,1.0
687,1.0
688,2.0
2,21, 1,21, 0,13,20.00,30.00,Sunday
250,23.4349403581274
251,4922396.654757397
336,0.0
385,23.15666666666668
386,26.510000000000023
387,2.8383389061332447
388,0.0
425,0.0
450,0.0
451,0.0
452,11.496439105866102
453,0.0
490,0.0
515,0.0
516,0.0
542,0.0
592,2348906.7435435355
632,2496292.714420757
686,0.4820449904413502
687,0.3333333333333336
688,1.0000000000000009
2,21, 1,21, 0,13,30.00,40.00,Sunday
250,24.377347121789697
251,6744997.673702041
336,0.0
385,24.49
386,26.51
387,2.9125780402128907
388,0.0
425,0.0
450,0.0
451,0.0
452,11.461765156465624
453,0.0
490,0.0
515,0.0
516,0.0
542,0.0
592,5234313.698492918
632,1528228.1924368744
686,1.0
687,0.9370875841613449
688,2.0
2,21, 1,21, 0,13,40.00,50.00,Sunday
250,24.4817943418553
251,6083218.802837793
336,0.0
385,24.49
386,26.51
387,2.998790768123081
388,0.0
425,0.0
450,0.0
451,0.0
452,11.438966715106448
453,0.0
490,0.0
515,0.0
516,0.0
542,0.0
592,5324520.0164072765
632,513672.40507529094
686,1.0
687,1.0
688,2.0
2,21, 1,21, 0,13,50.00,60.00,Sunday
250,23.460172707672307
251,4690166.522781143
336,0.0
385,23.15666666666663
386,26.50999999999997
387,3.064235105811877
388,0.0
425,0.0
450,0.0
451,0.0
452,11.427975487155457
453,0.0
490,0.0
515,0.0
516,0.0
542,0.0
592,2156664.3782102033
632,2468131.0840323237
686,0.4610548617456517
687,0.2616104361821918
688,0.8333333333333321
2,21, 1,21, 0,14, 0.00,10.00,Sunday
250,24.38159761925209
251,6671803.769942116
336,0.0
385,24.49
386,26.51
387,3.134324804957015
388,0.0
425,0.0
450,0.0
451,0.0
452,11.386777161049615
453,0.0
490,0.0
515,0.0
516,0.0
542,0.0
592,5216566.048235467
632,1466992.0941094605
686,1.0
687,0.9221975891734722
688,2.0
2,21, 1,21, 0,14,10.00,20.00,Sunday
250,24.482180331774444
251,5955242.888795471
336,0.0
385,24.49
386,26.51
387,3.2162880239588763
388,0.0
425,0.0
450,0.0
451,0.0
452,11.27417543632836
453,0.0
490,0.0
515,0.0
516,0.0
542,0.0
592,5344642.047510483
632,364846.10183993645
686,1.0
687,1.0
688,2.0
2,21, 1,21, 0,14,20.00,30.00,Sunday
250,23.472211922548034
251,4580385.292812081
336,0.0
385,23.15666666666668
386,26.510000000000023
387,3.2747670219360487
388,0.0
425,0.0
450,0.0
451,0.0
452,11.108359626724193
453,0.0
490,0.0
515,0.0
516,0.0
542,0.0
592,2062647.8976655533
632,2460522.2962100287
686,0.4507615523094823
687,0.215181315930135
688,0.833333333333334
2,21, 1,21, 0,14,30.00,40.00,Sunday
250,24.38180197025497
251,6536066.481681236
336,0.0
385,24.49
386,26.51
387,3.325625364982934
388,0.0
425,0.0
450,0.0
451,0.0
452,10.851138693131219
453,0.0
490,0.0
515,0.0
516,0.0
542,0.0
592,5178021.806293422
632,1368254.4042079435
686,1.0
687,0.8731009454078442
688,2.0
2,21, 1,21, 0,14,40.00,50.00,Sunday
250,23.531428564774497
251,4151360.712140815
336,0.0
385,23.49
386,26.51
387,3.375095337786244
388,0.0
425,0.0
450,0.0
451,0.0
452,10.407520686942739
453,0.0
490,0.0
515,0.0
516,0.0
542,0.0
592,3322783.128487057
632,551162.7926740161
686,0.6631236426824125
687,0.5
688,1.5
2,21, 1,21, 0,14,50.00,60.00,Sunday
250,24.391470844959407