Program Version,EnergyPlus, Version 24.1.0-9d7789a3ac, YMD=2025.04.05 15:40
1,5,Environment Title[],Latitude[deg],Longitude[deg],Time Zone[],Elevation[m]
2,8,Day of Simulation[],Month[],Day of Month[],DST Indicator[1=yes 0=no],Hour[],StartMinute[],EndMinute[],DayType
3,5,Cumulative Day of Simulation[],Month[],Day of Month[],DST Indicator[1=yes 0=no],DayType  ! When Daily Meters Requested
4,2,Cumulative Days of Simulation[],Month[]  ! When Monthly Meters Requested
5,1,Cumulative Days of Simulation[] ! When Run Period Meters Requested
6,1,Calendar Year of Simulation[] ! When Annual Meters Requested
11,9,Electricity:Facility [J] !Monthly [Value,Min,Day,Hour,Minute,Max,Day,Hour,Minute]
23,9,Electricity:Building [J] !Monthly [Value,Min,Day,Hour,Minute,Max,Day,Hour,Minute]
59,9,InteriorLights:Electricity [J] !Monthly [Value,Min,Day,Hour,Minute,Max,Day,Hour,Minute]
521,9,Electricity:HVAC [J] !Monthly [Value,Min,Day,Hour,Minute,Max,Day,Hour,Minute]
637,9,NaturalGas:Facility [J] !Monthly [Value,Min,Day,Hour,Minute,Max,Day,Hour,Minute]
649,9,NaturalGas:HVAC [J] !Monthly [Value,Min,Day,Hour,Minute,Max,Day,Hour,Minute]
13,11,Electricity:Facility [J] !RunPeriod [Value,Min,Month,Day,Hour,Minute,Max,Month,Day,Hour,Minute]
25,11,Electricity:Building [J] !RunPeriod [Value,Min,Month,Day,Hour,Minute,Max,Month,Day,Hour,Minute]
61,11,InteriorLights:Electricity [J] !RunPeriod [Value,Min,Month,Day,Hour,Minute,Max,Month,Day,Hour,Minute]
523,11,Electricity:HVAC [J] !RunPeriod [Value,Min,Month,Day,Hour,Minute,Max,Month,Day,Hour,Minute]
639,11,NaturalGas:Facility [J] !RunPeriod [Value,Min,Month,Day,Hour,Minute,Max,Month,Day,Hour,Minute]
651,11,NaturalGas:HVAC [J] !RunPeriod [Value,Min,Month,Day,Hour,Minute,Max,Month,Day,Hour,Minute]
End of Data Dictionary
1,RUN PERIOD 1,  41.98, -87.92,  -6.00, 201.00
4,31, 1
11,7952615040.907468,309130.056111898,10,19,10,3215915.025338452,15,11,10
23,1980108467.8688996,115068.8703226991,11,20,50,1085066.3328402427,31,13,50
59,1035404263.0570664,32016.210978883704, 1, 1,10,640324.219577674, 1, 8,10
521,5972506573.038558,0.0,11,13,40,2204299.197896535,27,20,50
637,15763260203.917463,0.0, 1,10,20,20332910.518586844,31, 7,30
649,15763260203.917463,0.0, 1,10,20,20332910.518586844,31, 7,30
4,59, 2
11,6554815354.2465,253264.23614354167, 9,14,50,-99999999999999.0,15,11,10
23,1746943430.183086,99999999999999.0,11,20,50,-99999999999999.0,31,13,50
59,905162316.7949669,99999999999999.0, 1, 1,10,-99999999999999.0, 1, 8,10
521,4807871924.063455,99999999999999.0,11,13,40,2205428.90096579, 5, 5,40
637,12836845711.80614,99999999999999.0, 1,10,20,21331104.899981, 3, 8,30
649,12836845711.80614,99999999999999.0, 1,10,20,21331104.899981, 3, 8,30
4,90, 3
11,6473367320.264705,100467.26631048508,31,16,60,-99999999999999.0,15,11,10
23,1842976994.3996167,100467.26631048508,31,16,60,1095713.6386405134,18, 9,60
59,957796967.6442456,99999999999999.0, 1, 1,10,-99999999999999.0, 1, 8,10
521,4630390325.865092,99999999999999.0,11,13,40,-99999999999999.0, 5, 5,40
637,9445302900.60687,99999999999999.0, 1,10,20,-99999999999999.0, 3, 8,30
649,9445302900.60687,99999999999999.0, 1,10,20,-99999999999999.0, 3, 8,30
4,120, 4
11,4131461134.646534,32016.210978883704,12,19,10,-99999999999999.0,15,11,10
23,1768231107.933318,32016.210978883704,11,19,10,-99999999999999.0,18, 9,60
59,991990280.969701,99999999999999.0, 1, 1,10,-99999999999999.0, 1, 8,10
521,2363230026.7132044,99999999999999.0,11,13,40,-99999999999999.0, 5, 5,40
637,3710809833.319964,99999999999999.0, 1,10,20,-99999999999999.0, 3, 8,30
649,3710809833.319964,99999999999999.0, 1,10,20,-99999999999999.0, 3, 8,30
4,151, 5
11,3356520550.3800306,99999999999999.0,12,19,10,-99999999999999.0,15,11,10
23,1739936213.5955515,99999999999999.0,11,19,10,-99999999999999.0,18, 9,60
59,1035404263.057065,99999999999999.0, 1, 1,10,-99999999999999.0, 1, 8,10
521,1616584336.7845204,99999999999999.0,11,13,40,-99999999999999.0, 5, 5,40
637,840372328.808734,99999999999999.0, 1,10,20,-99999999999999.0, 3, 8,30
649,840372328.808734,99999999999999.0, 1,10,20,-99999999999999.0, 3, 8,30
4,181, 6
11,3276248881.7811675,99999999999999.0,12,19,10,-99999999999999.0,15,11,10
23,1462653393.726414,99999999999999.0,11,19,10,-99999999999999.0,18, 9,60
59,914382985.5568899,99999999999999.0, 1, 1,10,-99999999999999.0, 1, 8,10
521,1813595488.0547926,99999999999999.0,11,13,40,-99999999999999.0, 5, 5,40
637,39395380.08398101,99999999999999.0, 1,10,20,-99999999999999.0, 3, 8,30
649,39395380.08398101,99999999999999.0, 1,10,20,-99999999999999.0, 3, 8,30
4,212, 7
11,4107614283.22548,99999999999999.0,12,19,10,-99999999999999.0,15,11,10
23,1566128100.8489208,99999999999999.0,11,19,10,-99999999999999.0,18, 9,60
59,1035404263.0570664,99999999999999.0, 1, 1,10,-99999999999999.0, 1, 8,10
521,2541486182.376608,99999999999999.0,11,13,40,-99999999999999.0, 5, 5,40
637,0.0,99999999999999.0, 1,10,20,-99999999999999.0, 3, 8,30
649,0.0,99999999999999.0, 1,10,20,-99999999999999.0, 3, 8,30
4,243, 8
11,3662817262.3803525,99999999999999.0,12,19,10,-99999999999999.0,15,11,10
23,1538467368.3806016,99999999999999.0,11,19,10,-99999999999999.0,18, 9,60
59,996600615.3506544,99999999999999.0, 1, 1,10,-99999999999999.0, 1, 8,10
521,2124349893.999776,99999999999999.0,11,13,40,-99999999999999.0, 5, 5,40
637,10520441.029854124,99999999999999.0, 1,10,20,-99999999999999.0, 3, 8,30
649,10520441.029854124,99999999999999.0, 1,10,20,-99999999999999.0, 3, 8,30
4,273, 9
11,3001641402.4916964,99999999999999.0,12,19,10,-99999999999999.0,15,11,10
23,1547443595.878909,99999999999999.0,11,19,10,-99999999999999.0,18, 9,60
59,953186633.2632958,99999999999999.0, 1, 1,10,-99999999999999.0, 1, 8,10
521,1454197806.612788,99999999999999.0,11,13,40,-99999999999999.0, 5, 5,40
637,67752439.76929556,99999999999999.0, 1,10,20,-99999999999999.0, 3, 8,30
649,67752439.76929556,99999999999999.0, 1,10,20,-99999999999999.0, 3, 8,30
4,304,10
11,3420571410.4318876,99999999999999.0,12,19,10,-99999999999999.0,15,11,10
23,1797924670.852958,99999999999999.0,11,19,10,-99999999999999.0,18, 9,60
59,1035404263.0570664,99999999999999.0, 1, 1,10,-99999999999999.0, 1, 8,10
521,1622646739.578934,99999999999999.0,11,13,40,-99999999999999.0, 5, 5,40
637,1849989409.2251966,99999999999999.0, 1,10,20,-99999999999999.0, 3, 8,30
649,1849989409.2251966,99999999999999.0, 1,10,20,-99999999999999.0, 3, 8,30
4,334,11
11,5461093046.181232,99999999999999.0,12,19,10,-99999999999999.0,15,11,10
23,1776023599.391321,99999999999999.0,11,19,10,-99999999999999.0,18, 9,60
59,953186633.263289,99999999999999.0, 1, 1,10,-99999999999999.0, 1, 8,10
521,3685069446.7899203,99999999999999.0,11,13,40,-99999999999999.0, 5, 5,40
637,7902739272.628614,99999999999999.0, 1,10,20,-99999999999999.0, 3, 8,30
649,7902739272.628614,99999999999999.0, 1,10,20,-99999999999999.0, 3, 8,30
4,365,12
11,6701268320.187593,99999999999999.0,12,19,10,-99999999999999.0,15,11,10
23,1872863080.1774147,99999999999999.0,11,19,10,-99999999999999.0,18, 9,60
59,996600615.3506612,99999999999999.0, 1, 1,10,-99999999999999.0, 1, 8,10
521,4828405240.010151,99999999999999.0,11,13,40,-99999999999999.0, 5, 5,40
637,9924520358.463964,99999999999999.0, 1,10,20,-99999999999999.0, 3, 8,30
649,9924520358.463964,99999999999999.0, 1,10,20,-99999999999999.0, 3, 8,30
5,365
13,58100034007.12438,32016.210978883704, 4,12,19,10,3215915.025338452, 1,15,11,10
25,20639700023.23568,32016.210978883704, 4,11,19,10,1095713.6386405134, 3,18, 9,60
61,11810524100.42606,32016.210978883704, 1, 1, 1,10,640324.219577674, 1, 1, 8,10
523,37460333983.88783,0.0, 1,11,13,40,2205428.90096579, 2, 5, 5,40
639,62391508279.65976,0.0, 1, 1,10,20,21331104.899981, 2, 3, 8,30
651,62391508279.65976,0.0, 1, 1,10,20,21331104.899981, 2, 3, 8,30
End of Data
 Number of Records Written=          78
