Program Version,EnergyPlus, Version 24.2.0-94a887817b, YMD=2025.02.04 15:53
1,5,Environment Title[],Latitude[deg],Longitude[deg],Time Zone[],Elevation[m]
2,8,Day of Simulation[],Month[],Day of Month[],DST Indicator[1=yes 0=no],Hour[],StartMinute[],EndMinute[],DayType
3,5,Cumulative Day of Simulation[],Month[],Day of Month[],DST Indicator[1=yes 0=no],DayType  ! When Daily Report Variables Requested
4,2,Cumulative Days of Simulation[],Month[]  ! When Monthly Report Variables Requested
5,1,Cumulative Days of Simulation[] ! When Run Period Report Variables Requested
6,1,Calendar Year of Simulation[] ! When Annual Report Variables Requested
250,1,LIVING ZONE,Zone Air Temperature [C] !TimeStep,REPORTSCH
251,1,LIVING ZONE,Zone Air System Sensible Heating Energy [J] !TimeStep,REPORTSCH
336,1,LIVING ZONE,Zone Air System Sensible Cooling Energy [J] !TimeStep,REPORTSCH
385,1,LIVING ZONE,Zone Thermostat Heating Setpoint Temperature [C] !TimeStep,REPORTSCH
386,1,LIVING ZONE,Zone Thermostat Cooling Setpoint Temperature [C] !TimeStep,REPORTSCH
387,1,GARAGE ZONE,Zone Air Temperature [C] !TimeStep,REPORTSCH
388,1,GARAGE ZONE,Zone Air System Sensible Heating Energy [J] !TimeStep,REPORTSCH
425,1,GARAGE ZONE,Zone Air System Sensible Cooling Energy [J] !TimeStep,REPORTSCH
450,1,GARAGE ZONE,Zone Thermostat Heating Setpoint Temperature [C] !TimeStep,REPORTSCH
451,1,GARAGE ZONE,Zone Thermostat Cooling Setpoint Temperature [C] !TimeStep,REPORTSCH
452,1,ATTIC ZONE,Zone Air Temperature [C] !TimeStep,REPORTSCH
453,1,ATTIC ZONE,Zone Air System Sensible Heating Energy [J] !TimeStep,REPORTSCH
490,1,ATTIC ZONE,Zone Air System Sensible Cooling Energy [J] !TimeStep,REPORTSCH
515,1,ATTIC ZONE,Zone Thermostat Heating Setpoint Temperature [C] !TimeStep,REPORTSCH
516,1,ATTIC ZONE,Zone Thermostat Cooling Setpoint Temperature [C] !TimeStep,REPORTSCH
542,1,ACDXCOIL 1,Cooling Coil Total Cooling Energy [J] !TimeStep,REPORTSCH
592,1,HEAT PUMP DX HEATING COIL 1,Heating Coil Heating Energy [J] !TimeStep,REPORTSCH
632,1,SUPP HEATING COIL 1,Heating Coil Heating Energy [J] !TimeStep,REPORTSCH
686,1,TWOSPEED HEAT PUMP 1,Unitary System DX Coil Cycling Ratio [] !TimeStep,REPORTSCH
687,1,TWOSPEED HEAT PUMP 1,Unitary System DX Coil Speed Ratio [] !TimeStep,REPORTSCH
688,1,TWOSPEED HEAT PUMP 1,Unitary System DX Coil Speed Level [] !TimeStep,REPORTSCH
End of Data Dictionary
1,RUN PERIOD 1,  41.98, -87.92,  -6.00, 201.00
2,21, 1,21, 0, 1, 0.00,10.00,Monday
250,26.49224133628209
251,72648.84002070507
336,6985449.727946231
385,22.763333333333335
386,24.486666666666665
387,0.8111649388058844
388,0.0
425,0.0
450,0.0
451,0.0
452,-1.5956501140571215
453,0.0
490,0.0
515,0.0
516,0.0
542,7551455.723249463
592,77334.20098770323
632,0.0
686,0.8553126029304502
687,0.8333333333333334
688,1.8333333333333333
2,21, 1,21, 0, 1,10.00,20.00,Monday
250,26.214221599480794
251,0.0
336,6092477.311181979
385,22.43
386,23.82
387,0.7783850783740843
388,0.0
425,0.0
450,0.0
451,0.0
452,-1.581739129282968
453,0.0
490,0.0
515,0.0
516,0.0
542,9953219.990214724
592,0.0
632,0.0
686,1.0
687,1.0
688,2.0
2,21, 1,21, 0, 1,20.00,30.00,Monday
250,26.498223789791904
251,0.0
336,5099745.767106955
385,22.43
386,23.82
387,0.7531387112022364
388,0.0
425,0.0
450,0.0
451,0.0
452,-1.5682477273235114
453,0.0
490,0.0
515,0.0
516,0.0
542,10801940.453041485
592,0.0
632,0.0
686,1.0
687,1.0
688,2.0
2,21, 1,21, 0, 1,30.00,40.00,Monday
250,28.185752646609817
251,0.0
336,3157555.9169574524
385,22.43
386,23.82
387,0.7383862153486469
388,0.0
425,0.0
450,0.0
451,0.0
452,-1.5558234115649041
453,0.0
490,0.0
515,0.0
516,0.0
542,10801940.453041485
592,0.0
632,0.0
686,1.0
687,1.0
688,2.0
2,21, 1,21, 0, 1,40.00,50.00,Monday
250,28.09348795530692
251,0.0
336,2016075.3099229052
385,22.43
386,23.82
387,0.7227656652358914
388,0.0
425,0.0
450,0.0
451,0.0
452,-1.5383642355092777
453,0.0
490,0.0
515,0.0
516,0.0
542,10801940.45304148
592,0.0
632,0.0
686,1.0
687,1.0
688,2.0
2,21, 1,21, 0, 1,50.00,60.00,Monday
250,28.11572679108318
251,0.0
336,2525789.5441873134
385,22.43
386,23.82
387,0.7052333867315618
388,0.0
425,0.0
450,0.0
451,0.0
452,-1.5167822519622207
453,0.0
490,0.0
515,0.0
516,0.0
542,10801940.453041486
592,0.0
632,0.0
686,1.0
687,1.0
688,2.0
2,21, 1,21, 0, 2, 0.00,10.00,Monday
250,28.36989798568124
251,0.0
336,2653803.3339538174
385,22.43
386,23.82
387,0.6885482934409834
388,0.0
425,0.0
450,0.0
451,0.0
452,-1.4955869218295035
453,0.0
490,0.0
515,0.0
516,0.0
542,10801940.453041486
592,0.0
632,0.0
686,1.0
687,1.0
688,2.0
2,21, 1,21, 0, 2,10.00,20.00,Monday
250,28.50458241687922
251,0.0
336,2558070.6975478786
385,22.43
386,23.82
387,0.673541311360346
388,0.0
425,0.0
450,0.0
451,0.0
452,-1.4780631371939843
453,0.0
490,0.0
515,0.0
516,0.0
542,10801940.453041486
592,0.0
632,0.0
686,1.0
687,1.0
688,2.0
2,21, 1,21, 0, 2,20.00,30.00,Monday
250,28.523770399518046
251,0.0
336,2478192.375783809
385,22.43
386,23.82
387,0.6593485705414158
388,0.0
425,0.0
450,0.0
451,0.0
452,-1.465427196628424
453,0.0
490,0.0
515,0.0
516,0.0
542,10801940.45304148
592,0.0
632,0.0
686,1.0
687,1.0
688,2.0
2,21, 1,21, 0, 2,30.00,40.00,Monday
250,28.560596653950025
251,0.0
336,2485919.238382666
385,22.43
386,23.82
387,0.6449927761898306
388,0.0
425,0.0
450,0.0
451,0.0
452,-1.4575535291521349
453,0.0
490,0.0
515,0.0
516,0.0
542,10801940.453041486
592,0.0
632,0.0
686,1.0
687,1.0
688,2.0
2,21, 1,21, 0, 2,40.00,50.00,Monday
250,28.626963609290353
251,0.0
336,2498340.5135843786
385,22.43
386,23.82
387,0.629783708241663
388,0.0
425,0.0
450,0.0
451,0.0
452,-1.4539552437004262
453,0.0
490,0.0
515,0.0
516,0.0
542,10801940.45304148
592,0.0
632,0.0
686,1.0
687,1.0
688,2.0
2,21, 1,21, 0, 2,50.00,60.00,Monday
250,28.68204768287612
251,0.0
336,2484587.1905459715
385,22.43
386,23.82
387,0.6135018319282549
388,0.0
425,0.0
450,0.0
451,0.0
452,-1.454230579980121
453,0.0
490,0.0
515,0.0
516,0.0
542,10801940.453041486
592,0.0
632,0.0
686,1.0
687,1.0
688,2.0
2,21, 1,21, 0, 3, 0.00,10.00,Monday
250,28.714821048170002
251,0.0
336,2465928.2809430324
385,22.43
386,23.82
387,0.5967386187552709
388,0.0
425,0.0
450,0.0
451,0.0
452,-1.4556069046885531
453,0.0
490,0.0
515,0.0
516,0.0
542,10801940.45304148
592,0.0
632,0.0
686,1.0
687,1.0
688,2.0
2,21, 1,21, 0, 3,10.00,20.00,Monday
250,28.744140386207835
251,0.0
336,2460336.9367746944
385,22.43
386,23.82
387,0.580129270992914
388,0.0
425,0.0
450,0.0
451,0.0
452,-1.4536680558213522
453,0.0
490,0.0
515,0.0
516,0.0
542,10801940.45304148
592,0.0
632,0.0
686,1.0
687,1.0
688,2.0
2,21, 1,21, 0, 3,20.00,30.00,Monday
250,28.77688040221128
251,0.0
336,2458989.7490216317
385,22.43
386,23.82
387,0.5639761152742745
388,0.0
425,0.0
450,0.0
451,0.0
452,-1.4457167649708145
453,0.0
490,0.0
515,0.0
516,0.0
542,10801940.453041486
592,0.0
632,0.0
686,1.0
687,1.0
688,2.0
2,21, 1,21, 0, 3,30.00,40.00,Monday
250,28.80734244018187
251,0.0
336,2454070.9807099
385,22.43
386,23.82
387,0.5483696043049662
388,0.0
425,0.0
450,0.0
451,0.0
452,-1.4323252546515204
453,0.0
490,0.0
515,0.0
516,0.0
542,10801940.453041486
592,0.0
632,0.0
686,1.0
687,1.0
688,2.0
2,21, 1,21, 0, 3,40.00,50.00,Monday
250,28.833904609574912
251,0.0
336,2448500.9826350734
385,22.43
386,23.82
387,0.5333831142100803
388,0.0
425,0.0
450,0.0
451,0.0
452,-1.4155879950907628
453,0.0
490,0.0
515,0.0
516,0.0
542,10801940.45304148
592,0.0
632,0.0
686,1.0
687,1.0
688,2.0
2,21, 1,21, 0, 3,50.00,60.00,Monday
250,28.85870043642469
251,0.0
336,2444563.532625737
385,22.43
386,23.82
387,0.5190914290012987
388,0.0
425,0.0
450,0.0
451,0.0
452,-1.396816107431521
453,0.0
490,0.0
515,0.0
516,0.0
542,10801940.45304148
592,0.0
632,0.0
686,1.0
687,1.0
688,2.0
2,21, 1,21, 0, 4, 0.00,10.00,Monday
250,28.84747507039455
251,0.0
336,2421384.1578771416
385,22.43
386,23.82
387,0.5029738892348207
388,0.0
425,0.0
450,0.0
451,0.0
452,-1.3779170253655266
453,0.0
490,0.0
515,0.0
516,0.0
542,10801940.453041486
592,0.0
632,0.0
686,1.0
687,1.0
688,2.0
2,21, 1,21, 0, 4,10.00,20.00,Monday
250,28.823959826187263
251,0.0
336,2415805.0229322133
385,22.43
386,23.82
387,0.48329383820735927
388,0.0
425,0.0
450,0.0
451,0.0
452,-1.3615952144659107
453,0.0
490,0.0
515,0.0
516,0.0
542,10801940.45304148
592,0.0
632,0.0
686,1.0
687,1.0
688,2.0
2,21, 1,21, 0, 4,20.00,30.00,Monday
250,28.807674588302273
251,0.0
336,2422538.1336930306
385,22.43
386,23.82
387,0.46045726778141755
388,0.0
425,0.0
450,0.0
451,0.0
452,-1.350166501281522
453,0.0
490,0.0
515,0.0
516,0.0
542,10801940.45304148
592,0.0
632,0.0
686,1.0
687,1.0
688,2.0
2,21, 1,21, 0, 4,30.00,40.00,Monday
250,28.79341470866182
251,0.0
336,2425551.492984657
385,22.43
386,23.82
387,0.43560071324304794
388,0.0
425,0.0
450,0.0
451,0.0
452,-1.3448707814708074
453,0.0
490,0.0
515,0.0
516,0.0
542,10801940.453041486
592,0.0
632,0.0
686,1.0
687,1.0
688,2.0
2,21, 1,21, 0, 4,40.00,50.00,Monday
250,28.774782223927115
251,0.0
336,2424753.1834909557
385,22.43
386,23.82
387,0.40942262229766685
388,0.0
425,0.0
450,0.0
451,0.0
452,-1.3460747654070668
453,0.0
490,0.0
515,0.0
516,0.0
542,10801940.45304148
592,0.0
632,0.0
686,1.0
687,1.0
688,2.0
2,21, 1,21, 0, 4,50.00,60.00,Monday
250,28.75260757833844
251,0.0
336,2424908.2443641196
385,22.43
386,23.82
387,0.381704567819874
388,0.0
425,0.0
450,0.0
451,0.0
452,-1.3519999076947335
453,0.0
490,0.0
515,0.0
516,0.0
542,10801940.453041486
592,0.0
632,0.0
686,1.0
687,1.0
688,2.0
2,21, 1,21, 0, 5, 0.00,10.00,Monday
250,28.78986311864661
251,0.0
336,2461223.2502771663
385,22.43
386,23.82
387,0.3578216754346793
388,0.0
425,0.0
450,0.0
451,0.0
452,-1.3577886072815726
453,0.0
490,0.0
515,0.0
516,0.0
542,10801940.45304148
592,0.0
632,0.0
686,1.0
687,1.0
688,2.0
2,21, 1,21, 0, 5,10.00,20.00,Monday
250,28.845105869633066
251,0.0
336,2467098.769586955
385,22.43
386,23.82
387,0.341103469497007
388,0.0
425,0.0
450,0.0
451,0.0
452,-1.357466499820342
453,0.0
490,0.0
515,0.0
516,0.0
542,10801940.45304148
592,0.0
632,0.0
686,1.0
687,1.0
688,2.0
2,21, 1,21, 0, 5,20.00,30.00,Monday
250,28.88357563661745
251,0.0
336,2451495.7391457534
385,22.43
386,23.82
387,0.33033225685302964
388,0.0
425,0.0
450,0.0
451,0.0
452,-1.347192675194836
453,0.0
490,0.0
515,0.0
516,0.0
542,10801940.453041496
592,0.0
632,0.0
686,1.0
687,1.0
688,2.0
2,21, 1,21, 0, 5,30.00,40.00,Monday
250,28.914802984617673
251,0.0
336,2443104.798201444
385,22.43
386,23.82
387,0.32306157899458926
388,0.0
425,0.0
450,0.0
451,0.0
452,-1.3269008674421494
453,0.0
490,0.0
515,0.0
516,0.0
542,10801940.453041486
592,0.0
632,0.0
686,1.0
687,1.0
688,2.0
2,21, 1,21, 0, 5,40.00,50.00,Monday
250,28.950833447580674
251,0.0
336,2442277.5516430945
385,22.43
386,23.82
387,0.3180547628874677
388,0.0
425,0.0
450,0.0
451,0.0
452,-1.2985160151145534
453,0.0
490,0.0
515,0.0
516,0.0
542,10801940.453041486
592,0.0
632,0.0
686,1.0
687,1.0
688,2.0
2,21, 1,21, 0, 5,50.00,60.00,Monday
250,28.988946190113772
251,0.0
336,2439398.7836197056
385,22.43
386,23.82
387,0.3146677083038805
388,0.0
425,0.0
450,0.0
451,0.0
452,-1.2644072853654291
453,0.0
490,0.0
515,0.0
516,0.0
542,10801940.45304148
592,0.0
632,0.0
686,1.0
687,1.0
688,2.0
2,21, 1,21, 0, 6, 0.00,10.00,Monday
250,28.980112012316884
251,0.0
336,2408330.357707135
385,22.43
386,23.82
387,0.30832608500833514
388,0.0
425,0.0
450,0.0
451,0.0
452,-1.2320393678374073
453,0.0
490,0.0
515,0.0
516,0.0
542,10801940.453041472
592,0.0
632,0.0
686,1.0
687,1.0
688,2.0
2,21, 1,21, 0, 6,10.00,20.00,Monday
250,28.95561962063269
251,0.0
336,2400588.520229725
385,22.43
386,23.82
387,0.29600237901706117
388,0.0
425,0.0
450,0.0
451,0.0
452,-1.2109638707061556
453,0.0
490,0.0
515,0.0
516,0.0
542,10801940.453041486
592,0.0
632,0.0
686,1.0
687,1.0
688,2.0
2,21, 1,21, 0, 6,20.00,30.00,Monday
250,28.94265387858783
251,0.0
336,2409826.161583365
385,22.43
386,23.82
387,0.2782916992591271
388,0.0
425,0.0
450,0.0
451,0.0
452,-1.2056073351503347
453,0.0
490,0.0
515,0.0
516,0.0
542,10801940.453041472
592,0.0
632,0.0
686,1.0
687,1.0
688,2.0
2,21, 1,21, 0, 6,30.00,40.00,Monday
250,28.93420790807432
251,0.0
336,2413862.0070842006
385,22.43
386,23.82
387,0.2570344770024018
388,0.0
425,0.0
450,0.0
451,0.0
452,-1.2146137767502017
453,0.0
490,0.0
515,0.0
516,0.0
542,10801940.453041472
592,0.0
632,0.0
686,1.0
687,1.0
688,2.0
2,21, 1,21, 0, 6,40.00,50.00,Monday
250,28.920932044670113
251,0.0
336,2412155.0848499597
385,22.43
386,23.82
387,0.2334332657600229
388,0.0
425,0.0
450,0.0
451,0.0
452,-1.2345915406485068
453,0.0
490,0.0
515,0.0
516,0.0
542,10801940.453041486
592,0.0
632,0.0
686,1.0
687,1.0
688,2.0
2,21, 1,21, 0, 6,50.00,60.00,Monday
250,28.904822582401895
251,0.0
336,2412101.343461281
385,22.43
386,23.82
387,0.20770229834407708
388,0.0
425,0.0
450,0.0
451,0.0
452,-1.263079087673941
453,0.0
490,0.0
515,0.0
516,0.0
542,10801940.453041472
592,0.0
632,0.0
686,1.0
687,1.0
688,2.0
2,21, 1,21, 0, 7, 0.00,10.00,Monday
250,24.740814831848457
251,2433311.3754952885
336,782746.8223677748
385,22.830000000000002
386,24.820000000000004
387,0.18236358371394787
388,0.0
425,0.0
450,0.0
451,0.0
452,-1.304692271856954
453,0.0
490,0.0
515,0.0
516,0.0
542,4320776.181216593
592,560614.3282832612
632,1941403.9209453615
686,0.525831751481321
687,0.5
688,1.1
2,21, 1,21, 0, 7,10.00,20.00,Monday
250,23.723114445951538
251,2670335.194036873
336,0.0
385,23.00142857142856
386,25.81999999999999
387,0.14715208385542103
388,0.0
425,0.0
450,0.0
451,0.0
452,-1.3822785446464378
453,0.0
490,0.0
515,0.0
516,0.0
542,0.0
592,1045038.0663459924
632,1703587.518789788
686,0.2497741605030332
687,0.1428571428571427
688,0.42857142857142827
2,21, 1,21, 0, 7,20.00,30.00,Monday
250,23.51591015300673
251,3312848.3547819247
336,0.0
385,23.43
386,25.82
387,0.09944531024464079
388,0.0
425,0.0
450,0.0
451,0.0
452,-1.5046194722594173
453,0.0
490,0.0
515,0.0
516,0.0
542,0.0
592,1721848.251848696
632,1703024.4729674028
686,0.4042601293346002
687,0.25
688,0.75
2,21, 1,21, 0, 7,30.00,40.00,Monday
250,23.050638566366942
251,4105132.7324836296
336,0.0
385,23.096666666666678
386,25.82000000000001
387,0.03956189344616345
388,0.0
425,0.0
450,0.0
451,0.0
452,-1.6706349313900737
453,0.0
490,0.0
515,0.0
516,0.0
542,0.0
592,2848248.3064314243
632,1395813.0331272648
686,0.6666666666666672
687,0.40793695385902795
688,1.3333333333333344
2,21, 1,21, 0, 7,40.00,50.00,Monday
250,23.43535716231597
251,3234609.0191441206
336,0.0
385,23.23
386,25.820000000000004
387,-0.029057293521153806
388,0.0
425,0.0
450,0.0
451,0.0
452,-1.871160549306168
453,0.0
490,0.0
515,0.0
516,0.0
542,0.0
592,2029588.1661197115
632,1232209.161300513
686,0.43129539936874295
687,0.4
688,1.0
2,21, 1,21, 0, 7,50.00,60.00,Monday
250,24.332962881118462
251,4191148.3594832765
336,0.0
385,24.43
386,25.82
387,-0.11213984832283722
388,0.0
425,0.0
450,0.0
451,0.0
452,-2.114471881670112
453,0.0
490,0.0
515,0.0
516,0.0
542,0.0
592,3980400.446196965
632,240408.12632662492
686,0.9538965393695669
687,0.5
688,1.5
2,21, 1,21, 0, 8, 0.00,10.00,Monday
250,25.188305638369577
251,0.0
336,2741871.3996738484
385,22.830000000000002
386,25.02
387,-0.1908919873931682
388,0.0
425,0.0
450,0.0
451,0.0
452,-2.352290166948973
453,0.0
490,0.0
515,0.0
516,0.0
542,5322211.970900325
592,0.0
632,0.0
686,0.5614586971026416
687,0.4
688,1.0
2,21, 1,21, 0, 8,10.00,20.00,Monday
250,24.327018905254228
251,0.0
336,3379345.017198471
385,22.43
386,24.32
387,-0.25797369828581057
388,0.0
425,0.0
450,0.0
451,0.0
452,-2.5031376365994777
453,0.0
490,0.0
515,0.0
516,0.0
542,6755805.034324243
592,0.0
632,0.0
686,0.726080920331688
687,0.5
688,1.25
2,21, 1,21, 0, 8,20.00,30.00,Monday
250,25.241919919310696
251,0.0
336,2602040.392335079
385,22.43
386,25.02
387,-0.31245992600090183
388,0.0
425,0.0
450,0.0
451,0.0
452,-2.538317028863595
453,0.0
490,0.0
515,0.0
516,0.0
542,5806794.987951431
592,0.0
632,0.0
686,0.5879056352904757
687,0.4
688,1.0
2,21, 1,21, 0, 8,30.00,40.00,Monday
250,24.25927619479676
251,0.0
336,4175677.271898776
385,22.430000000000017
386,23.82000000000002
387,-0.35349842956217165
388,0.0
425,0.0
450,0.0
451,0.0
452,-2.461032407016769
453,0.0
490,0.0
515,0.0
516,0.0
542,9711836.747109273
592,0.0
632,0.0
686,1.0000000000000009
687,0.6755169991013427
688,2.0000000000000018
2,21, 1,21, 0, 8,40.00,50.00,Monday
250,23.87414010385421
251,0.0
336,4330874.754087493
385,22.43
386,23.82
387,-0.37765259189103095
388,0.0
425,0.0
450,0.0
451,0.0
452,-2.2580892317895245
453,0.0
490,0.0
515,0.0
516,0.0
542,10064801.613859292
592,0.0
632,0.0
686,1.0
687,0.8518056187716856
688,2.0
2,21, 1,21, 0, 8,50.00,60.00,Monday
250,25.176091963524655
251,0.0
336,3023600.710383254
385,22.42999999999997
386,24.81999999999997
387,-0.375776495353952
388,0.0
425,0.0
450,0.0
451,0.0
452,-1.9479064292057169
453,0.0
490,0.0
515,0.0
516,0.0
542,6753421.623363916
592,0.0
632,0.0
686,0.6666666666666657
687,0.5122770402054946
688,1.3333333333333315
2,21, 1,21, 0, 9, 0.00,10.00,Monday
250,29.40732037057223
251,0.0
336,5467796.535219191
385,22.429999999999996
386,23.820000000000004
387,-0.3514720981739204
388,0.0
425,0.0
450,0.0
451,0.0
452,-1.5718886978854651
453,0.0
490,0.0
515,0.0
516,0.0
542,10794665.683549926
592,0.0
632,0.0
686,0.9999999999999999
687,0.9999999999999999
688,1.9999999999999998
2,21, 1,21, 0, 9,10.00,20.00,Monday
250,27.049231562245396
251,0.0
336,3175058.4611534323
385,22.43
386,23.82
387,-0.3054296647514633
388,0.0
425,0.0
450,0.0
451,0.0
452,-1.0751155598191255
453,0.0
490,0.0
515,0.0
516,0.0
542,10801940.453041488
592,0.0
632,0.0
686,1.0
687,1.0
688,2.0
2,21, 1,21, 0, 9,20.00,30.00,Monday
250,30.543078894558956
251,0.0
336,3917159.054979585
385,22.429999999999975
386,23.81999999999998
387,-0.241473503163026
388,0.0
425,0.0
450,0.0
451,0.0
452,-0.5250974184738583
453,0.0
490,0.0
515,0.0
516,0.0
542,10801940.453041479
592,0.0
632,0.0
686,0.9999999999999989
687,0.9999999999999989
688,1.9999999999999978
2,21, 1,21, 0, 9,30.00,40.00,Monday
250,27.897355318459695
251,0.0
336,2376114.0387335885
385,22.429999999999993
386,23.81999999999999
387,-0.16276695125348073
388,0.0
425,0.0
450,0.0
451,0.0
452,0.07386680396531735
453,0.0
490,0.0
515,0.0
516,0.0
542,10801940.453041483
592,0.0
632,0.0
686,0.9999999999999996
687,0.9999999999999996
688,1.9999999999999991
2,21, 1,21, 0, 9,40.00,50.00,Monday
250,30.279923655169586
251,0.0
336,3674764.8425430125
385,22.43
386,23.82
387,-0.0422401130868262
388,0.0
425,0.0
450,0.0
451,0.0
452,0.876277743698603
453,0.0
490,0.0
515,0.0
516,0.0
542,10801940.45304148
592,0.0
632,0.0
686,1.0
687,1.0
688,2.0
2,21, 1,21, 0, 9,50.00,60.00,Monday
250,28.18916743572071
251,0.0
336,2327867.6275577685
385,22.43
386,23.82
387,0.033470926282539185
388,0.0
425,0.0
450,0.0
451,0.0
452,1.4012143338109586
453,0.0
490,0.0
515,0.0
516,0.0
542,10801940.453041485
592,0.0
632,0.0
686,1.0
687,1.0
688,2.0
2,21, 1,21, 0,10, 0.00,10.00,Monday
250,30.907085038002066
251,0.0
336,3365681.9183122735
385,22.43
386,23.82
387,0.11795025488283277
388,0.0
425,0.0
450,0.0
451,0.0
452,1.9175233873288833
453,0.0
490,0.0
515,0.0
516,0.0
542,10801940.453041483
592,0.0
632,0.0
686,1.0
687,1.0
688,2.0
2,21, 1,21, 0,10,10.00,20.00,Monday
250,28.669673797055275
251,0.0
336,2067458.0079071838
385,22.43
386,23.82
387,0.2176277888443196
388,0.0
425,0.0
450,0.0
451,0.0
452,2.464638245308676
453,0.0
490,0.0
515,0.0
516,0.0
542,10801940.45304148
592,0.0
632,0.0
686,1.0
687,1.0
688,2.0
2,21, 1,21, 0,10,20.00,30.00,Monday
250,30.465812349675574
251,0.0
336,3325104.6211412735
385,22.43
386,23.82
387,0.3786321020268836
388,0.0
425,0.0
450,0.0
451,0.0
452,3.20224175378608
453,0.0
490,0.0
515,0.0
516,0.0
542,10801940.453041483
592,0.0
632,0.0
686,1.0
687,1.0
688,2.0
2,21, 1,21, 0,10,30.00,40.00,Monday
250,28.851872249405957
251,0.0
336,2147088.91871998
385,22.430000000000017
386,23.82000000000002
387,0.5048078486229458
388,0.0
425,0.0
450,0.0
451,0.0
452,3.7733553901031653
453,0.0
490,0.0
515,0.0
516,0.0
542,10801940.453041486
592,0.0
632,0.0
686,1.0000000000000009
687,1.0000000000000009
688,2.0000000000000018
2,21, 1,21, 0,10,40.00,50.00,Monday
250,30.995487438303897
251,0.0
336,3035364.7569328346
385,22.43
386,23.82
387,0.6386428512358964
388,0.0
425,0.0
450,0.0
451,0.0
452,4.4038744346097065
453,0.0
490,0.0
515,0.0
516,0.0
542,10801940.453041479
592,0.0
632,0.0
686,1.0
687,1.0
688,2.0
2,21, 1,21, 0,10,50.00,60.00,Monday
250,29.310749852359194
251,0.0
336,1941216.074978971
385,22.430000000000017
386,23.82000000000002
387,0.792092988771298
388,0.0
425,0.0
450,0.0
451,0.0
452,5.135763637959707
453,0.0
490,0.0
515,0.0
516,0.0
542,10801940.453041483
592,0.0
632,0.0
686,1.0000000000000009
687,1.0000000000000009
688,2.0000000000000018
2,21, 1,21, 0,11, 0.00,10.00,Monday
250,31.200347045769984
251,0.0
336,2900317.440469349
385,22.43
386,23.82
387,0.9581925784794718
388,0.0
425,0.0
450,0.0
451,0.0
452,5.937227417514626
453,0.0
490,0.0
515,0.0
516,0.0
542,10801940.453041483
592,0.0
632,0.0
686,1.0
687,1.0
688,2.0
2,21, 1,21, 0,11,10.00,20.00,Monday
250,29.93169383510447
251,0.0
336,1973737.4374190911
385,22.43
386,23.82
387,1.2127520009270372
388,0.0
425,0.0
450,0.0
451,0.0
452,7.0127957924094435
453,0.0
490,0.0
515,0.0
516,0.0
542,10801940.453041485
592,0.0
632,0.0
686,1.0
687,1.0
688,2.0
2,21, 1,21, 0,11,20.00,30.00,Monday
250,30.89934447801462
251,0.0
336,2819871.8329762304
385,22.43
386,23.82
387,1.4475084817020278
388,0.0
425,0.0
450,0.0
451,0.0
452,7.9892162921115695
453,0.0
490,0.0
515,0.0
516,0.0
542,10801940.453041485
592,0.0
632,0.0
686,1.0
687,1.0
688,2.0
2,21, 1,21, 0,11,30.00,40.00,Monday
250,30.04668402459704
251,0.0
336,2061097.6240293323
385,22.43
386,23.82
387,1.679697242123761
388,0.0
425,0.0
450,0.0
451,0.0
452,8.948234696026937
453,0.0
490,0.0
515,0.0
516,0.0
542,10801940.453041486
592,0.0
632,0.0
686,1.0
687,1.0
688,2.0
2,21, 1,21, 0,11,40.00,50.00,Monday
250,31.571184198088265
251,0.0
336,2742547.6376836766
385,22.430000000000017
386,23.82000000000002
387,1.8687411622391208
388,0.0
425,0.0
450,0.0
451,0.0
452,9.712131422191707
453,0.0
490,0.0
515,0.0
516,0.0
542,10801940.453041483
592,0.0
632,0.0
686,1.0000000000000009
687,1.0000000000000009
688,2.0000000000000018
2,21, 1,21, 0,11,50.00,60.00,Monday
250,29.739733854215533
251,0.0
336,1879201.5419802947
385,22.43
386,23.82
387,2.0649583011172243
388,0.0
425,0.0
450,0.0
451,0.0
452,10.421273451221216
453,0.0
490,0.0
515,0.0
516,0.0
542,10801940.453041483
592,0.0
632,0.0
686,1.0
687,1.0
688,2.0
2,21, 1,21, 0,12, 0.00,10.00,Monday
250,31.56894380824519
251,0.0
336,2978602.098765922
385,22.43
386,23.82
387,2.274389752867566
388,0.0
425,0.0
450,0.0
451,0.0
452,11.05903224482404
453,0.0
490,0.0
515,0.0
516,0.0
542,10801940.453041483
592,0.0
632,0.0
686,1.0
687,1.0
688,2.0
2,21, 1,21, 0,12,10.00,20.00,Monday
250,29.54916062844877
251,0.0
336,1910016.1078408272
385,22.43
386,23.82
387,2.480617460418939
388,0.0
425,0.0
450,0.0
451,0.0
452,11.581709609541763
453,0.0
490,0.0
515,0.0
516,0.0
542,10801940.453041483
592,0.0
632,0.0
686,1.0
687,1.0
688,2.0
2,21, 1,21, 0,12,20.00,30.00,Monday
250,31.143051580799124
251,0.0
336,3137152.6458732826
385,22.43
386,23.82
387,2.760586768352613
388,0.0
425,0.0
450,0.0
451,0.0
452,12.115514150690572
453,0.0
490,0.0
515,0.0
516,0.0
542,10801940.453041483
592,0.0
632,0.0
686,1.0
687,1.0
688,2.0
2,21, 1,21, 0,12,30.00,40.00,Monday
250,29.858688477102096
251,0.0
336,2042478.3105006637
385,22.43
386,23.82
387,2.9728903634705324
388,0.0
425,0.0
450,0.0
451,0.0
452,12.401921955341049
453,0.0
490,0.0
515,0.0
516,0.0
542,10801940.453041483
592,0.0
632,0.0
686,1.0
687,1.0
688,2.0
2,21, 1,21, 0,12,40.00,50.00,Monday
250,31.19103490679281
251,0.0
336,3096593.3801771477
385,22.43
386,23.82
387,3.142469267223088
388,0.0
425,0.0
450,0.0
451,0.0
452,12.51723170248716
453,0.0
490,0.0
515,0.0
516,0.0
542,10801940.453041483
592,0.0
632,0.0
686,1.0
687,1.0
688,2.0
2,21, 1,21, 0,12,50.00,60.00,Monday
250,28.8635851404448
251,0.0
336,2072220.245673355
385,22.43
386,23.82
387,3.247686614479989
388,0.0
425,0.0
450,0.0
451,0.0
452,12.48276687237541
453,0.0
490,0.0
515,0.0
516,0.0
542,10801940.453041483
592,0.0
632,0.0
686,1.0
687,1.0
688,2.0
2,21, 1,21, 0,13, 0.00,10.00,Monday
250,28.70397838667711
251,0.0
336,2759368.2908850918
385,22.43
386,23.82
387,3.3460012910919295
388,0.0
425,0.0
450,0.0
451,0.0
452,12.39412140325133
453,0.0
490,0.0
515,0.0
516,0.0
542,10801940.453041483
592,0.0
632,0.0
686,1.0
687,1.0
688,2.0
2,21, 1,21, 0,13,10.00,20.00,Monday
250,27.94441216207728
251,0.0
336,2939910.024834962
385,22.43
386,23.82
387,3.4412459656206105
388,0.0
425,0.0
450,0.0
451,0.0
452,12.305755204828401
453,0.0
490,0.0
515,0.0
516,0.0
542,10801940.45304148
592,0.0
632,0.0
686,1.0
687,1.0
688,2.0
2,21, 1,21, 0,13,20.00,30.00,Monday
250,27.766548834050127
251,0.0
336,3316414.5796840163
385,22.43
386,23.82
387,3.5351523072207516
388,0.0
425,0.0
450,0.0
451,0.0
452,12.23999679253826
453,0.0
490,0.0
515,0.0
516,0.0
542,10801940.453041485
592,0.0
632,0.0
686,1.0
687,1.0
688,2.0
2,21, 1,21, 0,13,30.00,40.00,Monday
250,27.475945730896964
251,0.0
336,3638221.825354172
385,22.43
386,23.82
387,3.637250128436249
388,0.0
425,0.0
450,0.0
451,0.0
452,12.196683801323957
453,0.0
490,0.0
515,0.0
516,0.0
542,10801940.453041485
592,0.0
632,0.0
686,1.0
687,1.0
688,2.0
2,21, 1,21, 0,13,40.00,50.00,Monday
250,27.232130215071074
251,0.0
336,3815949.108598675
385,22.43
386,23.82
387,3.735697391777849
388,0.0
425,0.0
450,0.0
451,0.0
452,12.174655033766763
453,0.0
490,0.0
515,0.0
516,0.0
542,10801940.45304148
592,0.0
632,0.0
686,1.0
687,1.0
688,2.0
2,21, 1,21, 0,13,50.00,60.00,Monday
250,27.081134030528133
251,0.0
336,4091076.8640405517
385,22.43
386,23.82
387,3.822493263017379
388,0.0
425,0.0
450,0.0
451,0.0
452,12.16417633562019
453,0.0
490,0.0
515,0.0
516,0.0
542,10801940.453041485
592,0.0
632,0.0
686,1.0
687,1.0
688,2.0
2,21, 1,21, 0,14, 0.00,10.00,Monday
250,30.6739713015514
251,0.0
336,4718852.143895595
385,22.429999999999996
386,23.820000000000004
387,3.8782080042154607
388,0.0
425,0.0
450,0.0
451,0.0
452,12.123273861450398
453,0.0
490,0.0
515,0.0
516,0.0
542,10801940.453041479
592,0.0
632,0.0
686,0.9999999999999999
687,0.9999999999999999
688,1.9999999999999998
2,21, 1,21, 0,14,10.00,20.00,Monday
250,28.564920175717667
251,0.0
336,2771219.599828279
385,22.43
386,23.82
387,3.938573862804128
388,0.0
425,0.0
450,0.0
451,0.0
452,12.01805326872247
453,0.0
490,0.0
515,0.0
516,0.0
542,10801940.453041483
592,0.0
632,0.0
686,1.0
687,1.0
688,2.0
2,21, 1,21, 0,14,20.00,30.00,Monday
250,31.920214395692085
251,0.0
336,3599442.76244162
385,22.429999999999975
386,23.81999999999998
387,3.9971545312986962
388,0.0
425,0.0
450,0.0
451,0.0
452,11.850777867541405
453,0.0
490,0.0
515,0.0
516,0.0
542,10801940.453041479
592,0.0
632,0.0
686,0.9999999999999989
687,0.9999999999999989
688,1.9999999999999978
2,21, 1,21, 0,14,30.00,40.00,Monday
250,28.91014024565131
251,0.0
336,2099215.17566409
385,22.429999999999993
386,23.81999999999999
387,4.04737880829208
388,0.0
425,0.0
450,0.0
451,0.0
452,11.59626382767223
453,0.0
490,0.0
515,0.0
516,0.0
542,10801940.453041483
592,0.0
632,0.0
686,0.9999999999999996
687,0.9999999999999996
688,1.9999999999999991
2,21, 1,21, 0,14,40.00,50.00,Monday
250,32.387941873510556
251,0.0
336,3593770.815583762
385,22.42999999999997
386,23.81999999999997
387,4.083174225404369
388,0.0
425,0.0
450,0.0
451,0.0
452,11.225619110383237
453,0.0
490,0.0
515,0.0
516,0.0
542,10801940.453041485
592,0.0
632,0.0
686,0.9999999999999986
687,0.9999999999999986
688,1.9999999999999971
2,21, 1,21, 0,14,50.00,60.00,Monday
250,28.716948267974
251,0.0
336,2145902.64645428
385,22.430000000000028
386,23.820000000000036
387,4.101868975500734
388,0.0
425,0.0
450,0.0
451,0.0
452,10.745858911975054
453,0.0
490,0.0
515,0.0
516,0.0
542,10801940.453041485
592,0.0
632,0.0
686,1.0000000000000013
687,1.0000000000000013
688,2.0000000000000027
2,21, 1,21, 0,15, 0.00,10.00,Monday
250,32.604546876910014
251,0.0
336,3834445.8827480515
385,22.43
386,23.82
387,4.102426098495516
388,0.0
425,0.0
450,0.0
451,0.0
452,10.187973680133286
453,0.0
490,0.0
515,0.0
516,0.0
542,10801940.453041479
592,0.0
632,0.0
686,1.0
687,1.0
688,2.0
2,21, 1,21, 0,15,10.00,20.00,Monday
250,28.440073095788808
251,0.0
336,2219619.8379484587
385,22.430000000000003
386,23.819999999999997
387,4.086260201397007
388,0.0
425,0.0
450,0.0
451,0.0
452,9.572639835521638
453,0.0
490,0.0
515,0.0
516,0.0
542,10801940.453041479
592,0.0
632,0.0
686,1.0
687,1.0
688,2.0
2,21, 1,21, 0,15,20.00,30.00,Monday
250,32.714641039423455
251,0.0
336,4010233.9476217106
385,22.429999999999975
386,23.81999999999998
387,4.05624279140067
388,0.0
425,0.0
450,0.0
451,0.0
452,8.893028848416373
453,0.0
490,0.0
515,0.0
516,0.0
542,10801940.453041479
592,0.0
632,0.0
686,0.9999999999999989
687,0.9999999999999989
688,1.9999999999999978
2,21, 1,21, 0,15,30.00,40.00,Monday
250,28.26222461257957
251,0.0
336,2255516.5091064163
385,22.429999999999996
386,23.819999999999986
387,4.01970233352739
388,0.0
425,0.0
450,0.0
451,0.0
452,8.244283642851084
453,0.0
490,0.0
515,0.0
516,0.0
542,10801940.453041485
592,0.0
632,0.0
686,0.9999999999999997
687,0.9999999999999997
688,1.9999999999999993
2,21, 1,21, 0,15,40.00,50.00,Monday
250,32.78190399453995
251,0.0
336,4152414.920404309
385,22.430000000000028
386,23.820000000000036
387,3.9817931592744547
388,0.0
425,0.0
450,0.0
451,0.0
452,7.689842061771044
453,0.0
490,0.0
515,0.0
516,0.0
542,10801940.453041483
592,0.0
632,0.0
686,1.0000000000000013
687,1.0000000000000013
688,2.0000000000000027
2,21, 1,21, 0,15,50.00,60.00,Monday
250,28.115984056055964
251,0.0
336,2327932.5352739235
385,22.430000000000057
386,23.820000000000068
387,3.946753395142707
388,0.0
425,0.0
450,0.0
451,0.0
452,7.256169922404298
453,0.0
490,0.0
515,0.0
516,0.0
542,10801940.45304148
592,0.0
632,0.0
686,1.0000000000000027
687,1.0000000000000027
688,2.0000000000000053
2,21, 1,21, 0,16, 0.00,10.00,Monday
250,32.840760541950566
251,0.0
336,4273544.149623256
385,22.43
386,23.82
387,3.9114443414016486
388,0.0
425,0.0
450,0.0
451,0.0
452,6.907224403683834
453,0.0
490,0.0
515,0.0
516,0.0
542,10801940.453041479
592,0.0
632,0.0
686,1.0
687,1.0
688,2.0
2,21, 1,21, 0,16,10.00,20.00,Monday
250,28.016700973446447
251,0.0
336,2353031.3728427296
385,22.429999999999993
386,23.819999999999993
387,3.8764928493865014
388,0.0
425,0.0