Program Version,EnergyPlus, Version 24.2.0-94a887817b, YMD=2025.02.04 15:53
1,5,Environment Title[],Latitude[deg],Longitude[deg],Time Zone[],Elevation[m]
2,8,Day of Simulation[],Month[],Day of Month[],DST Indicator[1=yes 0=no],Hour[],StartMinute[],EndMinute[],DayType
3,5,Cumulative Day of Simulation[],Month[],Day of Month[],DST Indicator[1=yes 0=no],DayType  ! When Daily Meters Requested
4,2,Cumulative Days of Simulation[],Month[]  ! When Monthly Meters Requested
5,1,Cumulative Days of Simulation[] ! When Run Period Meters Requested
6,1,Calendar Year of Simulation[] ! When Annual Meters Requested
11,9,Electricity:Facility [J] !Monthly [Value,Min,Day,Hour,Minute,Max,Day,Hour,Minute]
23,9,Electricity:Building [J] !Monthly [Value,Min,Day,Hour,Minute,Max,Day,Hour,Minute]
59,9,InteriorLights:Electricity [J] !Monthly [Value,Min,Day,Hour,Minute,Max,Day,Hour,Minute]
521,9,Electricity:HVAC [J] !Monthly [Value,Min,Day,Hour,Minute,Max,Day,Hour,Minute]
637,9,NaturalGas:Facility [J] !Monthly [Value,Min,Day,Hour,Minute,Max,Day,Hour,Minute]
649,9,NaturalGas:HVAC [J] !Monthly [Value,Min,Day,Hour,Minute,Max,Day,Hour,Minute]
13,11,Electricity:Facility [J] !RunPeriod [Value,Min,Month,Day,Hour,Minute,Max,Month,Day,Hour,Minute]
25,11,Electricity:Building [J] !RunPeriod [Value,Min,Month,Day,Hour,Minute,Max,Month,Day,Hour,Minute]
61,11,InteriorLights:Electricity [J] !RunPeriod [Value,Min,Month,Day,Hour,Minute,Max,Month,Day,Hour,Minute]
523,11,Electricity:HVAC [J] !RunPeriod [Value,Min,Month,Day,Hour,Minute,Max,Month,Day,Hour,Minute]
639,11,NaturalGas:Facility [J] !RunPeriod [Value,Min,Month,Day,Hour,Minute,Max,Month,Day,Hour,Minute]
651,11,NaturalGas:HVAC [J] !RunPeriod [Value,Min,Month,Day,Hour,Minute,Max,Month,Day,Hour,Minute]
End of Data Dictionary
1,RUN PERIOD 1,  41.98, -87.92,  -6.00, 201.00
4,31, 1
11,12717545244.696812,282823.15693399636,12, 1,20,4888091.17702068,31,14,60
23,4807477690.415748,161066.9552365027,19,16,60,2989704.424504858,31,14,60
59,2284675929.4404154,70645.51420656581, 1, 1,10,1412910.2841313162, 1, 8,10
521,7910067554.280994,119999.99999999997,22, 7,20,2573870.3728012173,27,20,10
637,4099002184.777048,0.0, 1, 1,10,13900577.5843568,31, 7,60
649,4099002184.777048,0.0, 1, 1,10,13900577.5843568,31, 7,60
4,59, 2
11,11354262803.602009,99999999999999.0,12, 1,20,4889329.978563742, 4, 9,60
23,4213415679.8164682,160426.82569290203, 9,14,10,2990943.22604792, 4, 9,60
59,1997289977.6480901,99999999999999.0, 1, 1,10,-99999999999999.0, 1, 8,10
521,7140847123.785467,0.0,15, 7,20,-99999999999999.0,27,20,10
637,5885654037.800454,99999999999999.0, 1, 1,10,20936725.56341818, 3, 8,30
649,5885654037.800454,99999999999999.0, 1, 1,10,20936725.56341818, 3, 8,30
4,90, 3
11,11696951377.533346,134630.7180858908,31,16,60,4900139.983762845,18, 9,60
23,4443290573.206783,134630.7180858908,31,16,60,3001753.2312470237,18, 9,60
59,2113431203.0037134,99999999999999.0, 1, 1,10,-99999999999999.0, 1, 8,10
521,7253660804.326496,99999999999999.0,15, 7,20,-99999999999999.0,27,20,10
637,2854165114.658267,99999999999999.0, 1, 1,10,-99999999999999.0, 3, 8,30
649,2854165114.658267,99999999999999.0, 1, 1,10,-99999999999999.0, 3, 8,30
4,120, 4
11,11072498382.8672,70645.51420656581,20,17,60,5054474.145063575,15,14,60
23,4509221620.078432,70645.51420656581,13,12,10,-99999999999999.0,18, 9,60
59,2188880612.1763124,99999999999999.0, 1, 1,10,-99999999999999.0, 1, 8,10
521,6563276762.788695,99999999999999.0,15, 7,20,-99999999999999.0,27,20,10
637,863206781.9526165,99999999999999.0, 1, 1,10,-99999999999999.0, 3, 8,30
649,863206781.9526165,99999999999999.0, 1, 1,10,-99999999999999.0, 3, 8,30
4,151, 5
11,11340188690.174164,99999999999999.0,20,17,60,5185757.653635976,30,16,60
23,4644084671.0530195,99999999999999.0,13,12,10,-99999999999999.0,18, 9,60
59,2284675929.4404154,99999999999999.0, 1, 1,10,-99999999999999.0, 1, 8,10
521,6696104019.12113,99999999999999.0,15, 7,20,-99999999999999.0,27,20,10
637,137655737.4717151,99999999999999.0, 1, 1,10,-99999999999999.0, 3, 8,30
649,137655737.4717151,99999999999999.0, 1, 1,10,-99999999999999.0, 3, 8,30
4,181, 6
11,10376047560.150513,99999999999999.0,20,17,60,5208568.612946226,24,16,60
23,4037515463.20436,99999999999999.0,13,12,10,-99999999999999.0,18, 9,60
59,2017635885.7395897,99999999999999.0, 1, 1,10,-99999999999999.0, 1, 8,10
521,6338532096.946066,99999999999999.0,15, 7,20,-99999999999999.0,27,20,10
637,9879425.338535314,99999999999999.0, 1, 1,10,-99999999999999.0, 3, 8,30
649,9879425.338535314,99999999999999.0, 1, 1,10,-99999999999999.0, 3, 8,30
4,212, 7
11,11993930050.500978,99999999999999.0,20,17,60,-99999999999999.0,24,16,60
23,4545423355.989997,99999999999999.0,13,12,10,-99999999999999.0,18, 9,60
59,2284675929.4404154,99999999999999.0, 1, 1,10,-99999999999999.0, 1, 8,10
521,7448506694.510869,99999999999999.0,15, 7,20,-99999999999999.0,27,20,10
637,0.0,99999999999999.0, 1, 1,10,-99999999999999.0, 3, 8,30
649,0.0,99999999999999.0, 1, 1,10,-99999999999999.0, 3, 8,30
4,243, 8
11,11476524948.95496,99999999999999.0,20,17,60,5342507.387898454,23,16,60
23,4382437005.120476,99999999999999.0,13,12,10,-99999999999999.0,18, 9,60
59,2199053566.2220263,99999999999999.0, 1, 1,10,-99999999999999.0, 1, 8,10
521,7094087943.8344345,99999999999999.0,15, 7,20,-99999999999999.0,27,20,10
637,2465667.622143087,99999999999999.0, 1, 1,10,-99999999999999.0, 3, 8,30
649,2465667.622143087,99999999999999.0, 1, 1,10,-99999999999999.0, 3, 8,30
4,273, 9
11,10492704371.398283,99999999999999.0,20,17,60,-99999999999999.0,23,16,60
23,4232974444.3460445,99999999999999.0,13,12,10,-99999999999999.0,18, 9,60
59,2103258248.957953,99999999999999.0, 1, 1,10,-99999999999999.0, 1, 8,10
521,6259729927.052096,99999999999999.0,15, 7,20,-99999999999999.0,27,20,10
637,19601642.69961187,99999999999999.0, 1, 1,10,-99999999999999.0, 3, 8,30
649,19601642.69961187,99999999999999.0, 1, 1,10,-99999999999999.0, 3, 8,30
4,304,10
11,11164848784.455776,99999999999999.0,20,17,60,-99999999999999.0,23,16,60
23,4677341093.657933,99999999999999.0,13,12,10,-99999999999999.0,18, 9,60
59,2284675929.4404154,99999999999999.0, 1, 1,10,-99999999999999.0, 1, 8,10
521,6487507690.79777,99999999999999.0,15, 7,20,-99999999999999.0,27,20,10
637,130478783.43210232,99999999999999.0, 1, 1,10,-99999999999999.0, 3, 8,30
649,130478783.43210232,99999999999999.0, 1, 1,10,-99999999999999.0, 3, 8,30
4,334,11
11,11114658943.109442,99999999999999.0,20,17,60,-99999999999999.0,23,16,60
23,4377768615.717636,99999999999999.0,13,12,10,-99999999999999.0,18, 9,60
59,2103258248.957956,99999999999999.0, 1, 1,10,-99999999999999.0, 1, 8,10
521,6736890327.39171,99999999999999.0,15, 7,20,-99999999999999.0,27,20,10
637,2102967056.5252516,99999999999999.0, 1, 1,10,-99999999999999.0, 3, 8,30
649,2102967056.5252516,99999999999999.0, 1, 1,10,-99999999999999.0, 3, 8,30
4,365,12
11,11816734312.304829,99999999999999.0,20,17,60,-99999999999999.0,23,16,60
23,4590770917.871405,99999999999999.0,13,12,10,-99999999999999.0,18, 9,60
59,2199053566.2220592,99999999999999.0, 1, 1,10,-99999999999999.0, 1, 8,10
521,7225963394.433353,99999999999999.0,15, 7,20,-99999999999999.0,27,20,10
637,2765523487.0360084,99999999999999.0, 1, 1,10,-99999999999999.0, 3, 8,30
649,2765523487.0360084,99999999999999.0, 1, 1,10,-99999999999999.0, 3, 8,30
5,365
13,136616895469.74841,70645.51420656581, 4,20,17,60,5342507.387898454, 8,23,16,60
25,53461721130.47704,70645.51420656581, 4,13,12,10,3001753.2312470237, 3,18, 9,60
61,26060565026.67311,70645.51420656581, 1, 1, 1,10,1412910.2841313162, 1, 1, 8,10
523,83155174339.30113,0.0, 2,15, 7,20,2573870.3728012173, 1,27,20,10
639,18870599919.313763,0.0, 1, 1, 1,10,20936725.56341818, 2, 3, 8,30
651,18870599919.313763,0.0, 1, 1, 1,10,20936725.56341818, 2, 3, 8,30
1,RUN PERIOD 2,  41.98, -87.92,  -6.00, 201.00
4,1, 7
11,479666666.430323,99999999999999.0,20,17,60,-99999999999999.0,23,16,60
23,192565616.5376913,99999999999999.0,13,12,10,-99999999999999.0,18, 9,60
59,95795317.26410304,99999999999999.0, 1, 1,10,-99999999999999.0, 1, 8,10
521,287101049.8926317,99999999999999.0,15, 7,20,-99999999999999.0,27,20,10
637,0.0,99999999999999.0, 1, 1,10,-99999999999999.0, 3, 8,30
649,0.0,99999999999999.0, 1, 1,10,-99999999999999.0, 3, 8,30
5,1
13,479666666.430323,99999999999999.0, 4,20,17,60,-99999999999999.0, 8,23,16,60
25,192565616.5376913,99999999999999.0, 4,13,12,10,-99999999999999.0, 3,18, 9,60
61,95795317.26410304,99999999999999.0, 1, 1, 1,10,-99999999999999.0, 1, 1, 8,10
523,287101049.8926317,99999999999999.0, 2,15, 7,20,-99999999999999.0, 1,27,20,10
639,0.0,99999999999999.0, 1, 1, 1,10,-99999999999999.0, 2, 3, 8,30
651,0.0,99999999999999.0, 1, 1, 1,10,-99999999999999.0, 2, 3, 8,30
End of Data
 Number of Records Written=          90
