Program Version,EnergyPlus, Version 24.2.0-94a887817b, YMD=2025.02.12 11:47
1,5,Environment Title[],Latitude[deg],Longitude[deg],Time Zone[],Elevation[m]
2,8,Day of Simulation[],Month[],Day of Month[],DST Indicator[1=yes 0=no],Hour[],StartMinute[],EndMinute[],DayType
3,5,Cumulative Day of Simulation[],Month[],Day of Month[],DST Indicator[1=yes 0=no],DayType  ! When Daily Meters Requested
4,2,Cumulative Days of Simulation[],Month[]  ! When Monthly Meters Requested
5,1,Cumulative Days of Simulation[] ! When Run Period Meters Requested
6,1,Calendar Year of Simulation[] ! When Annual Meters Requested
11,9,Electricity:Facility [J] !Monthly [Value,Min,Day,Hour,Minute,Max,Day,Hour,Minute]
23,9,Electricity:Building [J] !Monthly [Value,Min,Day,Hour,Minute,Max,Day,Hour,Minute]
59,9,InteriorLights:Electricity [J] !Monthly [Value,Min,Day,Hour,Minute,Max,Day,Hour,Minute]
521,9,Electricity:HVAC [J] !Monthly [Value,Min,Day,Hour,Minute,Max,Day,Hour,Minute]
637,9,NaturalGas:Facility [J] !Monthly [Value,Min,Day,Hour,Minute,Max,Day,Hour,Minute]
649,9,NaturalGas:HVAC [J] !Monthly [Value,Min,Day,Hour,Minute,Max,Day,Hour,Minute]
13,11,Electricity:Facility [J] !RunPeriod [Value,Min,Month,Day,Hour,Minute,Max,Month,Day,Hour,Minute]
25,11,Electricity:Building [J] !RunPeriod [Value,Min,Month,Day,Hour,Minute,Max,Month,Day,Hour,Minute]
61,11,InteriorLights:Electricity [J] !RunPeriod [Value,Min,Month,Day,Hour,Minute,Max,Month,Day,Hour,Minute]
523,11,Electricity:HVAC [J] !RunPeriod [Value,Min,Month,Day,Hour,Minute,Max,Month,Day,Hour,Minute]
639,11,NaturalGas:Facility [J] !RunPeriod [Value,Min,Month,Day,Hour,Minute,Max,Month,Day,Hour,Minute]
651,11,NaturalGas:HVAC [J] !RunPeriod [Value,Min,Month,Day,Hour,Minute,Max,Month,Day,Hour,Minute]
End of Data Dictionary
1,RUN PERIOD 1,  41.98, -87.92,  -6.00, 201.00
4,31, 1
11,9224933455.933372,273655.4830105414,11,19,50,3612291.2500290195,23,13,30
23,2032331987.494165,112212.62592744063,11,20,60,1134421.7949305903,31,13,60
59,1063061825.8240281,32871.423185650434, 1, 1,10,657428.4637130087, 1, 8,10
521,7192601468.4392185,0.0,11,13,60,2573870.3728012173,27,20,10
637,16242023385.759256,0.0, 1,10,30,20409128.21014887,31, 7,50
649,16242023385.759256,0.0, 1,10,30,20409128.21014887,31, 7,50
4,59, 2
11,7651103979.563621,270425.0298712025, 9,14,30,3621186.0260820566,21,12,30
23,1791390540.473053,99999999999999.0,11,20,60,-99999999999999.0,31,13,60
59,929340876.3047696,99999999999999.0, 1, 1,10,-99999999999999.0, 1, 8,10
521,5859713439.090564,99999999999999.0,11,13,60,2588598.246026494, 5, 4,10
637,13336953195.183401,99999999999999.0, 1,10,30,21127160.33181741, 3, 7,60
649,13336953195.183401,99999999999999.0, 1,10,30,21127160.33181741, 3, 7,60
4,90, 3
11,7593266857.347265,96228.55614306031,31,16,60,-99999999999999.0,21,12,30
23,1889643890.9713535,96228.55614306031,31,16,60,1143294.120982217,18, 9,60
59,983381496.0220011,99999999999999.0, 1, 1,10,-99999999999999.0, 1, 8,10
521,5703622966.375915,99999999999999.0,11,13,60,-99999999999999.0, 5, 4,10
637,9899062305.888363,99999999999999.0, 1,10,30,-99999999999999.0, 3, 7,60
649,9899062305.888363,99999999999999.0, 1,10,30,-99999999999999.0, 3, 7,60
4,120, 4
11,4570885048.001877,32871.423185650434,12,19,10,-99999999999999.0,21,12,30
23,1828353032.3913908,32871.423185650434, 5, 4,50,-99999999999999.0,18, 9,60
59,1018488175.98428,99999999999999.0, 1, 1,10,-99999999999999.0, 1, 8,10
521,2742532015.610509,99999999999999.0,11,13,60,-99999999999999.0, 5, 4,10
637,4052125592.2698736,99999999999999.0, 1,10,30,-99999999999999.0, 3, 7,60
649,4052125592.2698736,99999999999999.0, 1,10,30,-99999999999999.0, 3, 7,60
4,151, 5
11,3387533715.919404,99999999999999.0,12,19,10,-99999999999999.0,21,12,30
23,1814941632.6726263,99999999999999.0, 5, 4,50,-99999999999999.0,18, 9,60
59,1063061825.8240281,99999999999999.0, 1, 1,10,-99999999999999.0, 1, 8,10
521,1572592083.24676,99999999999999.0,11,13,60,-99999999999999.0, 5, 4,10
637,1024557136.0384512,99999999999999.0, 1,10,30,-99999999999999.0, 3, 7,60
649,1024557136.0384512,99999999999999.0, 1,10,30,-99999999999999.0, 3, 7,60
4,181, 6
11,3166444044.8428645,99999999999999.0,12,19,10,-99999999999999.0,21,12,30
23,1539200912.8388467,99999999999999.0, 5, 4,50,-99999999999999.0,18, 9,60
59,938807846.1822515,99999999999999.0, 1, 1,10,-99999999999999.0, 1, 8,10
521,1627243132.0039759,99999999999999.0,11,13,60,-99999999999999.0, 5, 4,10
637,58478832.132961325,99999999999999.0, 1,10,30,-99999999999999.0, 3, 7,60
649,58478832.132961325,99999999999999.0, 1,10,30,-99999999999999.0, 3, 7,60
4,212, 7
11,4009247527.9593596,99999999999999.0,12,19,10,-99999999999999.0,21,12,30
23,1660860847.8131106,99999999999999.0, 5, 4,50,-99999999999999.0,18, 9,60
59,1063061825.8240281,99999999999999.0, 1, 1,10,-99999999999999.0, 1, 8,10
521,2348386680.1461987,99999999999999.0,11,13,60,-99999999999999.0, 5, 4,10
637,663007.6989830683,99999999999999.0, 1,10,30,-99999999999999.0, 3, 7,60
649,663007.6989830683,99999999999999.0, 1,10,30,-99999999999999.0, 3, 7,60
4,243, 8
11,3555360166.8368216,99999999999999.0,12,19,10,-99999999999999.0,21,12,30
23,1631927461.5316823,99999999999999.0, 5, 4,50,-99999999999999.0,18, 9,60
59,1023221660.9230217,99999999999999.0, 1, 1,10,-99999999999999.0, 1, 8,10
521,1923432705.3050919,99999999999999.0,11,13,60,-99999999999999.0, 5, 4,10
637,14306975.965594785,99999999999999.0, 1,10,30,-99999999999999.0, 3, 7,60
649,14306975.965594785,99999999999999.0, 1,10,30,-99999999999999.0, 3, 7,60
4,273, 9
11,2904159161.8348684,99999999999999.0,12,19,10,-99999999999999.0,21,12,30
23,1622455674.57508,99999999999999.0, 5, 4,50,-99999999999999.0,18, 9,60
59,978648011.0832657,99999999999999.0, 1, 1,10,-99999999999999.0, 1, 8,10
521,1281703487.2597797,99999999999999.0,11,13,60,-99999999999999.0, 5, 4,10
637,76363111.28126594,99999999999999.0, 1,10,30,-99999999999999.0, 3, 7,60
649,76363111.28126594,99999999999999.0, 1,10,30,-99999999999999.0, 3, 7,60
4,304,10
11,3683522369.786471,99999999999999.0,12,19,10,-99999999999999.0,21,12,30
23,1863340722.6774373,99999999999999.0, 5, 4,50,-99999999999999.0,18, 9,60
59,1063061825.8240281,99999999999999.0, 1, 1,10,-99999999999999.0, 1, 8,10
521,1820181647.109033,99999999999999.0,11,13,60,-99999999999999.0, 5, 4,10
637,2145652246.686063,99999999999999.0, 1,10,30,-99999999999999.0, 3, 7,60
649,2145652246.686063,99999999999999.0, 1,10,30,-99999999999999.0, 3, 7,60
4,334,11
11,6300293134.971416,99999999999999.0,12,19,10,-99999999999999.0,21,12,30
23,1825744860.824381,99999999999999.0, 5, 4,50,-99999999999999.0,18, 9,60
59,978648011.0832595,99999999999999.0, 1, 1,10,-99999999999999.0, 1, 8,10
521,4474548274.147017,99999999999999.0,11,13,60,-99999999999999.0, 5, 4,10
637,8531843842.83097,99999999999999.0, 1,10,30,-99999999999999.0, 3, 7,60
649,8531843842.83097,99999999999999.0, 1,10,30,-99999999999999.0, 3, 7,60
4,365,12
11,7976160359.664845,99999999999999.0,12,19,10,-99999999999999.0,21,12,30
23,1924093622.0383897,99999999999999.0, 5, 4,50,-99999999999999.0,18, 9,60
59,1023221660.9230138,99999999999999.0, 1, 1,10,-99999999999999.0, 1, 8,10
521,6052066737.626442,99999999999999.0,11,13,60,-99999999999999.0, 5, 4,10
637,10512312178.164812,99999999999999.0, 1,10,30,-99999999999999.0, 3, 7,60
649,10512312178.164812,99999999999999.0, 1,10,30,-99999999999999.0, 3, 7,60
5,365
13,64022909822.66296,32871.423185650434, 4,12,19,10,3621186.0260820566, 2,21,12,30
25,21424285186.300762,32871.423185650434, 4, 5, 4,50,1143294.120982217, 3,18, 9,60
61,12126005041.792898,32871.423185650434, 1, 1, 1,10,657428.4637130087, 1, 1, 8,10
523,42598624636.360855,0.0, 1,11,13,60,2588598.246026494, 2, 5, 4,10
639,65894341809.90006,0.0, 1, 1,10,30,21127160.33181741, 2, 3, 7,60
651,65894341809.90006,0.0, 1, 1,10,30,21127160.33181741, 2, 3, 7,60
1,RUN PERIOD 2,  41.98, -87.92,  -6.00, 201.00
4,1, 7
11,120926402.88238615,99999999999999.0,12,19,10,-99999999999999.0,21,12,30
23,69857391.84131484,99999999999999.0, 5, 4,50,-99999999999999.0,18, 9,60
59,44573649.83974208,99999999999999.0, 1, 1,10,-99999999999999.0, 1, 8,10
521,51069011.04107143,99999999999999.0,11,13,60,-99999999999999.0, 5, 4,10
637,0.0,99999999999999.0, 1,10,30,-99999999999999.0, 3, 7,60
649,0.0,99999999999999.0, 1,10,30,-99999999999999.0, 3, 7,60
5,1
13,120926402.88238615,99999999999999.0, 4,12,19,10,-99999999999999.0, 2,21,12,30
25,69857391.84131484,99999999999999.0, 4, 5, 4,50,-99999999999999.0, 3,18, 9,60
61,44573649.83974208,99999999999999.0, 1, 1, 1,10,-99999999999999.0, 1, 1, 8,10
523,51069011.04107143,99999999999999.0, 1,11,13,60,-99999999999999.0, 2, 5, 4,10
639,0.0,99999999999999.0, 1, 1,10,30,-99999999999999.0, 2, 3, 7,60
651,0.0,99999999999999.0, 1, 1,10,30,-99999999999999.0, 2, 3, 7,60
End of Data
 Number of Records Written=          90
