Program Version,EnergyPlus, Version 24.2.0-94a887817b, YMD=2025.01.30 19:34
1,5,Environment Title[],Latitude[deg],Longitude[deg],Time Zone[],Elevation[m]
2,8,Day of Simulation[],Month[],Day of Month[],DST Indicator[1=yes 0=no],Hour[],StartMinute[],EndMinute[],DayType
3,5,Cumulative Day of Simulation[],Month[],Day of Month[],DST Indicator[1=yes 0=no],DayType  ! When Daily Meters Requested
4,2,Cumulative Days of Simulation[],Month[]  ! When Monthly Meters Requested
5,1,Cumulative Days of Simulation[] ! When Run Period Meters Requested
6,1,Calendar Year of Simulation[] ! When Annual Meters Requested
11,9,Electricity:Facility [J] !Monthly [Value,Min,Day,Hour,Minute,Max,Day,Hour,Minute]
23,9,Electricity:Building [J] !Monthly [Value,Min,Day,Hour,Minute,Max,Day,Hour,Minute]
59,9,InteriorLights:Electricity [J] !Monthly [Value,Min,Day,Hour,Minute,Max,Day,Hour,Minute]
521,9,Electricity:HVAC [J] !Monthly [Value,Min,Day,Hour,Minute,Max,Day,Hour,Minute]
637,9,NaturalGas:Facility [J] !Monthly [Value,Min,Day,Hour,Minute,Max,Day,Hour,Minute]
649,9,NaturalGas:HVAC [J] !Monthly [Value,Min,Day,Hour,Minute,Max,Day,Hour,Minute]
13,11,Electricity:Facility [J] !RunPeriod [Value,Min,Month,Day,Hour,Minute,Max,Month,Day,Hour,Minute]
25,11,Electricity:Building [J] !RunPeriod [Value,Min,Month,Day,Hour,Minute,Max,Month,Day,Hour,Minute]
61,11,InteriorLights:Electricity [J] !RunPeriod [Value,Min,Month,Day,Hour,Minute,Max,Month,Day,Hour,Minute]
523,11,Electricity:HVAC [J] !RunPeriod [Value,Min,Month,Day,Hour,Minute,Max,Month,Day,Hour,Minute]
639,11,NaturalGas:Facility [J] !RunPeriod [Value,Min,Month,Day,Hour,Minute,Max,Month,Day,Hour,Minute]
651,11,NaturalGas:HVAC [J] !RunPeriod [Value,Min,Month,Day,Hour,Minute,Max,Month,Day,Hour,Minute]
End of Data Dictionary
1,RUN PERIOD 1,  41.98, -87.92,  -6.00, 201.00
4,31, 1
11,9837708725.150185,408891.4285714286, 5, 6,50,2990095.4310271987,16,13,60
23,998658623.9191874,30000.0, 1, 1,10,620622.191245774, 1, 9,10
59,970200000.0,30000.0, 1, 1,10,600000.0, 1, 8,10
521,8839050101.230986,378891.4285714286, 5, 6,50,2369473.239781425,16,13,60
637,176590626315.5547,27177053.723851554,21,16,10,41250000.0, 1, 1,20
649,176590626315.5547,27177053.723851554,21,16,10,41250000.0, 1, 1,20
4,59, 2
11,9369282750.558773,99999999999999.0, 5, 6,50,3031556.871290321,22,15,30
23,872906629.4949447,99999999999999.0, 1, 1,10,-99999999999999.0, 1, 9,10
59,848160000.0,99999999999999.0, 1, 1,10,-99999999999999.0, 1, 8,10
521,8496376121.063895,99999999999999.0, 5, 6,50,2410934.680044547,22,15,30
637,155411981580.169,25525739.390864436,23,12,10,-99999999999999.0, 1, 1,20
649,155411981580.169,25525739.390864436,23,12,10,-99999999999999.0, 1, 1,20
4,90, 3
11,11036488246.75557,99999999999999.0, 5, 6,50,3416213.365708507,27,16,10
23,930396434.2922419,99999999999999.0, 1, 1,10,706194.7653676232,26,14,60
59,897480000.0,99999999999999.0, 1, 1,10,-99999999999999.0, 1, 8,10
521,10106091812.463324,99999999999999.0, 5, 6,50,2718377.338364528,27,16,10
637,157803877774.2653,19928080.32223939,27,16,10,-99999999999999.0, 1, 1,20
649,157803877774.2653,19928080.32223939,27,16,10,-99999999999999.0, 1, 1,20
4,120, 4
11,9976808494.90342,30000.0,11,19,10,3419347.3697938034,24,11,50
23,985154149.2341136,99999999999999.0, 1, 1,10,707679.1794382309,24,16,60
59,929520000.0,99999999999999.0, 1, 1,10,-99999999999999.0, 1, 8,10
521,8991654345.66931,0.0,11,14,20,2727548.3047477948,14,12,40
637,120312059314.85722,0.0,11,14,20,-99999999999999.0, 1, 1,20
649,120312059314.85722,0.0,11,14,20,-99999999999999.0, 1, 1,20
4,151, 5
11,9721924080.900091,99999999999999.0,11,19,10,-99999999999999.0,24,11,50
23,1059624168.368722,99999999999999.0, 1, 1,10,715238.2120786738,13,13,60
59,970200000.0,99999999999999.0, 1, 1,10,-99999999999999.0, 1, 8,10
521,8662299912.531256,99999999999999.0,11,14,20,-99999999999999.0,14,12,40
637,96012085058.6818,99999999999999.0,11,14,20,-99999999999999.0, 1, 1,20
649,96012085058.6818,99999999999999.0,11,14,20,-99999999999999.0, 1, 1,20
4,181, 6
11,7682896846.5986595,99999999999999.0,11,19,10,3421526.7687932095, 5,16,60
23,965055409.0342684,99999999999999.0, 1, 1,10,-99999999999999.0,13,13,60
59,856800000.0,99999999999999.0, 1, 1,10,-99999999999999.0, 1, 8,10
521,6717841437.564403,99999999999999.0,11,14,20,2728180.2055955664,10, 3,20
637,51149502537.415436,99999999999999.0,11,14,20,-99999999999999.0, 1, 1,20
649,51149502537.415436,99999999999999.0,11,14,20,-99999999999999.0, 1, 1,20
4,212, 7
11,6774992945.335477,99999999999999.0,11,19,10,-99999999999999.0, 5,16,60
23,1061240575.5210694,99999999999999.0, 1, 1,10,-99999999999999.0,13,13,60
59,970200000.0,99999999999999.0, 1, 1,10,-99999999999999.0, 1, 8,10
521,5713752369.814406,99999999999999.0,11,14,20,-99999999999999.0,10, 3,20
637,27171828448.662315,99999999999999.0,11,14,20,-99999999999999.0, 1, 1,20
649,27171828448.662315,99999999999999.0,11,14,20,-99999999999999.0, 1, 1,20
4,243, 8
11,7029041731.799211,99999999999999.0,11,19,10,-99999999999999.0, 5,16,60
23,1056100605.6890221,99999999999999.0, 1, 1,10,-99999999999999.0,13,13,60
59,933840000.0,99999999999999.0, 1, 1,10,-99999999999999.0, 1, 8,10
521,5972941126.110177,99999999999999.0,11,14,20,2728205.4798176917, 6, 9,30
637,44170982325.53298,99999999999999.0,11,14,20,-99999999999999.0, 1, 1,20
649,44170982325.53298,99999999999999.0,11,14,20,-99999999999999.0, 1, 1,20
4,273, 9
11,9032615496.481405,99999999999999.0,11,19,10,-99999999999999.0, 5,16,60
23,1023023207.2040181,99999999999999.0, 1, 1,10,-99999999999999.0,13,13,60
59,893160000.0,99999999999999.0, 1, 1,10,-99999999999999.0, 1, 8,10
521,8009592289.277398,99999999999999.0,11,14,20,-99999999999999.0, 6, 9,30
637,76813035858.83209,99999999999999.0,11,14,20,-99999999999999.0, 1, 1,20
649,76813035858.83209,99999999999999.0,11,14,20,-99999999999999.0, 1, 1,20
4,304,10
11,10877868637.87293,99999999999999.0,11,19,10,3423435.703274766, 9,14,20
23,1029793832.15101,99999999999999.0, 1, 1,10,-99999999999999.0,13,13,60
59,970200000.0,99999999999999.0, 1, 1,10,-99999999999999.0, 1, 8,10
521,9848074805.721954,99999999999999.0,11,14,20,2728635.1590709924, 2,12,40
637,125672198390.42416,99999999999999.0,11,14,20,-99999999999999.0, 1, 1,20
649,125672198390.42416,99999999999999.0,11,14,20,-99999999999999.0, 1, 1,20
4,334,11
11,10664929115.24504,99999999999999.0,11,19,10,-99999999999999.0, 9,14,20
23,937940144.1549072,99999999999999.0, 1, 1,10,-99999999999999.0,13,13,60
59,893160000.0,99999999999999.0, 1, 1,10,-99999999999999.0, 1, 8,10
521,9726988971.09014,99999999999999.0,11,14,20,-99999999999999.0, 2,12,40
637,145011979398.61215,99999999999999.0,11,14,20,-99999999999999.0, 1, 1,20
649,145011979398.61215,99999999999999.0,11,14,20,-99999999999999.0, 1, 1,20
4,365,12
11,10450011912.828243,99999999999999.0,11,19,10,-99999999999999.0, 9,14,20
23,961061292.4444399,99999999999999.0, 1, 1,10,-99999999999999.0,13,13,60
59,933840000.0,99999999999999.0, 1, 1,10,-99999999999999.0, 1, 8,10
521,9488950620.383821,99999999999999.0,11,14,20,-99999999999999.0, 2,12,40
637,177221171900.96692,99999999999999.0,11,14,20,-99999999999999.0, 1, 1,20
649,177221171900.96692,99999999999999.0,11,14,20,-99999999999999.0, 1, 1,20
5,365
13,112454568984.42632,30000.0, 4,11,19,10,3423435.703274766,10, 9,14,20
25,11880955071.50941,30000.0, 1, 1, 1,10,715238.2120786738, 5,13,13,60
61,11066760000.0,30000.0, 1, 1, 1,10,600000.0, 1, 1, 8,10
523,100573613912.92668,0.0, 4,11,14,20,2728635.1590709924,10, 2,12,40
639,1353341328903.9717,0.0, 4,11,14,20,41250000.0, 1, 1, 1,20
651,1353341328903.9717,0.0, 4,11,14,20,41250000.0, 1, 1, 1,20
1,RUN PERIOD 2,  41.98, -87.92,  -6.00, 201.00
4,1, 7
11,190594805.465474,99999999999999.0,11,19,10,-99999999999999.0, 9,14,20
23,44027875.48868661,99999999999999.0, 1, 1,10,-99999999999999.0,13,13,60
59,40680000.0,99999999999999.0, 1, 1,10,-99999999999999.0, 1, 8,10
521,146566929.97678745,99999999999999.0,11,14,20,-99999999999999.0, 2,12,40
637,768179334.8802962,99999999999999.0,11,14,20,-99999999999999.0, 1, 1,20
649,768179334.8802962,99999999999999.0,11,14,20,-99999999999999.0, 1, 1,20
5,1
13,190594805.465474,99999999999999.0, 4,11,19,10,-99999999999999.0,10, 9,14,20
25,44027875.48868661,99999999999999.0, 1, 1, 1,10,-99999999999999.0, 5,13,13,60
61,40680000.0,99999999999999.0, 1, 1, 1,10,-99999999999999.0, 1, 1, 8,10
523,146566929.97678745,99999999999999.0, 4,11,14,20,-99999999999999.0,10, 2,12,40
639,768179334.8802962,99999999999999.0, 4,11,14,20,-99999999999999.0, 1, 1, 1,20
651,768179334.8802962,99999999999999.0, 4,11,14,20,-99999999999999.0, 1, 1, 1,20
End of Data
 Number of Records Written=          90
