Program Version,EnergyPlus, Version 24.2.0-94a887817b, YMD=2025.01.22 00:04
1,5,Environment Title[],Latitude[deg],Longitude[deg],Time Zone[],Elevation[m]
2,8,Day of Simulation[],Month[],Day of Month[],DST Indicator[1=yes 0=no],Hour[],StartMinute[],EndMinute[],DayType
3,5,Cumulative Day of Simulation[],Month[],Day of Month[],DST Indicator[1=yes 0=no],DayType  ! When Daily Meters Requested
4,2,Cumulative Days of Simulation[],Month[]  ! When Monthly Meters Requested
5,1,Cumulative Days of Simulation[] ! When Run Period Meters Requested
6,1,Calendar Year of Simulation[] ! When Annual Meters Requested
11,9,Electricity:Facility [J] !Monthly [Value,Min,Day,Hour,Minute,Max,Day,Hour,Minute]
23,9,Electricity:Building [J] !Monthly [Value,Min,Day,Hour,Minute,Max,Day,Hour,Minute]
59,9,InteriorLights:Electricity [J] !Monthly [Value,Min,Day,Hour,Minute,Max,Day,Hour,Minute]
521,9,Electricity:HVAC [J] !Monthly [Value,Min,Day,Hour,Minute,Max,Day,Hour,Minute]
637,9,NaturalGas:Facility [J] !Monthly [Value,Min,Day,Hour,Minute,Max,Day,Hour,Minute]
649,9,NaturalGas:HVAC [J] !Monthly [Value,Min,Day,Hour,Minute,Max,Day,Hour,Minute]
13,11,Electricity:Facility [J] !RunPeriod [Value,Min,Month,Day,Hour,Minute,Max,Month,Day,Hour,Minute]
25,11,Electricity:Building [J] !RunPeriod [Value,Min,Month,Day,Hour,Minute,Max,Month,Day,Hour,Minute]
61,11,InteriorLights:Electricity [J] !RunPeriod [Value,Min,Month,Day,Hour,Minute,Max,Month,Day,Hour,Minute]
523,11,Electricity:HVAC [J] !RunPeriod [Value,Min,Month,Day,Hour,Minute,Max,Month,Day,Hour,Minute]
639,11,NaturalGas:Facility [J] !RunPeriod [Value,Min,Month,Day,Hour,Minute,Max,Month,Day,Hour,Minute]
651,11,NaturalGas:HVAC [J] !RunPeriod [Value,Min,Month,Day,Hour,Minute,Max,Month,Day,Hour,Minute]
End of Data Dictionary
1,RUN PERIOD 1,  41.98, -87.92,  -6.00, 201.00
4,31, 1
11,9833946119.146765,408891.4285714286, 5, 6,50,2987368.9049377814,16,13,60
23,994896017.9157808,30000.0, 1, 1,10,617895.6651563566, 1, 9,10
59,970200000.0,30000.0, 1, 1,10,600000.0, 1, 8,10
521,8839050101.230986,378891.4285714286, 5, 6,50,2369473.239781425,16,13,60
637,178974074511.50525,28231840.522961184,21,16,10,41250000.0, 1, 1,10
649,178974074511.50525,28231840.522961184,21,16,10,41250000.0, 1, 1,10
4,59, 2
11,9366010919.2515,99999999999999.0, 5, 6,50,3028830.3452009037,22,15,30
23,869634798.1876352,99999999999999.0, 1, 1,10,-99999999999999.0, 1, 9,10
59,848160000.0,99999999999999.0, 1, 1,10,-99999999999999.0, 1, 8,10
521,8496376121.063895,99999999999999.0, 5, 6,50,2410934.680044547,22,15,30
637,158349023464.25287,26544065.72759068,23,12,10,-99999999999999.0, 1, 1,10
649,158349023464.25287,26544065.72759068,23,12,10,-99999999999999.0, 1, 1,10
4,90, 3
11,11022357092.229795,99999999999999.0, 5, 6,50,3278834.9724880755,27,16,10
23,920028538.097017,99999999999999.0, 1, 1,10,-99999999999999.0, 1, 9,10
59,897480000.0,99999999999999.0, 1, 1,10,-99999999999999.0, 1, 8,10
521,10102328554.132729,99999999999999.0, 5, 6,50,2660939.307331719,27,16,10
637,162754713147.2921,21014378.739335146,27,16,10,-99999999999999.0, 1, 1,10
649,162754713147.2921,21014378.739335146,27,16,10,-99999999999999.0, 1, 1,10
4,120, 4
11,10206424452.699438,30000.0,11,19,10,3360440.1705020135,11,15,30
23,953196213.4777083,99999999999999.0, 1, 1,10,-99999999999999.0, 1, 9,10
59,929520000.0,99999999999999.0, 1, 1,10,-99999999999999.0, 1, 8,10
521,9253228239.221752,0.0,11,15,60,2742544.505345657,11,15,30
637,126827133290.53905,0.0,11,15,60,-99999999999999.0, 1, 1,10
649,126827133290.53905,0.0,11,15,60,-99999999999999.0, 1, 1,10
4,151, 5
11,10312158804.679533,99999999999999.0,11,19,10,-99999999999999.0,11,15,30
23,995230896.3053442,99999999999999.0, 1, 1,10,633803.7056931342,28,13,10
59,970200000.0,99999999999999.0, 1, 1,10,-99999999999999.0, 1, 8,10
521,9316927908.374266,99999999999999.0,11,15,60,-99999999999999.0,11,15,30
637,105457011769.24715,99999999999999.0,11,15,60,-99999999999999.0, 1, 1,10
649,105457011769.24715,99999999999999.0,11,15,60,-99999999999999.0, 1, 1,10
4,181, 6
11,8609200796.17854,99999999999999.0,11,19,10,-99999999999999.0,11,15,30
23,878548918.0526521,99999999999999.0, 1, 1,10,-99999999999999.0,28,13,10
59,856800000.0,99999999999999.0, 1, 1,10,-99999999999999.0, 1, 8,10
521,7730651878.12588,99999999999999.0,11,15,60,-99999999999999.0,11,15,30
637,62343686724.33007,99999999999999.0,11,15,60,-99999999999999.0, 1, 1,10
649,62343686724.33007,99999999999999.0,11,15,60,-99999999999999.0, 1, 1,10
4,212, 7
11,7945361924.503256,99999999999999.0,11,19,10,-99999999999999.0,11,15,30
23,995173967.6933556,99999999999999.0, 1, 1,10,-99999999999999.0,28,13,10
59,970200000.0,99999999999999.0, 1, 1,10,-99999999999999.0, 1, 8,10
521,6950187956.809898,99999999999999.0,11,15,60,-99999999999999.0,11,15,30
637,39472433412.20693,99999999999999.0,11,15,60,-99999999999999.0, 1, 1,10
649,39472433412.20693,99999999999999.0,11,15,60,-99999999999999.0, 1, 1,10
4,243, 8
11,8313264036.4722595,99999999999999.0,11,19,10,-99999999999999.0,11,15,30
23,957925308.1897815,99999999999999.0, 1, 1,10,645194.6311710112, 6,11,60
59,933840000.0,99999999999999.0, 1, 1,10,-99999999999999.0, 1, 8,10
521,7355338728.282491,99999999999999.0,11,15,60,-99999999999999.0,11,15,30
637,59556997557.67885,99999999999999.0,11,15,60,-99999999999999.0, 1, 1,10
649,59556997557.67885,99999999999999.0,11,15,60,-99999999999999.0, 1, 1,10
4,273, 9
11,9909409091.683973,99999999999999.0,11,19,10,-99999999999999.0,11,15,30
23,915873188.8367327,99999999999999.0, 1, 1,10,-99999999999999.0, 6,11,60
59,893160000.0,99999999999999.0, 1, 1,10,-99999999999999.0, 1, 8,10
521,8993535902.847246,99999999999999.0,11,15,60,-99999999999999.0,11,15,30
637,88727556804.14253,99999999999999.0,11,15,60,-99999999999999.0, 1, 1,10
649,88727556804.14253,99999999999999.0,11,15,60,-99999999999999.0, 1, 1,10
4,304,10
11,11084110230.70549,99999999999999.0,11,19,10,-99999999999999.0,11,15,30
23,995017000.9414827,99999999999999.0, 1, 1,10,-99999999999999.0, 6,11,60
59,970200000.0,99999999999999.0, 1, 1,10,-99999999999999.0, 1, 8,10
521,10089093229.764034,99999999999999.0,11,15,60,-99999999999999.0,11,15,30
637,132519210748.12814,99999999999999.0,11,15,60,-99999999999999.0, 1, 1,10
649,132519210748.12814,99999999999999.0,11,15,60,-99999999999999.0, 1, 1,10
4,334,11
11,10666591468.067219,99999999999999.0,11,19,10,-99999999999999.0,11,15,30
23,915708538.097017,99999999999999.0, 1, 1,10,-99999999999999.0, 6,11,60
59,893160000.0,99999999999999.0, 1, 1,10,-99999999999999.0, 1, 8,10
521,9750882929.970217,99999999999999.0,11,15,60,-99999999999999.0,11,15,30
637,149272956417.63956,99999999999999.0,11,15,60,-99999999999999.0, 1, 1,10
649,149272956417.63956,99999999999999.0,11,15,60,-99999999999999.0, 1, 1,10
4,365,12
11,10446412898.390194,99999999999999.0,11,19,10,-99999999999999.0,11,15,30
23,957462278.006399,99999999999999.0, 1, 1,10,-99999999999999.0, 6,11,60
59,933840000.0,99999999999999.0, 1, 1,10,-99999999999999.0, 1, 8,10
521,9488950620.383821,99999999999999.0,11,15,60,-99999999999999.0,11,15,30
637,179808235422.23917,99999999999999.0,11,15,60,-99999999999999.0, 1, 1,10
649,179808235422.23917,99999999999999.0,11,15,60,-99999999999999.0, 1, 1,10
5,365
13,117715247834.01532,30000.0, 4,11,19,10,3360440.1705020135, 4,11,15,30
25,11348695663.797308,30000.0, 1, 1, 1,10,645194.6311710112, 8, 6,11,60
61,11066760000.0,30000.0, 1, 1, 1,10,600000.0, 1, 1, 8,10
523,106366552170.21399,0.0, 4,11,15,60,2742544.505345657, 4,11,15,30
639,1444063033269.1929,0.0, 4,11,15,60,41250000.0, 1, 1, 1,10
651,1444063033269.1929,0.0, 4,11,15,60,41250000.0, 1, 1, 1,10
1,RUN PERIOD 2,  41.98, -87.92,  -6.00, 201.00
4,1, 7
11,279413324.4251526,99999999999999.0,11,19,10,-99999999999999.0,11,15,30
23,41753739.90938142,99999999999999.0, 1, 1,10,-99999999999999.0, 6,11,60
59,40680000.0,99999999999999.0, 1, 1,10,-99999999999999.0, 1, 8,10
521,237659584.5157709,99999999999999.0,11,15,60,-99999999999999.0,11,15,30
637,1541712232.1081245,99999999999999.0,11,15,60,-99999999999999.0, 1, 1,10
649,1541712232.1081245,99999999999999.0,11,15,60,-99999999999999.0, 1, 1,10
5,1
13,279413324.4251526,99999999999999.0, 4,11,19,10,-99999999999999.0, 4,11,15,30
25,41753739.90938142,99999999999999.0, 1, 1, 1,10,-99999999999999.0, 8, 6,11,60
61,40680000.0,99999999999999.0, 1, 1, 1,10,-99999999999999.0, 1, 1, 8,10
523,237659584.5157709,99999999999999.0, 4,11,15,60,-99999999999999.0, 4,11,15,30
639,1541712232.1081245,99999999999999.0, 4,11,15,60,-99999999999999.0, 1, 1, 1,10
651,1541712232.1081245,99999999999999.0, 4,11,15,60,-99999999999999.0, 1, 1, 1,10
End of Data
 Number of Records Written=          90
