Program Version,EnergyPlus, Version 24.2.0-94a887817b, YMD=2025.02.04 15:38
1,5,Environment Title[],Latitude[deg],Longitude[deg],Time Zone[],Elevation[m]
2,8,Day of Simulation[],Month[],Day of Month[],DST Indicator[1=yes 0=no],Hour[],StartMinute[],EndMinute[],DayType
3,5,Cumulative Day of Simulation[],Month[],Day of Month[],DST Indicator[1=yes 0=no],DayType  ! When Daily Report Variables Requested
4,2,Cumulative Days of Simulation[],Month[]  ! When Monthly Report Variables Requested
5,1,Cumulative Days of Simulation[] ! When Run Period Report Variables Requested
6,1,Calendar Year of Simulation[] ! When Annual Report Variables Requested
250,1,LIVING ZONE,Zone Air Temperature [C] !TimeStep,REPORTSCH
251,1,LIVING ZONE,Zone Air System Sensible Heating Energy [J] !TimeStep,REPORTSCH
336,1,LIVING ZONE,Zone Air System Sensible Cooling Energy [J] !TimeStep,REPORTSCH
385,1,LIVING ZONE,Zone Thermostat Heating Setpoint Temperature [C] !TimeStep,REPORTSCH
386,1,LIVING ZONE,Zone Thermostat Cooling Setpoint Temperature [C] !TimeStep,REPORTSCH
387,1,GARAGE ZONE,Zone Air Temperature [C] !TimeStep,REPORTSCH
388,1,GARAGE ZONE,Zone Air System Sensible Heating Energy [J] !TimeStep,REPORTSCH
425,1,GARAGE ZONE,Zone Air System Sensible Cooling Energy [J] !TimeStep,REPORTSCH
450,1,GARAGE ZONE,Zone Thermostat Heating Setpoint Temperature [C] !TimeStep,REPORTSCH
451,1,GARAGE ZONE,Zone Thermostat Cooling Setpoint Temperature [C] !TimeStep,REPORTSCH
452,1,ATTIC ZONE,Zone Air Temperature [C] !TimeStep,REPORTSCH
453,1,ATTIC ZONE,Zone Air System Sensible Heating Energy [J] !TimeStep,REPORTSCH
490,1,ATTIC ZONE,Zone Air System Sensible Cooling Energy [J] !TimeStep,REPORTSCH
515,1,ATTIC ZONE,Zone Thermostat Heating Setpoint Temperature [C] !TimeStep,REPORTSCH
516,1,ATTIC ZONE,Zone Thermostat Cooling Setpoint Temperature [C] !TimeStep,REPORTSCH
542,1,ACDXCOIL 1,Cooling Coil Total Cooling Energy [J] !TimeStep,REPORTSCH
592,1,HEAT PUMP DX HEATING COIL 1,Heating Coil Heating Energy [J] !TimeStep,REPORTSCH
632,1,SUPP HEATING COIL 1,Heating Coil Heating Energy [J] !TimeStep,REPORTSCH
686,1,TWOSPEED HEAT PUMP 1,Unitary System DX Coil Cycling Ratio [] !TimeStep,REPORTSCH
687,1,TWOSPEED HEAT PUMP 1,Unitary System DX Coil Speed Ratio [] !TimeStep,REPORTSCH
688,1,TWOSPEED HEAT PUMP 1,Unitary System DX Coil Speed Level [] !TimeStep,REPORTSCH
End of Data Dictionary
1,RUN PERIOD 1,  41.98, -87.92,  -6.00, 201.00
2,21, 1,21, 0, 1, 0.00,10.00,Monday
250,-0.33670319885595085
251,37861559.053076506
336,0.0
385,22.140511709262405
386,26.243546254687796
387,-0.9369289213304813
388,0.0
425,0.0
450,0.0
451,0.0
452,-1.9634834991539987
453,0.0
490,0.0
515,0.0
516,0.0
542,0.0
592,4839743.985079641
632,32764563.552271947
686,1.0
687,1.0
688,2.0
2,21, 1,21, 0, 1,10.00,20.00,Monday
250,-0.33674240462378274
251,37863173.74148287
336,0.0
385,22.140511709262405
386,26.243546254687796
387,-0.9453167889977375
388,0.0
425,0.0
450,0.0
451,0.0
452,-1.9453848864283174
453,0.0
490,0.0
515,0.0
516,0.0
542,0.0
592,4823801.676011796
632,32780459.5319302
686,1.0
687,1.0
688,2.0
2,21, 1,21, 0, 1,20.00,30.00,Monday
250,-0.3369790617351579
251,37864964.125292614
336,0.0
385,22.140511709262405
386,26.243546254687796
387,-0.9549309504243059
388,0.0
425,0.0
450,0.0
451,0.0
452,-1.9422909104344777
453,0.0
490,0.0
515,0.0
516,0.0
542,0.0
592,4807858.16290522
632,32798087.132651575
686,1.0
687,1.0
688,2.0
2,21, 1,21, 0, 1,30.00,40.00,Monday
250,-0.3371664308675051
251,37866704.68722024
336,0.0
385,22.140511709262405
386,26.243546254687796
387,-0.9659762663816442
388,0.0
425,0.0
450,0.0
451,0.0
452,-1.9551332072739824
453,0.0
490,0.0
515,0.0
516,0.0
542,0.0
592,4791913.445623512
632,32815798.941011794
686,1.0
687,1.0
688,2.0
2,21, 1,21, 0, 1,40.00,50.00,Monday
250,-0.33736156319921884
251,37868453.26786211
336,0.0
385,22.140511709262405
386,26.243546254687796
387,-0.9786103735864673
388,0.0
425,0.0
450,0.0
451,0.0
452,-1.982297831409786
453,0.0
490,0.0
515,0.0
516,0.0
542,0.0
592,4775967.524030239
632,32833489.259292737
686,1.0
687,1.0
688,2.0
2,21, 1,21, 0, 1,50.00,60.00,Monday
250,-0.3375606833345228
251,37870204.93414885
336,0.0
385,22.140511709262405
386,26.243546254687796
387,-0.9930222880681797
388,0.0
425,0.0
450,0.0
451,0.0
452,-2.0222483389113415
453,0.0
490,0.0
515,0.0
516,0.0
542,0.0
592,4760020.397988958
632,32851185.899998985
686,1.0
687,1.0
688,2.0
2,21, 1,21, 0, 2, 0.00,10.00,Monday
250,-0.33774663203915883
251,37871949.52925601
336,0.0
385,22.140511709262405
386,26.243546254687796
387,-1.0085347767156414
388,0.0
425,0.0
450,0.0
451,0.0
452,-2.068948208361184
453,0.0
490,0.0
515,0.0
516,0.0
542,0.0
592,4760020.397988958
632,32852937.582343545
686,1.0
687,1.0
688,2.0
2,21, 1,21, 0, 2,10.00,20.00,Monday
250,-0.3379599745893862
251,37872114.73794712
336,0.0
385,22.140511709262405
386,26.243546254687796
387,-1.024210791859505
388,0.0
425,0.0
450,0.0
451,0.0
452,-2.1116292487769175
453,0.0
490,0.0
515,0.0
516,0.0
542,0.0
592,4760020.397988958
632,32853088.041215014
686,1.0
687,1.0
688,2.0
2,21, 1,21, 0, 2,20.00,30.00,Monday
250,-0.33817348706623884
251,37872210.67079086
336,0.0
385,22.140511709262405
386,26.243546254687796
387,-1.0394995482782223
388,0.0
425,0.0
450,0.0
451,0.0
452,-2.1430672042915018
453,0.0
490,0.0
515,0.0
516,0.0
542,0.0
592,4760020.397988958
632,32853183.882622812
686,1.0
687,1.0
688,2.0
2,21, 1,21, 0, 2,30.00,40.00,Monday
250,-0.3383823104709683
251,37872327.507150225
336,0.0
385,22.140511709262405
386,26.243546254687796
387,-1.0540801362491052
388,0.0
425,0.0
450,0.0
451,0.0
452,-2.162443982804007
453,0.0
490,0.0
515,0.0
516,0.0
542,0.0
592,4760020.397988958
632,32853303.243708078
686,1.0
687,1.0
688,2.0
2,21, 1,21, 0, 2,40.00,50.00,Monday
250,-0.33858806354690446
251,37872438.983582474
336,0.0
385,22.140511709262405
386,26.243546254687796
387,-1.0678116214093545
388,0.0
425,0.0
450,0.0
451,0.0
452,-2.1725890688986778
453,0.0
490,0.0
515,0.0
516,0.0
542,0.0
592,4760020.397988958
632,32853416.373296846
686,1.0
687,1.0
688,2.0
2,21, 1,21, 0, 2,50.00,60.00,Monday
250,-0.33879014820419734
251,37872547.67911289
336,0.0
385,22.140511709262405
386,26.243546254687796
387,-1.0806559805951965
388,0.0
425,0.0
450,0.0
451,0.0
452,-2.176646559916748
453,0.0
490,0.0
515,0.0
516,0.0
542,0.0
592,4760020.397988956
632,32853527.044015955
686,1.0
687,1.0
688,2.0
2,21, 1,21, 0, 3, 0.00,10.00,Monday
250,-0.2583610548449449
251,37829242.2045575
336,0.0
385,22.140511709262405
386,26.243546254687796
387,-1.082233553485377
388,0.0
425,0.0
450,0.0
451,0.0
452,-2.1692001410964568
453,0.0
490,0.0
515,0.0
516,0.0
542,0.0
592,4762558.894114006
632,32851097.356228422
686,1.0
687,1.0
688,2.0
2,21, 1,21, 0, 3,10.00,20.00,Monday
250,-0.175284080908675
251,37786020.72345758
336,0.0
385,22.140511709262405
386,26.243546254687796
387,-1.0712508711597526
388,0.0
425,0.0
450,0.0
451,0.0
452,-2.144272403129574
453,0.0
490,0.0
515,0.0
516,0.0
542,0.0
592,4764988.4357309695
632,32806873.82033819
686,1.0
687,1.0
688,2.0
2,21, 1,21, 0, 3,20.00,30.00,Monday
250,-0.0933754867674012
251,37743500.345904075
336,0.0
385,22.140511709262405
386,26.243546254687796
387,-1.052130339769565
388,0.0
425,0.0
450,0.0
451,0.0
452,-2.1004053781589196
453,0.0
490,0.0
515,0.0
516,0.0
542,0.0
592,4767308.250738333
632,32761406.36174502
686,1.0
687,1.0
688,2.0
2,21, 1,21, 0, 3,30.00,40.00,Monday
250,-0.011201130439930282
251,37700821.416919224
336,0.0
385,22.140511709262405
386,26.243546254687796
387,-1.0286726410691955
388,0.0
425,0.0
450,0.0
451,0.0
452,-2.0407207784601202
453,0.0
490,0.0
515,0.0
516,0.0
542,0.0
592,4769517.689516207
632,32716662.942770403
686,1.0
687,1.0
688,2.0
2,21, 1,21, 0, 3,40.00,50.00,Monday
250,0.07106035149041212
251,37658105.68417126
336,0.0
385,22.140511709262405
386,26.243546254687796
387,-1.0021939643010755
388,0.0
425,0.0
450,0.0
451,0.0
452,-1.9696989571559913
453,0.0
490,0.0
515,0.0
516,0.0
542,0.0
592,4771616.115684973
632,32671897.561525427
686,1.0
687,1.0
688,2.0
2,21, 1,21, 0, 3,50.00,60.00,Monday
250,0.1533798444137771
251,37615366.122736074
336,0.0
385,22.140511709262405
386,26.243546254687796
387,-0.972517468697782
388,0.0
425,0.0
450,0.0
451,0.0
452,-1.8909611615705655
453,0.0
490,0.0
515,0.0
516,0.0
542,0.0
592,4773602.736238396
632,32627204.494825713
686,1.0
687,1.0
688,2.0
2,21, 1,21, 0, 4, 0.00,10.00,Monday
250,0.15507051237777347
251,37616057.02306378
336,0.0
385,22.140511709262405
386,26.243546254687796
387,-0.9500909259003537
388,0.0
425,0.0
450,0.0
451,0.0
452,-1.8147908037468008
453,0.0
490,0.0
515,0.0
516,0.0
542,0.0
592,4773428.98237163
632,32584647.14725917
686,1.0
687,1.0
688,2.0
2,21, 1,21, 0, 4,10.00,20.00,Monday
250,0.15415594788054102
251,37616635.932909325
336,0.0
385,22.140511709262405
386,26.243546254687796
387,-0.9375118667043011
388,0.0
425,0.0
450,0.0
451,0.0
452,-1.7502198947159775
453,0.0
490,0.0
515,0.0
516,0.0
542,0.0
592,4773255.169447958
632,32583996.781035133
686,1.0
687,1.0
688,2.0
2,21, 1,21, 0, 4,20.00,30.00,Monday
250,0.15446856483007815
251,37616487.8198511
336,0.0
385,22.140511709262405
386,26.243546254687796
387,-0.9314435920231598
388,0.0
425,0.0
450,0.0
451,0.0
452,-1.7008599168850143
453,0.0
490,0.0
515,0.0
516,0.0
542,0.0
592,4773081.29743726
632,32584683.458968043
686,1.0
687,1.0
688,2.0
2,21, 1,21, 0, 4,30.00,40.00,Monday
250,0.1545636857932644
251,37616479.14887275
336,0.0
385,22.140511709262405
386,26.243546254687796
387,-0.9281671884278918
388,0.0
425,0.0
450,0.0
451,0.0
452,-1.6650659526045812
453,0.0
490,0.0
515,0.0
516,0.0
542,0.0
592,4772907.3663094025
632,32584731.583047345
686,1.0
687,1.0
688,2.0
2,21, 1,21, 0, 4,40.00,50.00,Monday
250,0.15462013854972412
251,37616487.798688866
336,0.0
385,22.140511709262405
386,26.243546254687796
387,-0.9259227398450138
388,0.0
425,0.0
450,0.0
451,0.0
452,-1.6391728209973289
453,0.0
490,0.0
515,0.0
516,0.0
542,0.0
592,4772733.376034233
632,32584893.397732362
686,1.0
687,1.0
688,2.0
2,21, 1,21, 0, 4,50.00,60.00,Monday
250,0.15468231368769222
251,37616492.61275261
336,0.0
385,22.140511709262405
386,26.243546254687796
387,-0.9244926102709428
388,0.0
425,0.0
450,0.0
451,0.0
452,-1.620116777740219
453,0.0
490,0.0
515,0.0
516,0.0
542,0.0
592,4772559.326581573
632,32585075.34317453
686,1.0
687,1.0
688,2.0
2,21, 1,21, 0, 5, 0.00,10.00,Monday
250,0.15474116033843577
251,37616499.33953293
336,0.0
385,22.140511709262405
386,26.243546254687796
387,-0.9238975232903831
388,0.0
425,0.0
450,0.0
451,0.0
452,-1.6052791726456237
453,0.0
490,0.0
515,0.0
516,0.0
542,0.0
592,4759720.858689582
632,32597918.745260607
686,1.0
687,1.0
688,2.0
2,21, 1,21, 0, 5,10.00,20.00,Monday
250,0.1548231917492024
251,37617734.35347775
336,0.0
385,22.140511709262405
386,26.243546254687796
387,-0.9239898885203874
388,0.0
425,0.0
450,0.0
451,0.0
452,-1.592349825961434
453,0.0
490,0.0
515,0.0
516,0.0
542,0.0
592,4746877.262331866
632,32612009.843661252
686,1.0
687,1.0
688,2.0
2,21, 1,21, 0, 5,20.00,30.00,Monday
250,0.15490693963040278
251,37619022.98968117
336,0.0
385,22.140511709262405
386,26.243546254687796
387,-0.9245410134279011
388,0.0
425,0.0
450,0.0
451,0.0
452,-1.5799265221825787
453,0.0
490,0.0
515,0.0
516,0.0
542,0.0
592,4734028.534436011
632,32626148.133829154
686,1.0
687,1.0
688,2.0
2,21, 1,21, 0, 5,30.00,40.00,Monday
250,0.15499013137810153
251,37620294.223897
336,0.0
385,22.140511709262405
386,26.243546254687796
387,-0.92534921797928
388,0.0
425,0.0
450,0.0
451,0.0
452,-1.5675734661504137
453,0.0
490,0.0
515,0.0
516,0.0
542,0.0
592,4721174.671927155
632,32640272.932584226
686,1.0
687,1.0
688,2.0
2,21, 1,21, 0, 5,40.00,50.00,Monday
250,0.1550737912347804
251,37621568.61109393
336,0.0
385,22.140511709262405
386,26.243546254687796
387,-0.926278268339464
388,0.0
425,0.0
450,0.0
451,0.0
452,-1.555357258929931
453,0.0
490,0.0
515,0.0
516,0.0
542,0.0
592,4708315.671727969
632,32654406.57369615
686,1.0
687,1.0
688,2.0
2,21, 1,21, 0, 5,50.00,60.00,Monday
250,0.1551580728277327
251,37622843.81361327
336,0.0
385,22.140511709262405
386,26.243546254687796
387,-0.9272480290535882
388,0.0
425,0.0
450,0.0
451,0.0
452,-1.54342798003164
453,0.0
490,0.0
515,0.0
516,0.0
542,0.0
592,4695451.530758674
632,32668546.253673032
686,1.0
687,1.0
688,2.0
2,21, 1,21, 0, 6, 0.00,10.00,Monday
250,0.15524652277918424
251,37624117.206476726
336,0.0
385,22.140511709262405
386,26.243546254687796
387,-0.9283442466381415
388,0.0
425,0.0
450,0.0
451,0.0
452,-1.5324776899874748
453,0.0
490,0.0
515,0.0
516,0.0
542,0.0
592,4695264.08225586
632,32670009.34205342
686,1.0
687,1.0
688,2.0
2,21, 1,21, 0, 6,10.00,20.00,Monday
250,0.15531149068930117
251,37624161.324267514
336,0.0
385,22.140511709262405
386,26.243546254687796
387,-0.9296518220213683
388,0.0
425,0.0
450,0.0
451,0.0
452,-1.5233185247268746
453,0.0
490,0.0
515,0.0
516,0.0
542,0.0
592,4695076.569900009
632,32670228.322918743
686,1.0
687,1.0
688,2.0
2,21, 1,21, 0, 6,20.00,30.00,Monday
250,0.1553751922388678
251,37624152.0249267
336,0.0
385,22.140511709262405
386,26.243546254687796
387,-0.9311677311734101
388,0.0
425,0.0
450,0.0
451,0.0
452,-1.516285280256325
453,0.0
490,0.0
515,0.0
516,0.0
542,0.0
592,4694888.993658494
632,32670405.917675085
686,1.0
687,1.0
688,2.0
2,21, 1,21, 0, 6,30.00,40.00,Monday
250,0.1554405095159479
251,37624160.11552591
336,0.0
385,22.140511709262405
386,26.243546254687796
387,-0.9328517867818037
388,0.0
425,0.0
450,0.0
451,0.0
452,-1.511171064377846
453,0.0
490,0.0
515,0.0
516,0.0
542,0.0
592,4694701.35349866
632,32670602.518840466
686,1.0
687,1.0
688,2.0
2,21, 1,21, 0, 6,40.00,50.00,Monday
250,0.15550674923073488
251,37624164.837006375
336,0.0
385,22.140511709262405
386,26.243546254687796
387,-0.9346727268440458
388,0.0
425,0.0
450,0.0
451,0.0
452,-1.5075239807369558
453,0.0
490,0.0
515,0.0
516,0.0
542,0.0
592,4694513.649387832
632,32670795.441372693
686,1.0
687,1.0
688,2.0
2,21, 1,21, 0, 6,50.00,60.00,Monday
250,0.15557401799961723
251,37624168.389692694
336,0.0
385,22.140511709262405
386,26.243546254687796
387,-0.9366135388034498
388,0.0
425,0.0
450,0.0
451,0.0
452,-1.5049227312035045
453,0.0
490,0.0
515,0.0
516,0.0
542,0.0
592,4694325.881293308
632,32670987.31652763
686,1.0
687,1.0
688,2.0
2,21, 1,21, 0, 7, 0.00,10.00,Monday
250,0.15386224046486333
251,37625130.39081312
336,0.0
385,22.140511709262405
386,26.243546254687796
387,-0.9411031679426817
388,0.0
425,0.0
450,0.0
451,0.0
452,-1.508231434493397
453,0.0
490,0.0
515,0.0
516,0.0
542,0.0
592,4723573.583255435
632,32641743.26854448
686,1.0
687,1.0
688,2.0
2,21, 1,21, 0, 7,10.00,20.00,Monday
250,0.1538889449731406
251,37622292.25791031
336,0.0
385,22.140511709262405
386,26.243546254687796
387,-0.9503221569912819
388,0.0
425,0.0
450,0.0
451,0.0
452,-1.5269148499797116
453,0.0
490,0.0
515,0.0
516,0.0
542,0.0
592,4752837.186047653
632,32610578.027554
686,1.0
687,1.0
688,2.0
2,21, 1,21, 0, 7,20.00,30.00,Monday
250,0.15401160693671365
251,37619276.222055994
336,0.0
385,22.140511709262405
386,26.243546254687796
387,-0.9645133483418862
388,0.0
425,0.0
450,0.0
451,0.0
452,-1.56635252929268
453,0.0
490,0.0
515,0.0
516,0.0
542,0.0
592,4782116.702651945
632,32578334.156964626
686,1.0
687,1.0
688,2.0
2,21, 1,21, 0, 7,30.00,40.00,Monday
250,0.15410677520799626
251,37616315.47424031
336,0.0
385,22.140511709262405
386,26.243546254687796
387,-0.9827216338458187
388,0.0
425,0.0
450,0.0
451,0.0
452,-1.624185768913368
453,0.0
490,0.0
515,0.0
516,0.0
542,0.0
592,4811412.146064443
632,32546063.153580166
686,1.0
687,1.0
688,2.0
2,21, 1,21, 0, 7,40.00,50.00,Monday
250,0.1542083890720418
251,37613343.032022156
336,0.0
385,22.140511709262405
386,26.243546254687796
387,-1.0038704686770659
388,0.0
425,0.0
450,0.0
451,0.0
452,-1.694159791526235
453,0.0
490,0.0
515,0.0
516,0.0
542,0.0
592,4840723.5292954575
632,32513782.79523491
686,1.0
687,1.0
688,2.0
2,21, 1,21, 0, 7,50.00,60.00,Monday
250,0.1543132444589845
251,37610365.823437236
336,0.0
385,22.140511709262405
386,26.243546254687796
387,-1.027208863953308
388,0.0
425,0.0
450,0.0
451,0.0
452,-1.7705705398855067
453,0.0
490,0.0
515,0.0
516,0.0
542,0.0
592,4870050.865369484
632,32481479.99181554
686,1.0
687,1.0
688,2.0
2,21, 1,21, 0, 8, 0.00,10.00,Monday
250,0.3551278702615197
251,37499317.8430472
336,0.0
385,22.140511709262405
386,26.243546254687796
387,-1.0233054382485571
388,0.0
425,0.0
450,0.0
451,0.0
452,-1.829555118744529
453,0.0
490,0.0
515,0.0
516,0.0
542,0.0
592,4889730.300311495
632,32458821.971104242
686,1.0
687,1.0
688,2.0
2,21, 1,21, 0, 8,10.00,20.00,Monday
250,0.5560761940100986
251,37393315.9225066
336,0.0
385,22.140511709262405
386,26.243546254687796
387,-0.9814770274438637
388,0.0
425,0.0
450,0.0
451,0.0
452,-1.820846762313715
453,0.0
490,0.0
515,0.0
516,0.0
542,0.0
592,4909380.719869504
632,32333247.973111525
686,1.0
687,1.0
688,2.0
2,21, 1,21, 0, 8,20.00,30.00,Monday
250,0.7534503673700275
251,37289459.96017457
336,0.0
385,22.140511709262405
386,26.243546254687796
387,-0.9102503882190291
388,0.0
425,0.0
450,0.0
451,0.0
452,-1.7136349617357816
453,0.0
490,0.0
515,0.0
516,0.0
542,0.0
592,4929009.6156952735
632,32207845.458323684
686,1.0
687,1.0
688,2.0
2,21, 1,21, 0, 8,30.00,40.00,Monday
250,0.9516746765009481
251,37185070.372947305
336,0.0
385,22.140511709262405
386,26.243546254687796
387,-0.8196531430398254
388,0.0
425,0.0
450,0.0
451,0.0
452,-1.5184771066768485
453,0.0
490,0.0
515,0.0
516,0.0
542,0.0
592,4952863.6467726575
632,32080066.400546387
686,1.0
687,1.0
688,2.0
2,21, 1,21, 0, 8,40.00,50.00,Monday
250,1.1501123764168224
251,37080175.039936714
336,0.0
385,22.140511709262405
386,26.243546254687796
387,-0.7177383275719478
388,0.0
425,0.0
450,0.0
451,0.0
452,-1.242408400953436
453,0.0
490,0.0
515,0.0
516,0.0
542,0.0
592,4977062.298687916
632,31951093.014307894
686,1.0
687,1.0
688,2.0
2,21, 1,21, 0, 8,50.00,60.00,Monday
250,1.349873731615576
251,36975474.45386951
336,0.0
385,22.140511709262405
386,26.243546254687796
387,-0.6216863053542233
388,0.0
425,0.0
450,0.0
451,0.0
452,-0.9289520812442229
453,0.0
490,0.0
515,0.0
516,0.0
542,0.0
592,5001395.306277512
632,31770348.899696525
686,1.0
687,1.0
688,2.0
2,21, 1,21, 0, 9, 0.00,10.00,Monday
250,1.6144059151005754
251,36836906.75644228
336,0.0
385,22.140511709262405
386,26.243546254687796
387,-0.48311605286735804
388,0.0
425,0.0
450,0.0
451,0.0
452,-0.4491736728523223
453,0.0
490,0.0
515,0.0
516,0.0
542,0.0
592,5029363.153609448
632,31620750.355564836
686,1.0
687,1.0
688,2.0
2,21, 1,21, 0, 9,10.00,20.00,Monday
250,1.8786614948852707
251,36697574.41024676
336,0.0
385,22.140511709262405
386,26.243546254687796
387,-0.33213842215669287
388,0.0
425,0.0
450,0.0
451,0.0
452,0.07509014457377325
453,0.0
490,0.0
515,0.0
516,0.0
542,0.0
592,5057356.862312016
632,31453320.951054297
686,1.0
687,1.0
688,2.0
2,21, 1,21, 0, 9,20.00,30.00,Monday
250,2.143135614672432
251,36558115.75824565
336,0.0
385,22.140511709262405
386,26.243546254687796
387,-0.17222867359836525
388,0.0
425,0.0
450,0.0
451,0.0
452,0.6397672377297476
453,0.0
490,0.0
515,0.0
516,0.0
542,0.0
592,5085392.284952975
632,31285886.330761798
686,1.0
687,1.0
688,2.0
2,21, 1,21, 0, 9,30.00,40.00,Monday
250,2.4074794079536685
251,36418726.16522458
336,0.0
385,22.140511709262405
386,26.243546254687796
387,-0.0025517551323891406
388,0.0
425,0.0
450,0.0
451,0.0
452,1.234399614346731
453,0.0
490,0.0
515,0.0
516,0.0
542,0.0
592,5113485.892141593
632,31118368.956933454
686,1.0
687,1.0
688,2.0
2,21, 1,21, 0, 9,40.00,50.00,Monday
250,2.6723965405967314
251,36278076.98843011
336,0.0
385,22.14051170926242
386,26.243546254687814
387,0.14251997040261757
388,0.0
425,0.0
450,0.0
451,0.0
452,1.7363625663416824
453,0.0
490,0.0
515,0.0
516,0.0
542,0.0
592,5141654.529350725
632,30925270.137828298
686,1.0000000000000009
687,1.0000000000000009
688,2.0000000000000018
2,21, 1,21, 0, 9,50.00,60.00,Monday
250,2.937337799712477
251,36137816.60080843
336,0.0
385,22.140511709262405
386,26.243546254687796
387,0.29463497249211645
388,0.0
425,0.0
450,0.0
451,0.0
452,2.2770935863898605
453,0.0
490,0.0
515,0.0
516,0.0
542,0.0
592,5169915.672059795
632,30782201.051944625
686,1.0
687,1.0
688,2.0
2,21, 1,21, 0,10, 0.00,10.00,Monday
250,3.3960171850507
251,35894476.07049392
336,0.0
385,22.140511709262405
386,26.243546254687796
387,0.4850539599790621
388,0.0
425,0.0
450,0.0
451,0.0
452,2.8366742445242124
453,0.0
490,0.0
515,0.0
516,0.0
542,0.0
592,5241404.10703412
632,30476935.30806198
686,1.0
687,1.0
688,2.0
2,21, 1,21, 0,10,10.00,20.00,Monday
250,3.8564343871551148
251,35650787.98551445
336,0.0
385,22.140511709262405
386,26.243546254687793
387,0.7761098138774557
388,0.0
425,0.0
450,0.0
451,0.0
452,3.5916101497257094
453,0.0
490,0.0
515,0.0
516,0.0
542,0.0
592,5315291.857316207
632,30158752.833607353
686,1.0
687,1.0
688,2.0
2,21, 1,21, 0,10,20.00,30.00,Monday
250,4.317602773018067
251,35405447.47950894
336,0.0
385,22.140511709262398
386,26.243546254687786
387,1.0565484242657561
388,0.0
425,0.0
450,0.0
451,0.0
452,4.280887811799019
453,0.0
490,0.0
515,0.0
516,0.0
542,0.0
592,5391793.298050373
632,29837089.311453164
686,0.9999999999999996
687,0.9999999999999996
688,1.9999999999999991
2,21, 1,21, 0,10,30.00,40.00,Monday
250,4.779157661737755
251,35159766.45842149
336,0.0
385,22.140511709262412
386,26.243546254687807
387,1.3383561977821947
388,0.0
425,0.0
450,0.0
451,0.0
452,4.982334947183069
453,0.0
490,0.0
515,0.0
516,0.0
542,0.0
592,5471132.199313744
632,29512182.808571506
686,1.0000000000000004
687,1.0000000000000004
688,2.000000000000001
2,21, 1,21, 0,10,40.00,50.00,Monday
250,5.241244363604745
251,34913659.050954714
336,0.0
385,22.14051170926242
386,26.243546254687814
387,1.6285282956966398
388,0.0
425,0.0
450,0.0
451,0.0
452,5.746336292028186
453,0.0
490,0.0
515,0.0
516,0.0
542,0.0
592,5553542.375759331
632,29183807.43548416
686,1.0000000000000009
687,1.0000000000000009
688,2.0000000000000018
2,21, 1,21, 0,10,50.00,60.00,Monday
250,5.703364947106994
251,34667386.96915921
336,0.0
385,22.14051170926242
386,26.243546254687814
387,1.9287824897749137
388,0.0
425,0.0
450,0.0
451,0.0
452,6.575507965804337
453,0.0
490,0.0
515,0.0
516,0.0
542,0.0
592,5639267.778995938
632,28851864.55391324
686,1.0000000000000009
687,1.0000000000000009
688,2.0000000000000018
2,21, 1,21, 0,11, 0.00,10.00,Monday
250,5.986990055597747
251,34516460.42914793
336,0.0
385,22.140511709262405
386,26.243546254687796
387,2.2153181058889553
388,0.0
425,0.0
450,0.0
451,0.0
452,7.430770644084514
453,0.0
490,0.0
515,0.0
516,0.0
542,0.0
592,5689519.861596227
632,28618718.077813786
686,1.0
687,1.0
688,2.0
2,21, 1,21, 0,11,10.00,20.00,Monday
250,6.269176770185953
251,34366237.55472711
336,0.0
385,22.140511709262405
386,26.243546254687793
387,2.485102673092065
388,0.0
425,0.0
450,0.0
451,0.0
452,8.281351160185622
453,0.0
490,0.0
515,0.0
516,0.0
542,0.0
592,5740969.350869594
632,28416785.209447447
686,1.0
687,1.0
688,2.0
2,21, 1,21, 0,11,20.00,30.00,Monday
250,6.551417752376238
251,34215938.37202888
336,0.0
385,22.140511709262398
386,26.243546254687786
387,2.7572686076554973
388,0.0
425,0.0
450,0.0
451,0.0
452,9.128021343552197
453,0.0
490,0.0
515,0.0
516,0.0
542,0.0
592,5793671.0952822175
632,28213810.024561737
686,0.9999999999999996
687,0.9999999999999996
688,1.9999999999999991
2,21, 1,21, 0,11,30.00,40.00,Monday
250,6.833059805295248
251,34065909.01481054
336,0.0
385,22.140511709262412
386,26.243546254687807
387,3.034604742888366
388,0.0
425,0.0
450,0.0
451,0.0
452,9.950146485668018
453,0.0
490,0.0
515,0.0
516,0.0
542,0.0
592,5847681.427966583
632,28009679.559016258
686,1.0000000000000004
687,1.0000000000000004
688,2.000000000000001
2,21, 1,21, 0,11,40.00,50.00,Monday
250,7.114445359574506
251,33915964.359679714
336,0.0
385,22.14051170926242
386,26.243546254687814
387,3.313709831978098
388,0.0
425,0.0
450,0.0
451,0.0
452,10.695617484145927
453,0.0
490,0.0
515,0.0
516,0.0
542,0.0
592,5903058.082199926
632,27804329.672497347
686,1.0000000000000009
687,1.0000000000000009
688,2.0000000000000018
2,21, 1,21, 0,11,50.00,60.00,Monday
250,7.395481275753223
251,33766153.19625573
336,0.0
385,22.14051170926242
386,26.243546254687814
387,3.590731581876979
388,0.0
425,0.0
450,0.0
451,0.0
452,11.331220019015172
453,0.0
490,0.0
515,0.0
516,0.0
542,0.0
592,5959860.237244541
632,27597671.451858047
686,1.0000000000000009
687,1.0000000000000009
688,2.0000000000000018
2,21, 1,21, 0,12, 0.00,10.00,Monday
250,7.662002626412086
251,33624070.109442435
336,0.0
385,22.140511709262405
386,26.243546254687796
387,3.8307098515024203
388,0.0
425,0.0
450,0.0
451,0.0
452,11.830418584968989
453,0.0
490,0.0
515,0.0
516,0.0
542,0.0
592,5991096.197635709
632,27447755.110179216
686,1.0
687,1.0
688,2.0
2,21, 1,21, 0,12,10.00,20.00,Monday
250,7.925298847955225
251,33487191.72988183
336,0.0
385,22.140511709262405
386,26.243546254687796
387,4.123090269138949
388,0.0
425,0.0
450,0.0
451,0.0
452,12.394416174064098
453,0.0
490,0.0
515,0.0
516,0.0
542,0.0
592,7572016.881221028
632,25727931.425131552
686,1.0
687,1.0
688,2.0
2,21, 1,21, 0,12,20.00,30.00,Monday
250,8.190285207774252
251,33347713.569714487
336,0.0
385,22.140511709262405
386,26.243546254687796
387,4.392205171882412
388,0.0
425,0.0
450,0.0
451,0.0
452,12.90997003184513
453,0.0
490,0.0
515,0.0
516,0.0
542,0.0
592,7609409.155487607
632,25551480.950126637
686,1.0
687,1.0
688,2.0
2,21, 1,21, 0,12,30.00,40.00,Monday
250,8.455001655387857
251,33208383.633003198
336,0.0
385,22.140511709262405
386,26.243546254687796
387,4.651011642308448
388,0.0
425,0.0
450,0.0
451,0.0
452,13.401368230975834
453,0.0
490,0.0
515,0.0
516,0.0
542,0.0
592,7646583.592010485
632,25374903.953534655
686,1.0
687,1.0
688,2.0
2,21, 1,21, 0,12,40.00,50.00,Monday
250,8.71963919146182
251,33069095.81883341
336,0.0
385,22.140511709262405
386,26.243546254687796
387,4.90543232264673
388,0.0
425,0.0
450,0.0
451,0.0
452,13.843121043021057
453,0.0
490,0.0
515,0.0
516,0.0
542,0.0
592,7683540.190789656
632,25198638.041257437
686,1.0
687,1.0
688,2.0
2,21, 1,21, 0,12,50.00,60.00,Monday
250,8.984249303084859
251,32929822.00186462
336,0.0
385,22.140511709262405
386,26.243546254687796
387,5.154374534234702
388,0.0
425,0.0
450,0.0
451,0.0
452,14.210970787975487
453,0.0
490,0.0
515,0.0
516,0.0
542,0.0
592,7720278.951825122
632,25022618.536953375
686,1.0
687,1.0
688,2.0
2,21, 1,21, 0,13, 0.00,10.00,Monday
250,9.166653552261703
251,32831584.581437632
336,0.0
385,22.140511709262405
386,26.243546254687796
387,5.386754234767356
388,0.0
425,0.0
450,0.0
451,0.0
452,14.502253173973546
453,0.0
490,0.0
515,0.0
516,0.0
542,0.0
592,7745410.487127082
632,24921082.501437094
686,1.0
687,1.0
688,2.0
2,21, 1,21, 0,13,10.00,20.00,Monday
250,9.34809796881643
251,32737594.161541153
336,0.0
385,22.140511709262405
386,26.243546254687796
387,5.605527231944388
388,0.0
425,0.0
450,0.0
451,0.0
452,14.73148533395463
453,0.0
490,0.0
515,0.0
516,0.0
542,0.0
592,7770439.060057999
632,24806200.480713606
686,1.0
687,1.0
688,2.0
2,21, 1,21, 0,13,20.00,30.00,Monday
250,9.5308258330329
251,32643116.477627207
336,0.0
385,22.140511709262405
386,26.243546254687796
387,5.810412704785385
388,0.0
425,0.0
450,0.0
451,0.0
452,14.914637551797886
453,0.0
490,0.0
515,0.0
516,0.0
542,0.0
592,7795364.67061786
632,24687502.48886027
686,1.0
687,1.0
688,2.0
2,21, 1,21, 0,13,30.00,40.00,Monday
250,9.713237259417971
251,32548836.721620258
336,0.0
385,22.140511709262405
386,26.243546254687796
387,6.005430320563569
388,0.0
425,0.0
450,0.0
451,0.0
452,15.063524618980608
453,0.0
490,0.0
515,0.0
516,0.0
542,0.0
592,7820187.318806681
632,24568241.9442492
686,1.0
687,1.0
688,2.0
2,21, 1,21, 0,13,40.00,50.00,Monday
250,9.895552197562598
251,32454642.59990109
336,0.0
385,22.140511709262405
386,26.243546254687796
387,6.194329185524993
388,0.0
425,0.0
450,0.0
451,0.0
452,15.182813972610854
453,0.0
490,0.0
515,0.0
516,0.0
542,0.0
592,7844907.004624449
632,24449288.897077847
686,1.0
687,1.0
688,2.0
2,21, 1,21, 0,13,50.00,60.00,Monday
250,10.07779974736895
251,32360517.932797737
336,0.0
385,22.140511709262405
386,26.243546254687796
387,6.378409747714892
388,0.0
425,0.0
450,0.0
451,0.0
452,15.276156428405486
453,0.0
490,0.0
515,0.0
516,0.0
542,0.0
592,7869523.728071173
632,24330524.147180438
686,1.0
687,1.0
688,2.0
2,21, 1,21, 0,14, 0.00,10.00,Monday
250,10.277561944442267
251,32256966.31948727
336,0.0
385,22.140511709262405
386,26.243546254687796
387,6.560508393029363
388,0.0
425,0.0
450,0.0
451,0.0
452,15.33216625734321
453,0.0
490,0.0
515,0.0
516,0.0
542,0.0
592,7896260.907308879
632,24209708.48143216
686,1.0
687,1.0
688,2.0
2,21, 1,21, 0,14,10.00,20.00,Monday
250,10.476390812478378
251,32153536.09339019
336,0.0
385,22.140511709262405
386,26.243546254687796
387,6.7407564503736115
388,0.0
425,0.0
450,0.0
451,0.0
452,15.332538718618682
453,0.0
490,0.0
515,0.0
516,0.0
542,0.0
592,7922875.552815753
632,24079172.733390726
686,1.0
687,1.0
688,2.0
2,21, 1,21, 0,14,20.00,30.00,Monday
250,10.674894266680537
251,32050281.14423131
336,0.0
385,22.140511709262405
386,26.243546254687796
387,6.916998766699863
388,0.0
425,0.0
450,0.0
451,0.0
452,15.276822560905096
453,0.0
490,0.0
515,0.0
516,0.0
542,0.0
592,7949367.664591796
632,23949263.183412276
686,1.0
687,1.0
688,2.0
2,21, 1,21, 0,14,30.00,40.00,Monday
250,10.873208444887926
251,31947156.37139005
336,0.0
385,22.140511709262405
386,26.243546254687796
387,7.083287122719174
388,0.0
425,0.0
450,0.0
451,0.0
452,15.154502098292253
453,0.0
490,0.0
515,0.0
516,0.0
542,0.0
592,7975737.242637003
632,23819680.04001304
686,1.0
687,1.0
688,2.0
2,21, 1,21, 0,14,40.00,50.00,Monday
250,11.071351232897083
251,31844145.608460516
336,0.0
385,22.140511709262405
386,26.243546254687796
387,7.235928487673662
388,0.0
425,0.0
450,0.0
451,0.0
452,14.945859739740998
453,0.0
490,0.0
515,0.0
516,0.0
542,0.0
592,8001984.286951372
632,23690343.242227755
686,1.0
687,1.0
688,2.0
2,21, 1,21, 0,14,50.00,60.00,Monday
250,11.26938793322617
251,31741214.279939566
336,0.0
385,22.140511709262405
386,26.243546254687796
387,7.375212198359679
388,0.0
425,0.0
450,0.0
451,0.0
452,14.653941697504994
453,0.0
490,0.0
515,0.0
516,0.0
542,0.0
592,8028108.797534912
632,23561243.848334447
686,1.0
687,1.0
688,2.0
2,21, 1,21, 0,15, 0.00,10.00,Monday
250,11.5334174613454
251,31603377.338174917
336,0.0