Program Version,EnergyPlus, Version 24.2.0-94a887817b, YMD=2025.02.04 15:37
1,5,Environment Title[],Latitude[deg],Longitude[deg],Time Zone[],Elevation[m]
2,8,Day of Simulation[],Month[],Day of Month[],DST Indicator[1=yes 0=no],Hour[],StartMinute[],EndMinute[],DayType
3,5,Cumulative Day of Simulation[],Month[],Day of Month[],DST Indicator[1=yes 0=no],DayType  ! When Daily Meters Requested
4,2,Cumulative Days of Simulation[],Month[]  ! When Monthly Meters Requested
5,1,Cumulative Days of Simulation[] ! When Run Period Meters Requested
6,1,Calendar Year of Simulation[] ! When Annual Meters Requested
11,9,Electricity:Facility [J] !Monthly [Value,Min,Day,Hour,Minute,Max,Day,Hour,Minute]
23,9,Electricity:Building [J] !Monthly [Value,Min,Day,Hour,Minute,Max,Day,Hour,Minute]
59,9,InteriorLights:Electricity [J] !Monthly [Value,Min,Day,Hour,Minute,Max,Day,Hour,Minute]
521,9,Electricity:HVAC [J] !Monthly [Value,Min,Day,Hour,Minute,Max,Day,Hour,Minute]
637,9,NaturalGas:Facility [J] !Monthly [Value,Min,Day,Hour,Minute,Max,Day,Hour,Minute]
649,9,NaturalGas:HVAC [J] !Monthly [Value,Min,Day,Hour,Minute,Max,Day,Hour,Minute]
13,11,Electricity:Facility [J] !RunPeriod [Value,Min,Month,Day,Hour,Minute,Max,Month,Day,Hour,Minute]
25,11,Electricity:Building [J] !RunPeriod [Value,Min,Month,Day,Hour,Minute,Max,Month,Day,Hour,Minute]
61,11,InteriorLights:Electricity [J] !RunPeriod [Value,Min,Month,Day,Hour,Minute,Max,Month,Day,Hour,Minute]
523,11,Electricity:HVAC [J] !RunPeriod [Value,Min,Month,Day,Hour,Minute,Max,Month,Day,Hour,Minute]
639,11,NaturalGas:Facility [J] !RunPeriod [Value,Min,Month,Day,Hour,Minute,Max,Month,Day,Hour,Minute]
651,11,NaturalGas:HVAC [J] !RunPeriod [Value,Min,Month,Day,Hour,Minute,Max,Month,Day,Hour,Minute]
End of Data Dictionary
1,RUN PERIOD 1,  41.98, -87.92,  -6.00, 201.00
4,31, 1
11,9840392084.398458,408891.4285714286, 5, 6,50,2992039.8942505973,16,13,60
23,1001341983.167438,30000.0, 1, 1,10,622566.6544691726, 1, 9,10
59,970200000.0,30000.0, 1, 1,10,600000.0, 1, 8,10
521,8839050101.230986,378891.4285714286, 5, 6,50,2369473.239781425,16,13,60
637,178599697151.7461,28050030.549168687,21,16,10,41250000.0, 1, 1,20
649,178599697151.7461,28050030.549168687,21,16,10,41250000.0, 1, 1,20
4,59, 2
11,9371616106.426876,99999999999999.0, 5, 6,50,3033501.3345137197,22,15,30
23,875239985.3629935,99999999999999.0, 1, 1,10,-99999999999999.0, 1, 9,10
59,848160000.0,99999999999999.0, 1, 1,10,-99999999999999.0, 1, 8,10
521,8496376121.063895,99999999999999.0, 5, 6,50,2410934.680044547,22,15,30
637,157884606758.92593,26368626.17705287,23,12,10,-99999999999999.0, 1, 1,20
649,157884606758.92593,26368626.17705287,23,12,10,-99999999999999.0, 1, 1,20
4,90, 3
11,10853171388.574528,30000.0,26,19,10,3035695.0409255726,26,14,50
23,925913984.6311414,99999999999999.0, 1, 1,10,-99999999999999.0, 1, 9,10
59,897480000.0,99999999999999.0, 1, 1,10,-99999999999999.0, 1, 8,10
521,9927257403.94337,0.0,19,17,10,2413128.3864564,26,14,50
637,160293022818.96927,0.0,19,17,10,-99999999999999.0, 1, 1,20
649,160293022818.96927,0.0,19,17,10,-99999999999999.0, 1, 1,20
4,120, 4
11,9313443491.633827,99999999999999.0,26,19,10,3040066.509749166,10,15,50
23,959307983.8992901,99999999999999.0, 1, 1,10,-99999999999999.0, 1, 9,10
59,929520000.0,99999999999999.0, 1, 1,10,-99999999999999.0, 1, 8,10
521,8354135507.734509,99999999999999.0,19,17,10,2417499.8552799937,10,15,50
637,115511092289.07375,99999999999999.0,19,17,10,-99999999999999.0, 1, 1,20
649,115511092289.07375,99999999999999.0,19,17,10,-99999999999999.0, 1, 1,20
4,151, 5
11,8165894014.720921,99999999999999.0,26,19,10,3045946.1860376615, 9,15,30
23,1001604746.6355745,99999999999999.0, 1, 1,10,638436.4576435689,28,13,10
59,970200000.0,99999999999999.0, 1, 1,10,-99999999999999.0, 1, 8,10
521,7164289268.085218,99999999999999.0,19,17,10,2423379.531568489, 9,15,30
637,80395826652.99611,99999999999999.0,19,17,10,-99999999999999.0, 1, 1,20
649,80395826652.99611,99999999999999.0,19,17,10,-99999999999999.0, 1, 1,20
4,181, 6
11,6285641608.332945,99999999999999.0,26,19,10,-99999999999999.0, 9,15,30
23,883892967.0730442,99999999999999.0, 1, 1,10,-99999999999999.0,28,13,10
59,856800000.0,99999999999999.0, 1, 1,10,-99999999999999.0, 1, 8,10
521,5401748641.259933,99999999999999.0,19,17,10,2430064.225788011,29, 4,40
637,25944327677.872353,99999999999999.0,19,17,10,-99999999999999.0, 1, 1,20
649,25944327677.872353,99999999999999.0,19,17,10,-99999999999999.0, 1, 1,20
4,212, 7
11,6363778492.909193,99999999999999.0,26,19,10,-99999999999999.0, 9,15,30
23,1001570592.7505581,99999999999999.0, 1, 1,10,-99999999999999.0,28,13,10
59,970200000.0,99999999999999.0, 1, 1,10,-99999999999999.0, 1, 8,10
521,5362207900.158589,99999999999999.0,19,17,10,-99999999999999.0,29, 4,40
637,4003368789.852375,99999999999999.0,19,17,10,-99999999999999.0, 1, 1,20
649,4003368789.852375,99999999999999.0,19,17,10,-99999999999999.0, 1, 1,20
4,243, 8
11,5053698920.458338,99999999999999.0,26,19,10,-99999999999999.0, 9,15,30
23,963855960.1773896,99999999999999.0, 1, 1,10,-99999999999999.0,28,13,10
59,933840000.0,99999999999999.0, 1, 1,10,-99999999999999.0, 1, 8,10
521,4089842960.2809606,99999999999999.0,19,17,10,-99999999999999.0,29, 4,40
637,9956481033.524153,99999999999999.0,19,17,10,-99999999999999.0, 1, 1,20
649,9956481033.524153,99999999999999.0,19,17,10,-99999999999999.0, 1, 1,20
4,273, 9
11,5510409276.40019,99999999999999.0,26,19,10,-99999999999999.0, 9,15,30
23,921593984.6311418,99999999999999.0, 1, 1,10,-99999999999999.0,28,13,10
59,893160000.0,99999999999999.0, 1, 1,10,-99999999999999.0, 1, 8,10
521,4588815291.769051,99999999999999.0,19,17,10,-99999999999999.0,29, 4,40
637,41874221344.4225,99999999999999.0,19,17,10,-99999999999999.0, 1, 1,20
649,41874221344.4225,99999999999999.0,19,17,10,-99999999999999.0, 1, 1,20
4,304,10
11,9966388051.181696,99999999999999.0,26,19,10,-99999999999999.0, 9,15,30
23,1001341983.167438,99999999999999.0, 1, 1,10,-99999999999999.0,28,13,10
59,970200000.0,99999999999999.0, 1, 1,10,-99999999999999.0, 1, 8,10
521,8965046068.014204,99999999999999.0,19,17,10,-99999999999999.0,29, 4,40
637,121323791840.09483,99999999999999.0,19,17,10,-99999999999999.0, 1, 1,20
649,121323791840.09483,99999999999999.0,19,17,10,-99999999999999.0, 1, 1,20
4,334,11
11,9814638019.500557,99999999999999.0,26,19,10,-99999999999999.0, 9,15,30
23,921593984.6311414,99999999999999.0, 1, 1,10,-99999999999999.0,28,13,10
59,893160000.0,99999999999999.0, 1, 1,10,-99999999999999.0, 1, 8,10
521,8893044034.869411,99999999999999.0,19,17,10,-99999999999999.0,29, 4,40
637,140339137762.33075,99999999999999.0,19,17,10,-99999999999999.0, 1, 1,20
649,140339137762.33075,99999999999999.0,19,17,10,-99999999999999.0, 1, 1,20
4,365,12
11,10452578604.283115,99999999999999.0,26,19,10,-99999999999999.0, 9,15,30
23,963627983.8992897,99999999999999.0, 1, 1,10,-99999999999999.0,28,13,10
59,933840000.0,99999999999999.0, 1, 1,10,-99999999999999.0, 1, 8,10
521,9488950620.383821,99999999999999.0,19,17,10,-99999999999999.0,29, 4,40
637,179405413959.23764,99999999999999.0,19,17,10,-99999999999999.0, 1, 1,20
649,179405413959.23764,99999999999999.0,19,17,10,-99999999999999.0, 1, 1,20
5,365
13,100991650058.82928,30000.0, 3,26,19,10,3045946.1860376615, 5, 9,15,30
25,11420886140.025661,30000.0, 1, 1, 1,10,638436.4576435689, 5,28,13,10
61,11066760000.0,30000.0, 1, 1, 1,10,600000.0, 1, 1, 8,10
523,89570763918.79842,0.0, 3,19,17,10,2430064.225788011, 6,29, 4,40
639,1215530988079.049,0.0, 3,19,17,10,41250000.0, 1, 1, 1,20
651,1215530988079.049,0.0, 3,19,17,10,41250000.0, 1, 1, 1,20
1,RUN PERIOD 2,  41.98, -87.92,  -6.00, 201.00
4,1, 7
11,175260011.71077618,99999999999999.0,26,19,10,-99999999999999.0, 9,15,30
23,42033999.268150344,99999999999999.0, 1, 1,10,-99999999999999.0,28,13,10
59,40680000.0,99999999999999.0, 1, 1,10,-99999999999999.0, 1, 8,10
521,133226012.44262582,99999999999999.0,19,17,10,-99999999999999.0,29, 4,40
637,0.0,99999999999999.0,19,17,10,-99999999999999.0, 1, 1,20
649,0.0,99999999999999.0,19,17,10,-99999999999999.0, 1, 1,20
5,1
13,175260011.71077618,99999999999999.0, 3,26,19,10,-99999999999999.0, 5, 9,15,30
25,42033999.268150344,99999999999999.0, 1, 1, 1,10,-99999999999999.0, 5,28,13,10
61,40680000.0,99999999999999.0, 1, 1, 1,10,-99999999999999.0, 1, 1, 8,10
523,133226012.44262582,99999999999999.0, 3,19,17,10,-99999999999999.0, 6,29, 4,40
639,0.0,99999999999999.0, 3,19,17,10,-99999999999999.0, 1, 1, 1,20
651,0.0,99999999999999.0, 3,19,17,10,-99999999999999.0, 1, 1, 1,20
End of Data
 Number of Records Written=          90
