Program Version,EnergyPlus, Version 24.1.0-9d7789a3ac, YMD=2024.10.18 13:35
1,5,Environment Title[],Latitude[deg],Longitude[deg],Time Zone[],Elevation[m]
2,8,Day of Simulation[],Month[],Day of Month[],DST Indicator[1=yes 0=no],Hour[],StartMinute[],EndMinute[],DayType
3,5,Cumulative Day of Simulation[],Month[],Day of Month[],DST Indicator[1=yes 0=no],DayType  ! When Daily Report Variables Requested
4,2,Cumulative Days of Simulation[],Month[]  ! When Monthly Report Variables Requested
5,1,Cumulative Days of Simulation[] ! When Run Period Report Variables Requested
6,1,Calendar Year of Simulation[] ! When Annual Report Variables Requested
250,1,LIVING ZONE,Zone Air Temperature [C] !TimeStep,REPORTSCH
251,1,LIVING ZONE,Zone Air System Sensible Heating Energy [J] !TimeStep,REPORTSCH
336,1,LIVING ZONE,Zone Air System Sensible Cooling Energy [J] !TimeStep,REPORTSCH
385,1,LIVING ZONE,Zone Thermostat Heating Setpoint Temperature [C] !TimeStep,REPORTSCH
386,1,LIVING ZONE,Zone Thermostat Cooling Setpoint Temperature [C] !TimeStep,REPORTSCH
387,1,GARAGE ZONE,Zone Air Temperature [C] !TimeStep,REPORTSCH
388,1,GARAGE ZONE,Zone Air System Sensible Heating Energy [J] !TimeStep,REPORTSCH
425,1,GARAGE ZONE,Zone Air System Sensible Cooling Energy [J] !TimeStep,REPORTSCH
450,1,GARAGE ZONE,Zone Thermostat Heating Setpoint Temperature [C] !TimeStep,REPORTSCH
451,1,GARAGE ZONE,Zone Thermostat Cooling Setpoint Temperature [C] !TimeStep,REPORTSCH
452,1,ATTIC ZONE,Zone Air Temperature [C] !TimeStep,REPORTSCH
453,1,ATTIC ZONE,Zone Air System Sensible Heating Energy [J] !TimeStep,REPORTSCH
490,1,ATTIC ZONE,Zone Air System Sensible Cooling Energy [J] !TimeStep,REPORTSCH
515,1,ATTIC ZONE,Zone Thermostat Heating Setpoint Temperature [C] !TimeStep,REPORTSCH
516,1,ATTIC ZONE,Zone Thermostat Cooling Setpoint Temperature [C] !TimeStep,REPORTSCH
542,1,ACDXCOIL 1,Cooling Coil Total Cooling Energy [J] !TimeStep,REPORTSCH
592,1,HEAT PUMP DX HEATING COIL 1,Heating Coil Heating Energy [J] !TimeStep,REPORTSCH
632,1,SUPP HEATING COIL 1,Heating Coil Heating Energy [J] !TimeStep,REPORTSCH
686,1,TWOSPEED HEAT PUMP 1,Unitary System DX Coil Cycling Ratio [] !TimeStep,REPORTSCH
687,1,TWOSPEED HEAT PUMP 1,Unitary System DX Coil Speed Ratio [] !TimeStep,REPORTSCH
688,1,TWOSPEED HEAT PUMP 1,Unitary System DX Coil Speed Level [] !TimeStep
End of Data Dictionary
1,CHICAGO_IL_USA ANNUAL HEATING 99% DESIGN CONDITIONS DB,  41.98, -87.92,  -6.00, 201.00
2,1, 1,21, 0, 1, 0.00,10.00,WinterDesignDay
250,18.06281049459735
251,12008967.774483418
336,0.0
385,18.01423811268239
386,27.647793820926182
387,-17.65041834459199
388,0.0
425,0.0
450,0.0
451,0.0
452,-18.34238868619395
453,0.0
490,0.0
515,0.0
516,0.0
542,0.0
592,0.0
632,11560827.183895279
686,1.0
687,1.0
688,2.0
2,1, 1,21, 0, 1,10.00,20.00,WinterDesignDay
250,18.245803020885653
251,5463661.8118611835
336,0.0
385,18.680904779349056
386,27.64779382092618
387,-17.65026427446186
388,0.0
425,0.0
450,0.0
451,0.0
452,-18.342300145317967
453,0.0
490,0.0
515,0.0
516,0.0
542,0.0
592,0.0
632,5914752.828337194
686,1.0
687,1.0
688,2.0
2,1, 1,21, 0, 1,20.00,30.00,WinterDesignDay
250,18.64176603161518
251,14360635.604438595
336,0.0
385,18.680904779349056
386,27.64779382092618
387,-17.650168830553667
388,0.0
425,0.0
450,0.0
451,0.0
452,-18.342003941958296
453,0.0
490,0.0
515,0.0
516,0.0
542,0.0
592,0.0
632,14215557.978164675
686,1.0
687,1.0
688,2.0
2,1, 1,21, 0, 1,30.00,40.00,WinterDesignDay
250,18.01254555681481
251,10617113.40412139
336,0.0
385,18.014238112682378
386,27.647793820926164
387,-17.650269735534934
388,0.0
425,0.0
450,0.0
451,0.0
452,-18.341967520190003
453,0.0
490,0.0
515,0.0
516,0.0
542,0.0
592,0.0
632,10360825.812794048
686,0.9999999999999992
687,0.9999999999999992
688,1.9999999999999984
2,1, 1,21, 0, 1,40.00,50.00,WinterDesignDay
250,17.98051632076091
251,10958911.77250886
336,0.0
385,18.014238112682406
386,27.6477938209262
387,-17.650386986789215
388,0.0
425,0.0
450,0.0
451,0.0
452,-18.342163069862817
453,0.0
490,0.0
515,0.0
516,0.0
542,0.0
592,0.0
632,10814421.177690791
686,1.0000000000000009
687,1.0000000000000009
688,2.0000000000000018
2,1, 1,21, 0, 1,50.00,60.00,WinterDesignDay
250,18.062810494579885
251,12008967.821875133
336,0.0
385,18.014238112682406
386,27.6477938209262
387,-17.65042420205609
388,0.0
425,0.0
450,0.0
451,0.0
452,-18.342389284237964
453,0.0
490,0.0
515,0.0
516,0.0
542,0.0
592,0.0
632,11560827.231266499
686,1.0000000000000009
687,1.0000000000000009
688,2.0000000000000018
2,1, 1,21, 0, 2, 0.00,10.00,WinterDesignDay
250,18.245803021308262
251,5463661.860235358
336,0.0
385,18.680904779349056
386,27.64779382092618
387,-17.65027004227807
388,0.0
425,0.0
450,0.0
451,0.0
452,-18.342300735056472
453,0.0
490,0.0
515,0.0
516,0.0
542,0.0
592,0.0
632,5914752.8769905
686,1.0
687,1.0
688,2.0
2,1, 1,21, 0, 2,10.00,20.00,WinterDesignDay
250,18.641766031676845
251,14360635.652475262
336,0.0
385,18.680904779349056
386,27.64779382092618
387,-17.650174529642406
388,0.0
425,0.0
450,0.0
451,0.0
452,-18.342004524093703
453,0.0
490,0.0
515,0.0
516,0.0
542,0.0
592,0.0
632,14215558.02609381
686,1.0
687,1.0
688,2.0
2,1, 1,21, 0, 2,20.00,30.00,WinterDesignDay
250,18.012545556816306
251,10617113.450092921
336,0.0
385,18.014238112682406
386,27.647793820926204
387,-17.65027537421788
388,0.0
425,0.0
450,0.0
451,0.0
452,-18.341968095024814
453,0.0
490,0.0
515,0.0
516,0.0
542,0.0
592,0.0
632,10360825.85876048
686,1.0000000000000007
687,1.0000000000000007
688,2.0000000000000013
2,1, 1,21, 0, 2,30.00,40.00,WinterDesignDay
250,17.980516320776495
251,10958911.817505665
336,0.0
385,18.014238112682406
386,27.6477938209262
387,-17.650392558780084
388,0.0
425,0.0
450,0.0
451,0.0
452,-18.342163637544438
453,0.0
490,0.0
515,0.0
516,0.0
542,0.0
592,0.0
632,10814421.22269117
686,1.0000000000000009
687,1.0000000000000009
688,2.0000000000000018
2,1, 1,21, 0, 2,40.00,50.00,WinterDesignDay
250,18.062810494563525
251,12008967.866215898
336,0.0
385,18.014238112682406
386,27.6477938209262
387,-17.650429682562752
388,0.0
425,0.0
450,0.0
451,0.0
452,-18.34238984375532
453,0.0
490,0.0
515,0.0
516,0.0
542,0.0
592,0.0
632,11560827.275588091
686,1.0000000000000009
687,1.0000000000000009
688,2.0000000000000018
2,1, 1,21, 0, 2,50.00,60.00,WinterDesignDay
250,18.24580302170367
251,5463661.905495342
336,0.0
385,18.680904779349056
386,27.64779382092618
387,-17.650275438905677
388,0.0
425,0.0
450,0.0
451,0.0
452,-18.342301286804492
453,0.0
490,0.0
515,0.0
516,0.0
542,0.0
592,0.0
632,5914752.922511642
686,1.0
687,1.0
688,2.0
2,1, 1,21, 0, 3, 0.00,10.00,WinterDesignDay
250,18.64176603173454
251,14360635.697419327
336,0.0
385,18.680904779349056
386,27.64779382092618
387,-17.65017986196475
388,0.0
425,0.0
450,0.0
451,0.0
452,-18.34200506872844
453,0.0
490,0.0
515,0.0
516,0.0
542,0.0
592,0.0
632,14215558.070937261
686,1.0
687,1.0
688,2.0
2,1, 1,21, 0, 3,10.00,20.00,WinterDesignDay
250,18.012545556817667
251,10617113.493104879
336,0.0
385,18.014238112682392
386,27.647793820926182
387,-17.650280650021564
388,0.0
425,0.0
450,0.0
451,0.0
452,-18.34196863282881
453,0.0
490,0.0
515,0.0
516,0.0
542,0.0
592,0.0
632,10360825.90176766
686,1.0
687,1.0
688,2.0
2,1, 1,21, 0, 3,20.00,30.00,WinterDesignDay
250,17.980516320791057
251,10958911.859605595
336,0.0
385,18.014238112682385
386,27.647793820926168
387,-17.650397772183286
388,0.0
425,0.0
450,0.0
451,0.0
452,-18.342164168656325
453,0.0
490,0.0
515,0.0
516,0.0
542,0.0
592,0.0
632,10814421.264794447
686,0.9999999999999996
687,0.9999999999999996
688,1.9999999999999991
2,1, 1,21, 0, 3,30.00,40.00,WinterDesignDay
250,18.06281049454822
251,12008967.90770194
336,0.0
385,18.0142381126824
386,27.64779382092619
387,-17.65043481036874
388,0.0
425,0.0
450,0.0
451,0.0
452,-18.342390367230113
453,0.0
490,0.0
515,0.0
516,0.0
542,0.0
592,0.0
632,11560827.317056192
686,1.0000000000000004
687,1.0000000000000004
688,2.000000000000001
2,1, 1,21, 0, 3,40.00,50.00,WinterDesignDay
250,18.245803022073616
251,5463661.947841523
336,0.0
385,18.680904779349056
386,27.64779382092618
387,-17.65028048823043
388,0.0
425,0.0
450,0.0
451,0.0
452,-18.342301803011388
453,0.0
490,0.0
515,0.0
516,0.0
542,0.0
592,0.0
632,5914752.9651021715
686,1.0
687,1.0
688,2.0
2,1, 1,21, 0, 3,50.00,60.00,WinterDesignDay
250,18.64176603178852
251,14360635.739469955
336,0.0
385,18.680904779349056
386,27.64779382092618
387,-17.65018485112256
388,0.0
425,0.0
450,0.0
451,0.0
452,-18.342005578280286
453,0.0
490,0.0
515,0.0
516,0.0
542,0.0
592,0.0
632,14215558.11289376
686,1.0
687,1.0
688,2.0
2,1, 1,21, 0, 4, 0.00,10.00,WinterDesignDay
250,18.01254555681895
251,10617113.533347718
336,0.0
385,18.01423811268239
386,27.647793820926182
387,-17.650285586297784
388,0.0
425,0.0
450,0.0
451,0.0
452,-18.3419691359896
453,0.0
490,0.0
515,0.0
516,0.0
542,0.0
592,0.0
632,10360825.942006033
686,1.0
687,1.0
688,2.0
2,1, 1,21, 0, 4,10.00,20.00,WinterDesignDay
250,17.980516320804707
251,10958911.898995271
336,0.0
385,18.01423811268239
386,27.64779382092618
387,-17.650402650075133
388,0.0
425,0.0
450,0.0
451,0.0
452,-18.342164665556318
453,0.0
490,0.0
515,0.0
516,0.0
542,0.0
592,0.0
632,10814421.304187253
686,1.0
687,1.0
688,2.0
2,1, 1,21, 0, 4,20.00,30.00,WinterDesignDay
250,18.062810494533885
251,12008967.946517328
336,0.0
385,18.014238112682385
386,27.647793820926168
387,-17.650439608172146
388,0.0
425,0.0
450,0.0
451,0.0
452,-18.34239085698603
453,0.0
490,0.0
515,0.0
516,0.0
542,0.0
592,0.0
632,11560827.355854802
686,0.9999999999999996
687,0.9999999999999996
688,1.9999999999999991
2,1, 1,21, 0, 4,30.00,40.00,WinterDesignDay
250,18.24580302241974
251,5463661.987461521
336,0.0
385,18.68090477934905
386,27.647793820926168
387,-17.650285212602896
388,0.0
425,0.0
450,0.0
451,0.0
452,-18.342302285968422
453,0.0
490,0.0
515,0.0
516,0.0
542,0.0
592,0.0
632,5914753.00495079
686,0.9999999999999997
687,0.9999999999999997
688,1.9999999999999993
2,1, 1,21, 0, 4,40.00,50.00,WinterDesignDay
250,18.641766031839026
251,14360635.778813535
336,0.0
385,18.680904779349056
386,27.64779382092618
387,-17.6501895191995
388,0.0
425,0.0
450,0.0
451,0.0
452,-18.34200605501098
453,0.0
490,0.0
515,0.0
516,0.0
542,0.0
592,0.0
632,14215558.152149266
686,1.0
687,1.0
688,2.0
2,1, 1,21, 0, 4,50.00,60.00,WinterDesignDay
250,18.012545556820132
251,10617113.570999956
336,0.0
385,18.014238112682364
386,27.647793820926143
387,-17.65029020489587
388,0.0
425,0.0
450,0.0
451,0.0
452,-18.341969606740562
453,0.0
490,0.0
515,0.0
516,0.0
542,0.0
592,0.0
632,10360825.979654092
686,0.9999999999999986
687,0.9999999999999986
688,1.9999999999999971
2,1, 1,21, 0, 5, 0.00,10.00,WinterDesignDay
250,17.980516320817472
251,10958911.93584922
336,0.0
385,18.014238112682392
386,27.647793820926182
387,-17.6504072140455
388,0.0
425,0.0
450,0.0
451,0.0
452,-18.34216513044995
453,0.0
490,0.0
515,0.0
516,0.0
542,0.0
592,0.0
632,10814421.34104413
686,1.0
687,1.0
688,2.0
2,1, 1,21, 0, 5,10.00,20.00,WinterDesignDay
250,18.062810494520495
251,12008967.982833907
336,0.0
385,18.01423811268239
386,27.64779382092618
387,-17.650444097207767
388,0.0
425,0.0
450,0.0
451,0.0
452,-18.3423913151967
453,0.0
490,0.0
515,0.0
516,0.0
542,0.0
592,0.0
632,11560827.392155673
686,1.0
687,1.0
688,2.0
2,1, 1,21, 0, 5,20.00,30.00,WinterDesignDay
250,18.245803022743598
251,5463662.024531031
336,0.0
385,18.680904779349056
386,27.64779382092618
387,-17.650289632933134
388,0.0
425,0.0
450,0.0
451,0.0
452,-18.34230273781886
453,0.0
490,0.0
515,0.0
516,0.0
542,0.0
592,0.0
632,5914753.042234198
686,1.0
687,1.0
688,2.0
2,1, 1,21, 0, 5,30.00,40.00,WinterDesignDay
250,18.641766031886284
251,14360635.815624323
336,0.0
385,18.680904779349056
386,27.64779382092618
387,-17.650193886856904
388,0.0
425,0.0
450,0.0
451,0.0
452,-18.342006501036103
453,0.0
490,0.0
515,0.0
516,0.0
542,0.0
592,0.0
632,14215558.18887765
686,1.0
687,1.0
688,2.0
2,1, 1,21, 0, 5,40.00,50.00,WinterDesignDay
250,18.01254555682126
251,10617113.60622825
336,0.0
385,18.014238112682364
386,27.647793820926143
387,-17.650294526258666
388,0.0
425,0.0
450,0.0
451,0.0
452,-18.341970047170864
453,0.0
490,0.0
515,0.0
516,0.0
542,0.0
592,0.0
632,10360826.014878472
686,0.9999999999999986
687,0.9999999999999986
688,1.9999999999999971
2,1, 1,21, 0, 5,50.00,60.00,WinterDesignDay
250,17.98051632082943
251,10958911.970330626
336,0.0
385,18.014238112682406
386,27.6477938209262
387,-17.65041148429624
388,0.0
425,0.0
450,0.0
451,0.0
452,-18.342165565400357
453,0.0
490,0.0
515,0.0
516,0.0
542,0.0
592,0.0
632,10814421.375528276
686,1.0000000000000009
687,1.0000000000000009
688,2.0000000000000018
2,1, 1,21, 0, 6, 0.00,10.00,WinterDesignDay
250,18.062810494507964
251,12008968.016812574
336,0.0
385,18.01423811268239
386,27.647793820926182
387,-17.65044829734617
388,0.0
425,0.0
450,0.0
451,0.0
452,-18.342391743895405
453,0.0
490,0.0
515,0.0
516,0.0
542,0.0
592,0.0
632,11560827.426119644
686,1.0
687,1.0
688,2.0
2,1, 1,21, 0, 6,10.00,20.00,WinterDesignDay
250,18.245803023046598
251,5463662.059214168
336,0.0
385,18.680904779349056
386,27.64779382092618
387,-17.650293768787808
388,0.0
425,0.0
450,0.0
451,0.0
452,-18.342303160567624
453,0.0
490,0.0
515,0.0
516,0.0
542,0.0
592,0.0
632,5914753.077117465
686,1.0
687,1.0
688,2.0
2,1, 1,21, 0, 6,20.00,30.00,WinterDesignDay
250,18.641766031930487
251,14360635.850065462
336,0.0
385,18.680904779349056
386,27.64779382092618
387,-17.65019797342842
388,0.0
425,0.0
450,0.0
451,0.0
452,-18.342006918334757
453,0.0
490,0.0
515,0.0
516,0.0
542,0.0
592,0.0
632,14215558.223241687
686,1.0
687,1.0
688,2.0
2,1, 1,21, 0, 6,30.00,40.00,WinterDesignDay
250,18.012545556822324
251,10617113.639188781
336,0.0
385,18.014238112682378
386,27.647793820926164
387,-17.650298569514444
388,0.0
425,0.0
450,0.0
451,0.0
452,-18.34197045923482
453,0.0
490,0.0
515,0.0
516,0.0
542,0.0
592,0.0
632,10360826.047835346
686,0.9999999999999992
687,0.9999999999999992
688,1.9999999999999984
2,1, 1,21, 0, 6,40.00,50.00,WinterDesignDay
250,17.980516320840604
251,10958912.002592284
336,0.0
385,18.014238112682406
386,27.6477938209262
387,-17.65041547972906
388,0.0
425,0.0
450,0.0
451,0.0
452,-18.342165972337472
453,0.0
490,0.0
515,0.0
516,0.0
542,0.0
592,0.0
632,10814421.407792501
686,1.0000000000000009
687,1.0000000000000009
688,2.0000000000000018
2,1, 1,21, 0, 6,50.00,60.00,WinterDesignDay
250,18.062810494496254
251,12008968.048603877
336,0.0
385,18.014238112682406
386,27.6477938209262
387,-17.650452227178643
388,0.0
425,0.0
450,0.0
451,0.0
452,-18.342392144984213
453,0.0
490,0.0
515,0.0
516,0.0
542,0.0
592,0.0
632,11560827.457897203
686,1.0000000000000009
687,1.0000000000000009
688,2.0000000000000018
2,1, 1,21, 0, 7, 0.00,10.00,WinterDesignDay
250,18.245803023330097
251,5463662.091664535
336,0.0
385,18.680904779349056
386,27.64779382092618
387,-17.65029763847301
388,0.0
425,0.0
450,0.0
451,0.0
452,-18.34230355609025
453,0.0
490,0.0
515,0.0
516,0.0
542,0.0
592,0.0
632,5914753.109755081
686,1.0
687,1.0
688,2.0
2,1, 1,21, 0, 7,10.00,20.00,WinterDesignDay
250,18.641766031971855
251,14360635.882289445
336,0.0
385,18.680904779349056
386,27.64779382092618
387,-17.65020179700204
388,0.0
425,0.0
450,0.0
451,0.0
452,-18.3420073087583
453,0.0
490,0.0
515,0.0
516,0.0
542,0.0
592,0.0
632,14215558.255393537
686,1.0
687,1.0
688,2.0
2,1, 1,21, 0, 7,20.00,30.00,WinterDesignDay
250,18.012545556823337
251,10617113.670027552
336,0.0
385,18.014238112682406
386,27.647793820926204
387,-17.650302352560082
388,0.0
425,0.0
450,0.0
451,0.0
452,-18.341970844760592
453,0.0
490,0.0
515,0.0
516,0.0
542,0.0
592,0.0
632,10360826.078670695
686,1.0000000000000007
687,1.0000000000000007
688,2.0000000000000013
2,1, 1,21, 0, 7,30.00,40.00,WinterDesignDay
250,17.980516320851063
251,10958912.032777231
336,0.0
385,18.014238112682406
386,27.6477938209262
387,-17.650419218029604
388,0.0
425,0.0
450,0.0
451,0.0
452,-18.342166353066716
453,0.0
490,0.0
515,0.0
516,0.0
542,0.0
592,0.0
632,10814421.437979845
686,1.0000000000000009
687,1.0000000000000009
688,2.0000000000000018
2,1, 1,21, 0, 7,40.00,50.00,WinterDesignDay
250,18.06281049448528
251,12008968.07834873
336,0.0
385,18.014238112682406
386,27.6477938209262
387,-17.650455904100692
388,0.0
425,0.0
450,0.0
451,0.0
452,-18.342392520242427
453,0.0
490,0.0
515,0.0
516,0.0
542,0.0
592,0.0
632,11560827.487629194
686,1.0000000000000009
687,1.0000000000000009
688,2.0000000000000018
2,1, 1,21, 0, 7,50.00,60.00,WinterDesignDay
250,18.245803023595347
251,5463662.122026069
336,0.0
385,18.680904779349056
386,27.64779382092618
387,-17.65030125911856
388,0.0
425,0.0
450,0.0
451,0.0
452,-18.342303926141284
453,0.0
490,0.0
515,0.0
516,0.0
542,0.0
592,0.0
632,5914753.140291811
686,1.0
687,1.0
688,2.0
2,1, 1,21, 0, 8, 0.00,10.00,WinterDesignDay
250,18.64176603201056
251,14360635.912439197
336,0.0
385,18.680904779349056
386,27.64779382092618
387,-17.650205374503024
388,0.0
425,0.0
450,0.0
451,0.0
452,-18.34200767403864
453,0.0
490,0.0
515,0.0
516,0.0
542,0.0
592,0.0
632,14215558.285475792
686,1.0
687,1.0
688,2.0
2,1, 1,21, 0, 8,10.00,20.00,WinterDesignDay
250,18.01254555682425
251,10617113.69888114
336,0.0
385,18.014238112682392
386,27.647793820926182
387,-17.650305892141024
388,0.0
425,0.0
450,0.0
451,0.0
452,-18.341971205458368
453,0.0
490,0.0
515,0.0
516,0.0
542,0.0
592,0.0
632,10360826.107521076
686,1.0
687,1.0
688,2.0
2,1, 1,21, 0, 8,20.00,30.00,WinterDesignDay
250,17.980516320860822
251,10958912.061019083
336,0.0
385,18.014238112682385
386,27.647793820926168
387,-17.650422715744753
388,0.0
425,0.0
450,0.0
451,0.0
452,-18.342166709276952
453,0.0
490,0.0
515,0.0
516,0.0
542,0.0
592,0.0
632,10814421.466223942
686,0.9999999999999996
687,0.9999999999999996
688,1.9999999999999991
2,1, 1,21, 0, 8,30.00,40.00,WinterDesignDay
250,18.062810494475006
251,12008968.106178846
336,0.0
385,18.0142381126824
386,27.64779382092619
387,-17.650459344386757
388,0.0
425,0.0
450,0.0
451,0.0
452,-18.34239287133454
453,0.0
490,0.0
515,0.0
516,0.0
542,0.0
592,0.0
632,11560827.51544728
686,1.0000000000000004
687,1.0000000000000004
688,2.000000000000001
2,1, 1,21, 0, 8,40.00,50.00,WinterDesignDay
250,18.245803023843525
251,5463662.150433154
336,0.0
385,18.680904779349056
386,27.64779382092618
387,-17.650304646749518
388,0.0
425,0.0
450,0.0
451,0.0
452,-18.34230427236197
453,0.0
490,0.0
515,0.0
516,0.0
542,0.0
592,0.0
632,5914753.168862812
686,1.0
687,1.0
688,2.0
2,1, 1,21, 0, 8,50.00,60.00,WinterDesignDay
250,18.641766032046768
251,14360635.940648045
336,0.0
385,18.680904779349056
386,27.64779382092618
387,-17.65020872176597
388,0.0
425,0.0
450,0.0
451,0.0
452,-18.34200801579587
453,0.0
490,0.0
515,0.0
516,0.0
542,0.0
592,0.0
632,14215558.313621491
686,1.0
687,1.0
688,2.0
2,1, 1,21, 0, 9, 0.00,10.00,WinterDesignDay
250,18.012545556825113
251,10617113.72587736
336,0.0
385,18.01423811268239
386,27.647793820926182
387,-17.650309203924422
388,0.0
425,0.0
450,0.0
451,0.0
452,-18.341971542927986
453,0.0
490,0.0
515,0.0
516,0.0
542,0.0
592,0.0
632,10360826.1345143
686,1.0
687,1.0
688,2.0
2,1, 1,21, 0, 9,10.00,20.00,WinterDesignDay
250,17.98051632086998
251,10958912.087442955
336,0.0
385,18.01423811268239
386,27.64779382092618
387,-17.65042598835686
388,0.0
425,0.0
450,0.0
451,0.0
452,-18.34216704254816
453,0.0
490,0.0
515,0.0
516,0.0
542,0.0
592,0.0
632,10814421.492649913
686,1.0
687,1.0
688,2.0
2,1, 1,21, 0, 9,20.00,30.00,WinterDesignDay
250,18.062810494465385
251,12008968.132217474
336,0.0
385,18.014238112682385
386,27.647793820926168
387,-17.650462563266267
388,0.0
425,0.0
450,0.0
451,0.0
452,-18.342393199817657
453,0.0
490,0.0
515,0.0
516,0.0
542,0.0
592,0.0
632,11560827.541474648
686,0.9999999999999996
687,0.9999999999999996
688,1.9999999999999991
2,1, 1,21, 0, 9,30.00,40.00,WinterDesignDay
250,18.245803024075713
251,5463662.177011663
336,0.0
385,18.68090477934905
386,27.647793820926168
387,-17.650307816362975
388,0.0
425,0.0
450,0.0
451,0.0
452,-18.34230459628776
453,0.0
490,0.0
515,0.0
516,0.0
542,0.0
592,0.0
632,5914753.195594689
686,0.9999999999999997
687,0.9999999999999997
688,1.9999999999999993
2,1, 1,21, 0, 9,40.00,50.00,WinterDesignDay
250,18.641766032080653
251,14360635.96704114
336,0.0
385,18.680904779349056
386,27.64779382092618
387,-17.650211853609694
388,0.0
425,0.0
450,0.0
451,0.0
452,-18.34200833554565
453,0.0
490,0.0
515,0.0
516,0.0
542,0.0
592,0.0
632,14215558.339955505
686,1.0
687,1.0
688,2.0
2,1, 1,21, 0, 9,50.00,60.00,WinterDesignDay
250,18.012545556825895
251,10617113.751135822
336,0.0
385,18.014238112682364
386,27.647793820926143
387,-17.650312302572015
388,0.0
425,0.0
450,0.0
451,0.0
452,-18.341971858666106
453,0.0
490,0.0
515,0.0
516,0.0
542,0.0
592,0.0
632,10360826.15976996
686,0.9999999999999986
687,0.9999999999999986
688,1.9999999999999971
2,1, 1,21, 0,10, 0.00,10.00,WinterDesignDay
250,17.980516320878547
251,10958912.112165878
336,0.0
385,18.014238112682392
386,27.647793820926182
387,-17.650429050353786
388,0.0
425,0.0
450,0.0
451,0.0
452,-18.34216735435834
453,0.0
490,0.0
515,0.0
516,0.0
542,0.0
592,0.0
632,10814421.517374802
686,1.0
687,1.0
688,2.0
2,1, 1,21, 0,10,10.00,20.00,WinterDesignDay
250,18.062810494456407
251,12008968.156579988
336,0.0
385,18.01423811268239
386,27.64779382092618
387,-17.650465574988203
388,0.0
425,0.0
450,0.0
451,0.0
452,-18.342393507148557
453,0.0
490,0.0
515,0.0
516,0.0
542,0.0
592,0.0
632,11560827.565826626
686,1.0
687,1.0
688,2.0
2,1, 1,21, 0,10,20.00,30.00,WinterDesignDay
250,18.24580302429298
251,5463662.201879321
336,0.0
385,18.680904779349056
386,27.64779382092618
387,-17.650310781988953
388,0.0
425,0.0
450,0.0
451,0.0
452,-18.342304899355135
453,0.0
490,0.0
515,0.0
516,0.0
542,0.0
592,0.0
632,5914753.220605843
686,1.0
687,1.0
688,2.0
2,1, 1,21, 0,10,30.00,40.00,WinterDesignDay
250,18.64176603211235
251,14360635.99173527
336,0.0
385,18.680904779349056
386,27.64779382092618
387,-17.650214783896022
388,0.0
425,0.0
450,0.0
451,0.0
452,-18.342008634705905
453,0.0
490,0.0
515,0.0
516,0.0
542,0.0
592,0.0
632,14215558.364594352
686,1.0
687,1.0
688,2.0
2,1, 1,21, 0,10,40.00,50.00,WinterDesignDay
250,18.012545556826648
251,10617113.774768429
336,0.0
385,18.014238112682364
386,27.647793820926143
387,-17.650315201797923
388,0.0
425,0.0
450,0.0
451,0.0
452,-18.34197215407292
453,0.0
490,0.0
515,0.0
516,0.0
542,0.0
592,0.0
632,10360826.183399942
686,0.9999999999999986
687,0.9999999999999986
688,1.9999999999999971
2,1, 1,21, 0,10,50.00,60.00,WinterDesignDay
250,17.980516320886572
251,10958912.135297472
336,0.0
385,18.014238112682406
386,27.6477938209262
387,-17.650431915287893
388,0.0
425,0.0
450,0.0
451,0.0
452,-18.342167646090186
453,0.0
490,0.0
515,0.0
516,0.0
542,0.0
592,0.0
632,10814421.54050823
686,1.0000000000000009
687,1.0000000000000009
688,2.0000000000000018
2,1, 1,21, 0,11, 0.00,10.00,WinterDesignDay
250,18.062810494448
251,12008968.1793743
336,0.0
385,18.01423811268239
386,27.647793820926182
387,-17.65046839288299
388,0.0
425,0.0
450,0.0
451,0.0
452,-18.34239379468991
453,0.0
490,0.0
515,0.0
516,0.0
542,0.0
592,0.0
632,11560827.58861108
686,1.0
687,1.0
688,2.0
2,1, 1,21, 0,11,10.00,20.00,WinterDesignDay
250,18.24580302449625
251,5463662.225146269
336,0.0
385,18.680904779349056
386,27.64779382092618
387,-17.650313556754416
388,0.0
425,0.0
450,0.0
451,0.0
452,-18.34230518290779
453,0.0
490,0.0
515,0.0
516,0.0
542,0.0
592,0.0
632,5914753.244007049
686,1.0
687,1.0
688,2.0
2,1, 1,21, 0,11,20.00,30.00,WinterDesignDay
250,18.64176603214201
251,14360636.01483983
336,0.0
385,18.680904779349056
386,27.64779382092618
387,-17.650217525596148
388,0.0
425,0.0
450,0.0
451,0.0
452,-18.342008914603035
453,0.0
490,0.0
515,0.0
516,0.0
542,0.0
592,0.0
632,14215558.387647185
686,1.0
687,1.0
688,2.0
2,1, 1,21, 0,11,30.00,40.00,WinterDesignDay
250,18.01254555682737
251,10617113.79687975
336,0.0
385,18.014238112682378
386,27.647793820926164
387,-17.650317914437085
388,0.0
425,0.0
450,0.0
451,0.0
452,-18.3419724304582
453,0.0
490,0.0
515,0.0
516,0.0
542,0.0
592,0.0
632,10360826.205508808
686,0.9999999999999992
687,0.9999999999999992
688,1.9999999999999984
2,1, 1,21, 0,11,40.00,50.00,WinterDesignDay
250,17.98051632089407
251,10958912.156940024
336,0.0
385,18.014238112682406
386,27.6477938209262
387,-17.650434595841965
388,0.0
425,0.0
450,0.0
451,0.0
452,-18.342167919037184
453,0.0
490,0.0
515,0.0
516,0.0
542,0.0
592,0.0
632,10814421.562152507
686,1.0000000000000009
687,1.0000000000000009
688,2.0000000000000018
2,1, 1,21, 0,11,50.00,60.00,WinterDesignDay
250,18.062810494440146
251,12008968.200701345
336,0.0
385,18.014238112682406
386,27.6477938209262
387,-17.650471029424896
388,0.0
425,0.0
450,0.0
451,0.0
452,-18.342394063716593
453,0.0
490,0.0
515,0.0
516,0.0
542,0.0
592,0.0
632,11560827.609928904
686,1.0000000000000009
687,1.0000000000000009
688,2.0000000000000018
2,1, 1,21, 0,12, 0.00,10.00,WinterDesignDay
250,18.24580302468643
251,5463662.246915442
336,0.0
385,18.680904779349056
386,27.64779382092618
387,-17.65031615294283
388,0.0
425,0.0
450,0.0
451,0.0
452,-18.34230544820285
453,0.0
490,0.0
515,0.0
516,0.0
542,0.0
592,0.0
632,5914753.265901836
686,1.0
687,1.0
688,2.0
2,1, 1,21, 0,12,10.00,20.00,WinterDesignDay
250,18.64176603216976
251,14360636.03645721
336,0.0
385,18.680904779349056
386,27.64779382092618
387,-17.650220090847473
388,0.0
425,0.0
450,0.0
451,0.0
452,-18.342009176477966
453,0.0
490,0.0
515,0.0
516,0.0
542,0.0
592,0.0
632,14215558.409216177
686,1.0
687,1.0
688,2.0
2,1, 1,21, 0,12,20.00,30.00,WinterDesignDay
250,18.012545556828062
251,10617113.817567801
336,0.0
385,18.014238112682406
386,27.647793820926204
387,-17.650320452497425
388,0.0
425,0.0
450,0.0
451,0.0
452,-18.341972689047328
453,0.0
490,0.0
515,0.0
516,0.0
542,0.0
592,0.0
632,10360826.226194559
686,1.0000000000000007
687,1.0000000000000007
688,2.0000000000000013
2,1, 1,21, 0,12,30.00,40.00,WinterDesignDay
250,17.98051632090108
251,10958912.177189466
336,0.0
385,18.014238112682406
386,27.6477938209262
387,-17.650437103882126
388,0.0
425,0.0
450,0.0
451,0.0
452,-18.34216817440947
453,0.0
490,0.0
515,0.0
516,0.0
542,0.0
592,0.0
632,10814421.582403556
686,1.0000000000000009
687,1.0000000000000009
688,2.0000000000000018
2,1, 1,21, 0,12,40.00,50.00,WinterDesignDay
250,18.06281049443279
251,12008968.220655577
336,0.0
385,18.014238112682406
386,27.6477938209262
387,-17.650473496285407
388,0.0
425,0.0
450,0.0
451,0.0
452,-18.34239431542127
453,0.0
490,0.0
515,0.0
516,0.0
542,0.0
592,0.0
632,11560827.629874507
686,1.0000000000000009
687,1.0000000000000009
688,2.0000000000000018
2,1, 1,21, 0,12,50.00,60.00,WinterDesignDay
250,18.245803024864372
251,5463662.267283444
336,0.0
385,18.680904779349056
386,27.64779382092618
387,-17.65031858204644
388,0.0
425,0.0
450,0.0
451,0.0
452,-18.342305696416418
453,0.0
490,0.0
515,0.0
516,0.0
542,0.0
592,0.0
632,5914753.286387369
686,1.0
687,1.0
688,2.0
2,1, 1,21, 0,13, 0.00,10.00,WinterDesignDay
250,18.641766032195726
251,14360636.056683162
336,0.0
385,18.680904779349056
386,27.64779382092618
387,-17.650222491004584
388,0.0
425,0.0
450,0.0
451,0.0
452,-18.342009421491607
453,0.0
490,0.0
515,0.0
516,0.0
542,0.0
592,0.0
632,14215558.429396853
686,1.0
687,1.0
688,2.0
2,1, 1,21, 0,13,10.00,20.00,WinterDesignDay
250,18.012545556828666
251,10617113.836924236
336,0.0
385,18.014238112682392
386,27.647793820926182
387,-17.65032282721326
388,0.0
425,0.0
450,0.0
451,0.0
452,-18.34197293098661
453,0.0
490,0.0
515,0.0
516,0.0
542,0.0
592,0.0
632,10360826.24554885
686,1.0
687,1.0
688,2.0
2,1, 1,21, 0,13,20.00,30.00,WinterDesignDay
250,17.980516320907626
251,10958912.196135474
336,0.0
385,18.014238112682385
386,27.647793820926168
387,-17.650439450509634
388,0.0
425,0.0
450,0.0
451,0.0
452,-18.34216841333909
453,0.0
490,0.0
515,0.0
516,0.0
542,0.0
592,0.0
632,10814421.60135107
686,0.9999999999999996
687,0.9999999999999996
688,1.9999999999999991
2,1, 1,21, 0,13,30.00,40.00,WinterDesignDay
250,18.062810494425896
251,12008968.239325333
336,0.0
385,18.0142381126824
386,27.64779382092619
387,-17.650475804383298
388,0.0
425,0.0
450,0.0
451,0.0
452,-18.342394550919682
453,0.0
490,0.0
515,0.0
516,0.0
542,0.0
592,0.0
632,11560827.64853619
686,1.0000000000000004
687,1.0000000000000004
688,2.000000000000001
2,1, 1,21, 0,13,40.00,50.00,WinterDesignDay
250,18.245803025030867
251,5463662.2863402795
336,0.0
385,18.680904779349056
386,27.64779382092618
387,-17.650320854817352
388,0.0
425,0.0
450,0.0
451,0.0
452,-18.342305928648695
453,0.0
490,0.0
515,0.0
516,0.0
542,0.0
592,0.0
632,5914753.30555417
686,1.0
687,1.0
688,2.0
2,1, 1,21, 0,13,50.00,60.00,WinterDesignDay
250,18.64176603222002
251,14360636.075607046
336,0.0
385,18.680904779349056
386,27.64779382092618
387,-17.650224736691925
388,0.0
425,0.0
450,0.0
451,0.0
452,-18.34200965073
453,0.0
490,0.0
515,0.0
516,0.0
542,0.0
592,0.0
632,14215558.448278373
686,1.0
687,1.0
688,2.0
2,1, 1,21, 0,14, 0.00,10.00,WinterDesignDay
250,18.01254555682924
251,10617113.855034718
336,0.0
385,18.01423811268239
386,27.647793820926182
387,-17.650325049096946
388,0.0
425,0.0
450,0.0
451,0.0
452,-18.34197315734852
453,0.0
490,0.0
515,0.0
516,0.0
542,0.0
592,0.0
632,10360826.263657318
686,1.0
687,1.0
688,2.0
2,1, 1,21, 0,14,10.00,20.00,WinterDesignDay
250,17.98051632091377
251,10958912.213862082
336,0.0
385,18.01423811268239
386,27.64779382092618
387,-17.650441646113222
388,0.0
425,0.0
450,0.0
451,0.0
452,-18.342168636885177
453,0.0
490,0.0
515,0.0
516,0.0
542,0.0
592,0.0
632,10814421.619079089
686,1.0
687,1.0
688,2.0
2,1, 1,21, 0,14,20.00,30.00,WinterDesignDay
250,18.06281049441944
251,12008968.25679348
336,0.0
385,18.014238112682385
386,27.647793820926168
387,-17.650477963937533
388,0.0
425,0.0
450,0.0
451,0.0
452,-18.34239477125568
453,0.0
490,0.0
515,0.0
516,0.0
542,0.0
592,0.0
632,11560827.665996784
686,0.9999999999999996
687,0.9999999999999996
688,1.9999999999999991
2,1, 1,21, 0,14,30.00,40.00,WinterDesignDay
250,18.245803025186632
251,5463662.304170602
336,0.0
385,18.68090477934905
386,27.647793820926168
387,-17.6503229813184
388,0.0
425,0.0
450,0.0
451,0.0
452,-18.342306145929033
453,0.0
490,0.0
515,0.0
516,0.0
542,0.0
592,0.0
632,5914753.323487379
686,0.9999999999999997
687,0.9999999999999997
688,1.9999999999999993