Program Version,EnergyPlus, Version 24.1.0-9d7789a3ac, YMD=2024.06.19 21:17
1,5,Environment Title[],Latitude[deg],Longitude[deg],Time Zone[],Elevation[m]
2,8,Day of Simulation[],Month[],Day of Month[],DST Indicator[1=yes 0=no],Hour[],StartMinute[],EndMinute[],DayType
3,5,Cumulative Day of Simulation[],Month[],Day of Month[],DST Indicator[1=yes 0=no],DayType  ! When Daily Report Variables Requested
4,2,Cumulative Days of Simulation[],Month[]  ! When Monthly Report Variables Requested
5,1,Cumulative Days of Simulation[] ! When Run Period Report Variables Requested
6,1,Calendar Year of Simulation[] ! When Annual Report Variables Requested
250,1,LIVING ZONE,Zone Air Temperature [C] !TimeStep,REPORTSCH
251,1,LIVING ZONE,Zone Air System Sensible Heating Energy [J] !TimeStep,REPORTSCH
336,1,LIVING ZONE,Zone Air System Sensible Cooling Energy [J] !TimeStep,REPORTSCH
385,1,LIVING ZONE,Zone Thermostat Heating Setpoint Temperature [C] !TimeStep,REPORTSCH
386,1,LIVING ZONE,Zone Thermostat Cooling Setpoint Temperature [C] !TimeStep,REPORTSCH
387,1,GARAGE ZONE,Zone Air Temperature [C] !TimeStep,REPORTSCH
388,1,GARAGE ZONE,Zone Air System Sensible Heating Energy [J] !TimeStep,REPORTSCH
425,1,GARAGE ZONE,Zone Air System Sensible Cooling Energy [J] !TimeStep,REPORTSCH
450,1,GARAGE ZONE,Zone Thermostat Heating Setpoint Temperature [C] !TimeStep,REPORTSCH
451,1,GARAGE ZONE,Zone Thermostat Cooling Setpoint Temperature [C] !TimeStep,REPORTSCH
452,1,ATTIC ZONE,Zone Air Temperature [C] !TimeStep,REPORTSCH
453,1,ATTIC ZONE,Zone Air System Sensible Heating Energy [J] !TimeStep,REPORTSCH
490,1,ATTIC ZONE,Zone Air System Sensible Cooling Energy [J] !TimeStep,REPORTSCH
515,1,ATTIC ZONE,Zone Thermostat Heating Setpoint Temperature [C] !TimeStep,REPORTSCH
516,1,ATTIC ZONE,Zone Thermostat Cooling Setpoint Temperature [C] !TimeStep,REPORTSCH
542,1,ACDXCOIL 1,Cooling Coil Total Cooling Energy [J] !TimeStep,REPORTSCH
592,1,HEAT PUMP DX HEATING COIL 1,Heating Coil Heating Energy [J] !TimeStep,REPORTSCH
632,1,SUPP HEATING COIL 1,Heating Coil Heating Energy [J] !TimeStep,REPORTSCH
686,1,TWOSPEED HEAT PUMP 1,Unitary System DX Coil Cycling Ratio [] !TimeStep,REPORTSCH
687,1,TWOSPEED HEAT PUMP 1,Unitary System DX Coil Speed Ratio [] !TimeStep,REPORTSCH
688,1,TWOSPEED HEAT PUMP 1,Unitary System DX Coil Speed Level [] !TimeStep
End of Data Dictionary
1,CHICAGO_IL_USA ANNUAL HEATING 99% DESIGN CONDITIONS DB,  41.98, -87.92,  -6.00, 201.00
2,1, 1,21, 0, 1, 0.00,10.00,WinterDesignDay
250,17.084203431603814
251,8427475.156490158
336,0.0
385,17.016725084694777
386,28.083728247501906
387,-17.666004085468927
388,0.0
425,0.0
450,0.0
451,0.0
452,-18.361557055300903
453,0.0
490,0.0
515,0.0
516,0.0
542,0.0
592,0.0
632,8507542.084831307
686,0.5892968276077771
687,0.5
688,1.1666666666666665
2,1, 1,21, 0, 1,10.00,20.00,WinterDesignDay
250,17.38549237119355
251,6597983.256617701
336,0.0
385,17.350058418028112
386,28.083728247501902
387,-17.665868827561162
388,0.0
425,0.0
450,0.0
451,0.0
452,-18.361448092616076
453,0.0
490,0.0
515,0.0
516,0.0
542,0.0
592,0.0
632,6191268.264145098
686,1.0
687,1.0
688,2.0
2,1, 1,21, 0, 1,20.00,30.00,WinterDesignDay
250,17.581067076523905
251,5054544.470542191
336,0.0
385,18.01672508469478
386,28.083728247501906
387,-17.66562839394079
388,0.0
425,0.0
450,0.0
451,0.0
452,-18.361061155706395
453,0.0
490,0.0
515,0.0
516,0.0
542,0.0
592,0.0
632,5505519.976398808
686,1.0
687,1.0
688,2.0
2,1, 1,21, 0, 1,30.00,40.00,WinterDesignDay
250,17.97430378678495
251,5947965.731950935
336,0.0
385,18.01672508469478
386,28.083728247501906
387,-17.665556068925852
388,0.0
425,0.0
450,0.0
451,0.0
452,-18.360694890200932
453,0.0
490,0.0
515,0.0
516,0.0
542,0.0
592,0.0
632,5802609.694860684
686,1.0
687,1.0
688,2.0
2,1, 1,21, 0, 1,40.00,50.00,WinterDesignDay
250,17.074024235815003
251,8500306.768699089
336,0.0
385,17.016725084694755
386,28.083728247501867
387,-17.66572803866638
388,0.0
425,0.0
450,0.0
451,0.0
452,-18.360746124232442
453,0.0
490,0.0
515,0.0
516,0.0
542,0.0
592,0.0
632,8526357.803229006
686,0.6456528595418106
687,0.49999999999999933
688,1.166666666666665
2,1, 1,21, 0, 1,50.00,60.00,WinterDesignDay
250,17.492783408257765
251,8798204.236173134
336,0.0
385,17.51672508469478
386,28.083728247501906
387,-17.665926548340845
388,0.0
425,0.0
450,0.0
451,0.0
452,-18.361079850338715
453,0.0
490,0.0
515,0.0
516,0.0
542,0.0
592,0.0
632,8640818.921164341
686,1.0
687,1.0
688,2.0
2,1, 1,21, 0, 2, 0.00,10.00,WinterDesignDay
250,17.965681426572242
251,5823212.782064103
336,0.0
385,18.01672508469478
386,28.083728247501906
387,-17.666041146066895
388,0.0
425,0.0
450,0.0
451,0.0
452,-18.36143245342788
453,0.0
490,0.0
515,0.0
516,0.0
542,0.0
592,0.0
632,5700860.119157453
686,1.0
687,1.0
688,2.0
2,1, 1,21, 0, 2,10.00,20.00,WinterDesignDay
250,17.084203423452664
251,8427475.208073981
336,0.0
385,17.01672508469478
386,28.083728247501906
387,-17.666012312715424
388,0.0
425,0.0
450,0.0
451,0.0
452,-18.361557925419163
453,0.0
490,0.0
515,0.0
516,0.0
542,0.0
592,0.0
632,8507542.08785211
686,0.5892968775510541
687,0.5000000000000002
688,1.166666666666667
2,1, 1,21, 0, 2,20.00,30.00,WinterDesignDay
250,17.3854923707829
251,6597983.327050297
336,0.0
385,17.350058418028105
386,28.083728247501895
387,-17.665876947781495
388,0.0
425,0.0
450,0.0
451,0.0
452,-18.361448952134552
453,0.0
490,0.0
515,0.0
516,0.0
542,0.0
592,0.0
632,6191268.336006621
686,0.9999999999999996
687,0.9999999999999996
688,1.9999999999999991
2,1, 1,21, 0, 2,30.00,40.00,WinterDesignDay
250,17.58106707712299
251,5054544.531835967
336,0.0
385,18.016725084694773
386,28.083728247501895
387,-17.665636387114997
388,0.0
425,0.0
450,0.0
451,0.0
452,-18.36106200131014
453,0.0
490,0.0
515,0.0
516,0.0
542,0.0
592,0.0
632,5505520.038097287
686,0.9999999999999997
687,0.9999999999999997
688,1.9999999999999993
2,1, 1,21, 0, 2,40.00,50.00,WinterDesignDay
250,17.9743037868825
251,5947965.798655724
336,0.0
385,18.01672508469478
386,28.083728247501906
387,-17.665563951436983
388,0.0
425,0.0
450,0.0
451,0.0
452,-18.36069572277497
453,0.0
490,0.0
515,0.0
516,0.0
542,0.0
592,0.0
632,5802609.761414614
686,1.0
687,1.0
688,2.0
2,1, 1,21, 0, 2,50.00,60.00,WinterDesignDay
250,17.074024228114013
251,8500306.81834986
336,0.0
385,17.016725084694755
386,28.083728247501867
387,-17.665735827971883
388,0.0
425,0.0
450,0.0
451,0.0
452,-18.360746945617556
453,0.0
490,0.0
515,0.0
516,0.0
542,0.0
592,0.0
632,8526357.807730272
686,0.6456529073785596
687,0.49999999999999933
688,1.166666666666665
2,1, 1,21, 0, 3, 0.00,10.00,WinterDesignDay
250,17.49278340804853
251,8798204.303933263
336,0.0
385,17.51672508469478
386,28.083728247501906
387,-17.665934241902324
388,0.0
425,0.0
450,0.0
451,0.0
452,-18.361080661690497
453,0.0
490,0.0
515,0.0
516,0.0
542,0.0
592,0.0
632,8640818.9899671
686,1.0
687,1.0
688,2.0
2,1, 1,21, 0, 3,10.00,20.00,WinterDesignDay
250,17.965681426596475
251,5823212.844430344
336,0.0
385,18.01672508469478
386,28.083728247501906
387,-17.66604873682762
388,0.0
425,0.0
450,0.0
451,0.0
452,-18.361433255237273
453,0.0
490,0.0
515,0.0
516,0.0
542,0.0
592,0.0
632,5700860.181584215
686,1.0
687,1.0
688,2.0
2,1, 1,21, 0, 3,20.00,30.00,WinterDesignDay
250,17.08420341602774
251,8427475.255061982
336,0.0
385,17.016725084694794
386,28.083728247501927
387,-17.666019808109585
388,0.0
425,0.0
450,0.0
451,0.0
452,-18.361558718086936
453,0.0
490,0.0
515,0.0
516,0.0
542,0.0
592,0.0
632,8507542.090603884
686,0.5892969230445713
687,0.5000000000000004
688,1.1666666666666676
2,1, 1,21, 0, 3,30.00,40.00,WinterDesignDay
250,17.385492370408862
251,6597983.391207932
336,0.0
385,17.350058418028127
386,28.083728247501924
387,-17.665884345669166
388,0.0
425,0.0
450,0.0
451,0.0
452,-18.36144973514693
453,0.0
490,0.0
515,0.0
516,0.0
542,0.0
592,0.0
632,6191268.401465878
686,1.0000000000000009
687,1.0000000000000009
688,2.0000000000000018
2,1, 1,21, 0, 3,40.00,50.00,WinterDesignDay
250,17.581067077668735
251,5054544.587669128
336,0.0
385,18.01672508469478
386,28.083728247501906
387,-17.665643669257054
388,0.0
425,0.0
450,0.0
451,0.0
452,-18.36106277164661
453,0.0
490,0.0
515,0.0
516,0.0
542,0.0
592,0.0
632,5505520.094299107
686,1.0
687,1.0
688,2.0
2,1, 1,21, 0, 3,50.00,60.00,WinterDesignDay
250,17.974303786971358
251,5947965.859418154
336,0.0
385,18.01672508469478
386,28.083728247501906
387,-17.665571132759226
388,0.0
425,0.0
450,0.0
451,0.0
452,-18.360696481241288
453,0.0
490,0.0
515,0.0
516,0.0
542,0.0
592,0.0
632,5802609.822039621
686,1.0
687,1.0
688,2.0
2,1, 1,21, 0, 4, 0.00,10.00,WinterDesignDay
250,17.074024221099087
251,8500306.86357756
336,0.0
385,17.016725084694777
386,28.083728247501906
387,-17.66574292437924
388,0.0
425,0.0
450,0.0
451,0.0
452,-18.360747693890794
453,0.0
490,0.0
515,0.0
516,0.0
542,0.0
592,0.0
632,8526357.81183062
686,0.6456529509537703
687,0.5
688,1.1666666666666665
2,1, 1,21, 0, 4,10.00,20.00,WinterDesignDay
250,17.492783407857942
251,8798204.365657177
336,0.0
385,17.51672508469478
386,28.083728247501906
387,-17.665941251082366
388,0.0
425,0.0
450,0.0
451,0.0
452,-18.361081400824045
453,0.0
490,0.0
515,0.0
516,0.0
542,0.0
592,0.0
632,8640819.05264076
686,1.0
687,1.0
688,2.0
2,1, 1,21, 0, 4,20.00,30.00,WinterDesignDay
250,17.965681426618545
251,5823212.901241012
336,0.0
385,18.01672508469478
386,28.083728247501906
387,-17.66605565235144
388,0.0
425,0.0
450,0.0
451,0.0
452,-18.36143398567894
453,0.0
490,0.0
515,0.0
516,0.0
542,0.0
592,0.0
632,5700860.2384500075
686,1.0
687,1.0
688,2.0
2,1, 1,21, 0, 4,30.00,40.00,WinterDesignDay
250,17.084203409264173
251,8427475.297864413
336,0.0
385,17.01672508469477
386,28.083728247501888
387,-17.66602663675006
388,0.0
425,0.0
450,0.0
451,0.0
452,-18.361559440201653
453,0.0
490,0.0
515,0.0
516,0.0
542,0.0
592,0.0
632,8507542.093110574
686,0.5892969644856072
687,0.49999999999999967
688,1.166666666666666
2,1, 1,21, 0, 4,40.00,50.00,WinterDesignDay
250,17.385492370068125
251,6597983.449650596
336,0.0
385,17.350058418028127
386,28.083728247501924
387,-17.66589108547635
388,0.0
425,0.0
450,0.0
451,0.0
452,-18.361450448466403
453,0.0
490,0.0
515,0.0
516,0.0
542,0.0
592,0.0
632,6191268.461094218
686,1.0000000000000009
687,1.0000000000000009
688,2.0000000000000018
2,1, 1,21, 0, 4,50.00,60.00,WinterDesignDay
250,17.58106707816587
251,5054544.638528988
336,0.0
385,18.01672508469478
386,28.083728247501906
387,-17.665650303613976
388,0.0
425,0.0
450,0.0
451,0.0
452,-18.36106347341865
453,0.0
490,0.0
515,0.0
516,0.0
542,0.0
592,0.0
632,5505520.145494794
686,1.0
687,1.0
688,2.0
2,1, 1,21, 0, 5, 0.00,10.00,WinterDesignDay
250,17.974303787052303
251,5947965.914768114
336,0.0
385,18.01672508469478
386,28.083728247501906
387,-17.66557767526412
388,0.0
425,0.0
450,0.0
451,0.0
452,-18.360697172199558
453,0.0
490,0.0
515,0.0
516,0.0
542,0.0
592,0.0
632,5802609.8772643935
686,1.0
687,1.0
688,2.0
2,1, 1,21, 0, 5,10.00,20.00,WinterDesignDay
250,17.074024214708974
251,8500306.9047767
336,0.0
385,17.01672508469478
386,28.083728247501906
387,-17.6657493895224
388,0.0
425,0.0
450,0.0
451,0.0
452,-18.360748375563126
453,0.0
490,0.0
515,0.0
516,0.0
542,0.0
592,0.0
632,8526357.815565763
686,0.6456529906475865
687,0.5000000000000002
688,1.166666666666667
2,1, 1,21, 0, 5,20.00,30.00,WinterDesignDay
250,17.49278340768433
251,8798204.421883296
336,0.0
385,17.51672508469478
386,28.083728247501906
387,-17.66594763675743
388,0.0
425,0.0
450,0.0
451,0.0
452,-18.361082074170696
453,0.0
490,0.0
515,0.0
516,0.0
542,0.0
592,0.0
632,8640819.109732036
686,1.0
687,1.0
688,2.0
2,1, 1,21, 0, 5,30.00,40.00,WinterDesignDay
250,17.965681426638657
251,5823212.9529915005
336,0.0
385,18.01672508469478
386,28.083728247501906
387,-17.66606195270105
388,0.0
425,0.0
450,0.0
451,0.0
452,-18.361434651108297
453,0.0
490,0.0
515,0.0
516,0.0
542,0.0
592,0.0
632,5700860.290250714
686,1.0
687,1.0
688,2.0
2,1, 1,21, 0, 5,40.00,50.00,WinterDesignDay
250,17.08420340310306
251,8427475.336854398
336,0.0
385,17.016725084694755
386,28.083728247501867
387,-17.66603285794435
388,0.0
425,0.0
450,0.0
451,0.0
452,-18.36156009804608
453,0.0
490,0.0
515,0.0
516,0.0
542,0.0
592,0.0
632,8507542.095394058
686,0.5892970022353934
687,0.49999999999999933
688,1.166666666666665
2,1, 1,21, 0, 5,50.00,60.00,WinterDesignDay
250,17.385492369757735
251,6597983.502887941
336,0.0
385,17.350058418028127
386,28.083728247501924
387,-17.665897225738803
388,0.0
425,0.0
450,0.0
451,0.0
452,-18.361451098298982
453,0.0
490,0.0
515,0.0
516,0.0
542,0.0
592,0.0
632,6191268.515411626
686,1.0000000000000009
687,1.0000000000000009
688,2.0000000000000018
2,1, 1,21, 0, 6, 0.00,10.00,WinterDesignDay
250,17.581067078618737
251,5054544.684859153
336,0.0
385,18.01672508469478
386,28.083728247501906
387,-17.665656347805704
388,0.0
425,0.0
450,0.0
451,0.0
452,-18.36106411273172
453,0.0
490,0.0
515,0.0
516,0.0
542,0.0
592,0.0
632,5505520.192130881
686,1.0
687,1.0
688,2.0
2,1, 1,21, 0, 6,10.00,20.00,WinterDesignDay
250,17.974303787126047
251,5947965.965188615
336,0.0
385,18.01672508469478
386,28.083728247501906
387,-17.66558363577404
388,0.0
425,0.0
450,0.0
451,0.0
452,-18.360697801661175
453,0.0
490,0.0
515,0.0
516,0.0
542,0.0
592,0.0
632,5802609.927570857
686,1.0
687,1.0
688,2.0
2,1, 1,21, 0, 6,20.00,30.00,WinterDesignDay
250,17.07402420888799
251,8500306.94230662
336,0.0
385,17.016725084694794
386,28.083728247501927
387,-17.66575527955217
388,0.0
425,0.0
450,0.0
451,0.0
452,-18.360748996565203
453,0.0
490,0.0
515,0.0
516,0.0
542,0.0
592,0.0
632,8526357.818968331
686,0.6456530268061669
687,0.5000000000000004
688,1.1666666666666676
2,1, 1,21, 0, 6,30.00,40.00,WinterDesignDay
250,17.492783407526176
251,8798204.473101905
336,0.0
385,17.51672508469478
386,28.083728247501906
387,-17.665953454387576
388,0.0
425,0.0
450,0.0
451,0.0
452,-18.361082687588503
453,0.0
490,0.0
515,0.0
516,0.0
542,0.0
592,0.0
632,8640819.161738742
686,1.0
687,1.0
688,2.0
2,1, 1,21, 0, 6,40.00,50.00,WinterDesignDay
250,17.965681426656978
251,5823213.000133293
336,0.0
385,18.01672508469478
386,28.083728247501906
387,-17.66606769259553
388,0.0
425,0.0
450,0.0
451,0.0
452,-18.36143525731425
453,0.0
490,0.0
515,0.0
516,0.0
542,0.0
592,0.0
632,5700860.337438249
686,1.0
687,1.0
688,2.0
2,1, 1,21, 0, 6,50.00,60.00,WinterDesignDay
250,17.084203397490622
251,8427475.37237218
336,0.0
385,17.016725084694755
386,28.083728247501867
387,-17.66603852572495
388,0.0
425,0.0
450,0.0
451,0.0
452,-18.36156069734287
453,0.0
490,0.0
515,0.0
516,0.0
542,0.0
592,0.0
632,8507542.097474221
686,0.589297036623392
687,0.49999999999999933
688,1.166666666666665
2,1, 1,21, 0, 7, 0.00,10.00,WinterDesignDay
250,17.38549236947497
251,6597983.551384201
336,0.0
385,17.350058418028112
386,28.083728247501906
387,-17.665902819786865
388,0.0
425,0.0
450,0.0
451,0.0
452,-18.36145169029745
453,0.0
490,0.0
515,0.0
516,0.0
542,0.0
592,0.0
632,6191268.564891764
686,1.0
687,1.0
688,2.0
2,1, 1,21, 0, 7,10.00,20.00,WinterDesignDay
250,17.58106707903129
251,5054544.727063352
336,0.0
385,18.01672508469478
386,28.083728247501906
387,-17.665661854328945
388,0.0
425,0.0
450,0.0
451,0.0
452,-18.361064695147075
453,0.0
490,0.0
515,0.0
516,0.0
542,0.0
592,0.0
632,5505520.234613771
686,1.0
687,1.0
688,2.0
2,1, 1,21, 0, 7,20.00,30.00,WinterDesignDay
250,17.974303787193215
251,5947966.0111190025
336,0.0
385,18.01672508469478
386,28.083728247501906
387,-17.66558906605931
388,0.0
425,0.0
450,0.0
451,0.0
452,-18.360698375101727
453,0.0
490,0.0
515,0.0
516,0.0
542,0.0
592,0.0
632,5802609.973397356
686,1.0
687,1.0
688,2.0
2,1, 1,21, 0, 7,30.00,40.00,WinterDesignDay
250,17.074024203585335
251,8500306.97649443
336,0.0
385,17.01672508469477
386,28.083728247501888
387,-17.665760645626747
388,0.0
425,0.0
450,0.0
451,0.0
452,-18.36074956229901
453,0.0
490,0.0
515,0.0
516,0.0
542,0.0
592,0.0
632,8526357.822067862
686,0.6456530597447935
687,0.49999999999999967
688,1.166666666666666
2,1, 1,21, 0, 7,40.00,50.00,WinterDesignDay
250,17.49278340738211
251,8798204.519759476
336,0.0
385,17.51672508469478
386,28.083728247501906
387,-17.66595875450274
388,0.0
425,0.0
450,0.0
451,0.0
452,-18.36108324641341
453,0.0
490,0.0
515,0.0
516,0.0
542,0.0
592,0.0
632,8640819.209114231
686,1.0
687,1.0
688,2.0
2,1, 1,21, 0, 7,50.00,60.00,WinterDesignDay
250,17.96568142667366
251,5823213.043077061
336,0.0
385,18.01672508469478
386,28.083728247501906
387,-17.666072921889757
388,0.0
425,0.0
450,0.0
451,0.0
452,-18.361435809569798
453,0.0
490,0.0
515,0.0
516,0.0
542,0.0
592,0.0
632,5700860.380423686
686,1.0
687,1.0
688,2.0
2,1, 1,21, 0, 8, 0.00,10.00,WinterDesignDay
250,17.084203392378008
251,8427475.404727045
336,0.0
385,17.016725084694777
386,28.083728247501906
387,-17.666043689319448
388,0.0
425,0.0
450,0.0
451,0.0
452,-18.361561243304788
453,0.0
490,0.0
515,0.0
516,0.0
542,0.0
592,0.0
632,8507542.099369146
686,0.5892970679490803
687,0.5
688,1.1666666666666665
2,1, 1,21, 0, 8,10.00,20.00,WinterDesignDay
250,17.385492369217403
251,6597983.595562008
336,0.0
385,17.350058418028112
386,28.083728247501902
387,-17.665907916207342
388,0.0
425,0.0
450,0.0
451,0.0
452,-18.36145222961098
453,0.0
490,0.0
515,0.0
516,0.0
542,0.0
592,0.0
632,6191268.60996584
686,1.0
687,1.0
688,2.0
2,1, 1,21, 0, 8,20.00,30.00,WinterDesignDay
250,17.58106707940711
251,5054544.765509465
336,0.0
385,18.01672508469478
386,28.083728247501906
387,-17.66566687101017
388,0.0
425,0.0
450,0.0
451,0.0
452,-18.361065225730457
453,0.0
490,0.0
515,0.0
516,0.0
542,0.0
592,0.0
632,5505520.273313757
686,1.0
687,1.0
688,2.0
2,1, 1,21, 0, 8,30.00,40.00,WinterDesignDay
250,17.97430378725441
251,5947966.05295955
336,0.0
385,18.01672508469478
386,28.083728247501906
387,-17.66559401328386
388,0.0
425,0.0
450,0.0
451,0.0
452,-18.360698897508925
453,0.0
490,0.0
515,0.0
516,0.0
542,0.0
592,0.0
632,5802610.015143268
686,1.0
687,1.0
688,2.0
2,1, 1,21, 0, 8,40.00,50.00,WinterDesignDay
250,17.07402419875486
251,8500307.007638011
336,0.0
385,17.016725084694755
386,28.083728247501867
387,-17.665765534352058
388,0.0
425,0.0
450,0.0
451,0.0
452,-18.360750077685278
453,0.0
490,0.0
515,0.0
516,0.0
542,0.0
592,0.0
632,8526357.824891469
686,0.6456530897503514
687,0.49999999999999933
688,1.166666666666665
2,1, 1,21, 0, 8,50.00,60.00,WinterDesignDay
250,17.49278340725087
251,8798204.562262543
336,0.0
385,17.51672508469478
386,28.083728247501906
387,-17.665963583136342
388,0.0
425,0.0
450,0.0
451,0.0
452,-18.361083755505902
453,0.0
490,0.0
515,0.0
516,0.0
542,0.0
592,0.0
632,8640819.25227129
686,1.0
687,1.0
688,2.0
2,1, 1,21, 0, 9, 0.00,10.00,WinterDesignDay
250,17.965681426688867
251,5823213.082197162
336,0.0
385,18.01672508469478
386,28.083728247501906
387,-17.66607768600233
388,0.0
425,0.0
450,0.0
451,0.0
452,-18.361436312678123
453,0.0
490,0.0
515,0.0
516,0.0
542,0.0
592,0.0
632,5700860.419581752
686,1.0
687,1.0
688,2.0
2,1, 1,21, 0, 9,10.00,20.00,WinterDesignDay
250,17.0842033877206
251,8427475.434201026
336,0.0
385,17.01672508469478
386,28.083728247501906
387,-17.666048393576464
388,0.0
425,0.0
450,0.0
451,0.0
452,-18.36156174068003
453,0.0
490,0.0
515,0.0
516,0.0
542,0.0
592,0.0
632,8507542.1010954
686,0.5892970964854698
687,0.5000000000000002
688,1.166666666666667
2,1, 1,21, 0, 9,20.00,30.00,WinterDesignDay
250,17.38549236898276
251,6597983.63580619
336,0.0
385,17.350058418028105
386,28.083728247501895
387,-17.665912559265376
388,0.0
425,0.0
450,0.0
451,0.0
452,-18.36145272092985
453,0.0
490,0.0
515,0.0
516,0.0
542,0.0
592,0.0
632,6191268.651026482
686,0.9999999999999996
687,0.9999999999999996
688,1.9999999999999991
2,1, 1,21, 0, 9,30.00,40.00,WinterDesignDay
250,17.581067079749467
251,5054544.800532471
336,0.0
385,18.016725084694773
386,28.083728247501895
387,-17.665671441421445
388,0.0
425,0.0
450,0.0
451,0.0
452,-18.361065709096202
453,0.0
490,0.0
515,0.0
516,0.0
542,0.0
592,0.0
632,5505520.308568039
686,0.9999999999999997
687,0.9999999999999997
688,1.9999999999999993
2,1, 1,21, 0, 9,40.00,50.00,WinterDesignDay
250,17.974303787310156
251,5947966.09107475
336,0.0
385,18.01672508469478
386,28.083728247501906
387,-17.66559852041675
388,0.0
425,0.0
450,0.0
451,0.0
452,-18.36069937342603
453,0.0
490,0.0
515,0.0
516,0.0
542,0.0
592,0.0
632,5802610.053172259
686,1.0
687,1.0
688,2.0
2,1, 1,21, 0, 9,50.00,60.00,WinterDesignDay
250,17.074024194354475
251,8500307.036008744
336,0.0
385,17.016725084694755
386,28.083728247501867
387,-17.66576998818969
388,0.0
425,0.0
450,0.0
451,0.0
452,-18.36075054720622
453,0.0
490,0.0
515,0.0
516,0.0
542,0.0
592,0.0
632,8526357.82746369
686,0.6456531170843737
687,0.49999999999999933
688,1.166666666666665
2,1, 1,21, 0,10, 0.00,10.00,WinterDesignDay
250,17.492783407131313
251,8798204.600981418
336,0.0
385,17.51672508469478
386,28.083728247501906
387,-17.665967982227535
388,0.0
425,0.0
450,0.0
451,0.0
452,-18.361084219293414
453,0.0
490,0.0
515,0.0
516,0.0
542,0.0
592,0.0
632,8640819.29158593
686,1.0
687,1.0
688,2.0
2,1, 1,21, 0,10,10.00,20.00,WinterDesignDay
250,17.965681426702716
251,5823213.117834274
336,0.0
385,18.01672508469478
386,28.083728247501906
387,-17.666082026311905
388,0.0
425,0.0
450,0.0
451,0.0
452,-18.361436771014453
453,0.0
490,0.0
515,0.0
516,0.0
542,0.0
592,0.0
632,5700860.455253441
686,1.0
687,1.0
688,2.0
2,1, 1,21, 0,10,20.00,30.00,WinterDesignDay
250,17.08420338347786
251,8427475.46105092
336,0.0
385,17.016725084694794
386,28.083728247501927
387,-17.66605267935517
388,0.0
425,0.0
450,0.0
451,0.0
452,-18.361562193793887
453,0.0
490,0.0
515,0.0
516,0.0
542,0.0
592,0.0
632,8507542.102667976
686,0.5892971224812344
687,0.5000000000000004
688,1.1666666666666676
2,1, 1,21, 0,10,30.00,40.00,WinterDesignDay
250,17.385492368769036
251,6597983.672467436
336,0.0
385,17.350058418028127
386,28.083728247501924
387,-17.66591678928942
388,0.0
425,0.0
450,0.0
451,0.0
452,-18.3614531685266
453,0.0
490,0.0
515,0.0
516,0.0
542,0.0
592,0.0
632,6191268.688431496
686,1.0000000000000009
687,1.0000000000000009
688,2.0000000000000018
2,1, 1,21, 0,10,40.00,50.00,WinterDesignDay
250,17.581067080061366
251,5054544.832437422
336,0.0
385,18.01672508469478
386,28.083728247501906
387,-17.66567560526138
388,0.0
425,0.0
450,0.0
451,0.0
452,-18.361066149447648
453,0.0
490,0.0
515,0.0
516,0.0
542,0.0
592,0.0
632,5505520.340683678
686,1.0
687,1.0
688,2.0
2,1, 1,21, 0,10,50.00,60.00,WinterDesignDay
250,17.974303787360938
251,5947966.125796676
336,0.0
385,18.01672508469478
386,28.083728247501906
387,-17.665602626607203
388,0.0
425,0.0
450,0.0
451,0.0
452,-18.36069980699162
453,0.0
490,0.0
515,0.0
516,0.0
542,0.0
592,0.0
632,5802610.087815641
686,1.0
687,1.0
688,2.0
2,1, 1,21, 0,11, 0.00,10.00,WinterDesignDay
250,17.074024190345874
251,8500307.061853677
336,0.0
385,17.016725084694777
386,28.083728247501906
387,-17.66577404582573
388,0.0
425,0.0
450,0.0
451,0.0
452,-18.360750974944835
453,0.0
490,0.0
515,0.0
516,0.0
542,0.0
592,0.0
632,8526357.829806924
686,0.6456531419848771
687,0.5
688,1.1666666666666665
2,1, 1,21, 0,11,10.00,20.00,WinterDesignDay
250,17.4927834070224
251,8798204.636253221
336,0.0
385,17.51672508469478
386,28.083728247501906
387,-17.66597198998727
388,0.0
425,0.0
450,0.0
451,0.0
452,-18.36108464180897
453,0.0
490,0.0
515,0.0
516,0.0
542,0.0
592,0.0
632,8640819.32740046
686,1.0
687,1.0
688,2.0
2,1, 1,21, 0,11,20.00,30.00,WinterDesignDay
250,17.965681426715328
251,5823213.150298791
336,0.0
385,18.01672508469478
386,28.083728247501906
387,-17.666085980519114
388,0.0
425,0.0
450,0.0
451,0.0
452,-18.36143718856431
453,0.0
490,0.0
515,0.0
516,0.0
542,0.0
592,0.0
632,5700860.487749462
686,1.0
687,1.0
688,2.0
2,1, 1,21, 0,11,30.00,40.00,WinterDesignDay
250,17.084203379612795
251,8427475.485510483
336,0.0
385,17.01672508469477
386,28.083728247501888
387,-17.666056583882195
388,0.0
425,0.0
450,0.0
451,0.0
452,-18.36156260658633
453,0.0
490,0.0
515,0.0
516,0.0
542,0.0
592,0.0
632,8507542.104100563
686,0.5892971461627005
687,0.49999999999999967
688,1.166666666666666
2,1, 1,21, 0,11,40.00,50.00,WinterDesignDay
250,17.385492368574322
251,6597983.705864953
336,0.0
385,17.350058418028127
386,28.083728247501924
387,-17.665920643020915
388,0.0
425,0.0
450,0.0
451,0.0
452,-18.361453576293147
453,0.0
490,0.0
515,0.0
516,0.0
542,0.0
592,0.0
632,6191268.722506568
686,1.0000000000000009
687,1.0000000000000009
688,2.0000000000000018
2,1, 1,21, 0,11,50.00,60.00,WinterDesignDay
250,17.581067080345488
251,5054544.861502118
336,0.0
385,18.01672508469478
386,28.083728247501906
387,-17.66567939869609
388,0.0
425,0.0
450,0.0
451,0.0
452,-18.361066550613717
453,0.0
490,0.0
515,0.0
516,0.0
542,0.0
592,0.0
632,5505520.369940308
686,1.0
687,1.0
688,2.0
2,1, 1,21, 0,12, 0.00,10.00,WinterDesignDay
250,17.9743037874072
251,5947966.157427527
336,0.0
385,18.01672508469478
386,28.083728247501906
387,-17.66560636752073
388,0.0
425,0.0
450,0.0
451,0.0
452,-18.360700201975646
453,0.0
490,0.0
515,0.0
516,0.0
542,0.0
592,0.0
632,5802610.119374949
686,1.0
687,1.0
688,2.0
2,1, 1,21, 0,12,10.00,20.00,WinterDesignDay
250,17.0740241866941
251,8500307.085397854
336,0.0
385,17.01672508469478
386,28.083728247501906
387,-17.66577774250378
388,0.0
425,0.0
450,0.0
451,0.0
452,-18.360751364620363
453,0.0
490,0.0
515,0.0
516,0.0
542,0.0
592,0.0
632,8526357.831941571
686,0.6456531646686903
687,0.5000000000000002
688,1.166666666666667
2,1, 1,21, 0,12,20.00,30.00,WinterDesignDay
250,17.492783406923188
251,8798204.66838514
336,0.0
385,17.51672508469478
386,28.083728247501906
387,-17.66597564122525
388,0.0
425,0.0
450,0.0
451,0.0
452,-18.361085026726414
453,0.0
490,0.0
515,0.0
516,0.0
542,0.0
592,0.0
632,8640819.360026792
686,1.0
687,1.0
688,2.0
2,1, 1,21, 0,12,30.00,40.00,WinterDesignDay
250,17.965681426726825
251,5823213.179873276
336,0.0
385,18.01672508469478
386,28.083728247501906
387,-17.666089582968077
388,0.0
425,0.0
450,0.0
451,0.0
452,-18.36143756895824
453,0.0
490,0.0
515,0.0
516,0.0
542,0.0
592,0.0
632,5700860.517352639
686,1.0
687,1.0
688,2.0
2,1, 1,21, 0,12,40.00,50.00,WinterDesignDay
250,17.08420337609179
251,8427475.507792719
336,0.0
385,17.016725084694755
386,28.083728247501867
387,-17.666060141070325
388,0.0
425,0.0
450,0.0
451,0.0
452,-18.361562982646475
453,0.0
490,0.0
515,0.0
516,0.0
542,0.0
592,0.0
632,8507542.105405636
686,0.5892971677360912
687,0.49999999999999933
688,1.166666666666665
2,1, 1,21, 0,12,50.00,60.00,WinterDesignDay
250,17.385492368396935
251,6597983.736289483
336,0.0
385,17.350058418028127
386,28.083728247501924
387,-17.665924153932274
388,0.0
425,0.0
450,0.0
451,0.0
452,-18.361453947774805
453,0.0
490,0.0
515,0.0
516,0.0
542,0.0
592,0.0
632,6191268.753548341
686,1.0000000000000009
687,1.0000000000000009
688,2.0000000000000018
2,1, 1,21, 0,13, 0.00,10.00,WinterDesignDay
250,17.581067080604328
251,5054544.887979509
336,0.0
385,18.01672508469478
386,28.083728247501906
387,-17.665682854674127
388,0.0
425,0.0
450,0.0
451,0.0
452,-18.361066916082294
453,0.0
490,0.0
515,0.0
516,0.0
542,0.0
592,0.0
632,5505520.396592549
686,1.0
687,1.0
688,2.0
2,1, 1,21, 0,13,10.00,20.00,WinterDesignDay
250,17.97430378744935
251,5947966.186242831
336,0.0
385,18.01672508469478
386,28.083728247501906
387,-17.665609775649514
388,0.0
425,0.0
450,0.0
451,0.0
452,-18.360700561812227
453,0.0
490,0.0
515,0.0
516,0.0
542,0.0
592,0.0
632,5802610.148125075
686,1.0
687,1.0
688,2.0
2,1, 1,21, 0,13,20.00,30.00,WinterDesignDay
250,17.0740241833674
251,8500307.1068463
336,0.0
385,17.016725084694794
386,28.083728247501927
387,-17.665781110332286
388,0.0
425,0.0
450,0.0
451,0.0
452,-18.360751719620815
453,0.0
490,0.0
515,0.0
516,0.0
542,0.0
592,0.0
632,8526357.833886238
686,0.6456531853333234
687,0.5000000000000004
688,1.1666666666666676
2,1, 1,21, 0,13,30.00,40.00,WinterDesignDay
250,17.492783406832803
251,8798204.697656903
336,0.0
385,17.51672508469478
386,28.083728247501906
387,-17.66597896765603
388,0.0
425,0.0
450,0.0
451,0.0
452,-18.361085377392296
453,0.0
490,0.0
515,0.0
516,0.0
542,0.0
592,0.0
632,8640819.389748957
686,1.0
687,1.0
688,2.0
2,1, 1,21, 0,13,40.00,50.00,WinterDesignDay
250,17.96568142673729
251,5823213.206815323
336,0.0
385,18.01672508469478
386,28.083728247501906
387,-17.6660928649499
388,0.0
425,0.0
450,0.0
451,0.0
452,-18.361437915503384
453,0.0
490,0.0
515,0.0
516,0.0
542,0.0
592,0.0
632,5700860.544320829
686,1.0
687,1.0
688,2.0
2,1, 1,21, 0,13,50.00,60.00,WinterDesignDay
250,17.08420337288423
251,8427475.52809152
336,0.0
385,17.016725084694755
386,28.083728247501867
387,-17.666063381817054
388,0.0
425,0.0
450,0.0
451,0.0
452,-18.361563325243704
453,0.0
490,0.0
515,0.0
516,0.0
542,0.0
592,0.0
632,8507542.106594555
686,0.5892971873891278
687,0.49999999999999933
688,1.166666666666665
2,1, 1,21, 0,14, 0.00,10.00,WinterDesignDay
250,17.385492368235333
251,6597983.764005853
336,0.0
385,17.350058418028112
386,28.083728247501906
387,-17.66592735251857
388,0.0
425,0.0
450,0.0
451,0.0
452,-18.361454286201095
453,0.0
490,0.0
515,0.0
516,0.0
542,0.0
592,0.0
632,6191268.781827006
686,1.0
687,1.0
688,2.0
2,1, 1,21, 0,14,10.00,20.00,WinterDesignDay
250,17.58106708084013
251,5054544.91210024
336,0.0
385,18.01672508469478
386,28.083728247501906
387,-17.665686003213896
388,0.0
425,0.0
450,0.0
451,0.0
452,-18.361067249030615
453,0.0
490,0.0
515,0.0
516,0.0
542,0.0
592,0.0
632,5505520.42087257
686,1.0
687,1.0
688,2.0
2,1, 1,21, 0,14,20.00,30.00,WinterDesignDay
250,17.97430378748774
251,5947966.212493278
336,0.0
385,18.01672508469478
386,28.083728247501906
387,-17.6656128805965
388,0.0
425,0.0
450,0.0
451,0.0
452,-18.360700889629662
453,0.0
490,0.0
515,0.0
516,0.0
542,0.0
592,0.0
632,5802610.17431614
686,1.0
687,1.0
688,2.0
2,1, 1,21, 0,14,30.00,40.00,WinterDesignDay
250,17.074024180336778
251,8500307.12638557
336,0.0
385,17.01672508469477
386,28.083728247501888
387,-17.665784178563886
388,0.0
425,0.0
450,0.0
451,0.0
452,-18.360752043032377
453,0.0
490,0.0
515,0.0
516,0.0
542,0.0
592,0.0
632,8526357.83565778
686,0.645653204158575
687,0.49999999999999967
688,1.166666666666666
2,1, 1,21, 0,14,40.00,50.00,WinterDesignDay
250,17.492783406750466
251,8798204.72432316
336,0.0
385,17.51672508469478
386,28.083728247501906
387,-17.66598199817279
388,0.0
425,0.0
450,0.0
451,0.0
452,-18.36108569685513
453,0.0
490,0.0
515,0.0
516,0.0
542,0.0
592,0.0