Program Version,EnergyPlus, Version 24.2.0-94a887817b, YMD=2025.02.04 15:38
1,5,Environment Title[],Latitude[deg],Longitude[deg],Time Zone[],Elevation[m]
2,8,Day of Simulation[],Month[],Day of Month[],DST Indicator[1=yes 0=no],Hour[],StartMinute[],EndMinute[],DayType
3,5,Cumulative Day of Simulation[],Month[],Day of Month[],DST Indicator[1=yes 0=no],DayType  ! When Daily Report Variables Requested
4,2,Cumulative Days of Simulation[],Month[]  ! When Monthly Report Variables Requested
5,1,Cumulative Days of Simulation[] ! When Run Period Report Variables Requested
6,1,Calendar Year of Simulation[] ! When Annual Report Variables Requested
250,1,LIVING ZONE,Zone Air Temperature [C] !TimeStep,REPORTSCH
251,1,LIVING ZONE,Zone Air System Sensible Heating Energy [J] !TimeStep,REPORTSCH
336,1,LIVING ZONE,Zone Air System Sensible Cooling Energy [J] !TimeStep,REPORTSCH
385,1,LIVING ZONE,Zone Thermostat Heating Setpoint Temperature [C] !TimeStep,REPORTSCH
386,1,LIVING ZONE,Zone Thermostat Cooling Setpoint Temperature [C] !TimeStep,REPORTSCH
387,1,GARAGE ZONE,Zone Air Temperature [C] !TimeStep,REPORTSCH
388,1,GARAGE ZONE,Zone Air System Sensible Heating Energy [J] !TimeStep,REPORTSCH
425,1,GARAGE ZONE,Zone Air System Sensible Cooling Energy [J] !TimeStep,REPORTSCH
450,1,GARAGE ZONE,Zone Thermostat Heating Setpoint Temperature [C] !TimeStep,REPORTSCH
451,1,GARAGE ZONE,Zone Thermostat Cooling Setpoint Temperature [C] !TimeStep,REPORTSCH
452,1,ATTIC ZONE,Zone Air Temperature [C] !TimeStep,REPORTSCH
453,1,ATTIC ZONE,Zone Air System Sensible Heating Energy [J] !TimeStep,REPORTSCH
490,1,ATTIC ZONE,Zone Air System Sensible Cooling Energy [J] !TimeStep,REPORTSCH
515,1,ATTIC ZONE,Zone Thermostat Heating Setpoint Temperature [C] !TimeStep,REPORTSCH
516,1,ATTIC ZONE,Zone Thermostat Cooling Setpoint Temperature [C] !TimeStep,REPORTSCH
542,1,ACDXCOIL 1,Cooling Coil Total Cooling Energy [J] !TimeStep,REPORTSCH
592,1,HEAT PUMP DX HEATING COIL 1,Heating Coil Heating Energy [J] !TimeStep,REPORTSCH
632,1,SUPP HEATING COIL 1,Heating Coil Heating Energy [J] !TimeStep,REPORTSCH
686,1,TWOSPEED HEAT PUMP 1,Unitary System DX Coil Cycling Ratio [] !TimeStep,REPORTSCH
687,1,TWOSPEED HEAT PUMP 1,Unitary System DX Coil Speed Ratio [] !TimeStep,REPORTSCH
688,1,TWOSPEED HEAT PUMP 1,Unitary System DX Coil Speed Level [] !TimeStep,REPORTSCH
End of Data Dictionary
1,RUN PERIOD 1,  41.98, -87.92,  -6.00, 201.00
2,21, 1,21, 0, 1, 0.00,10.00,Monday
250,-0.6125876842390281
251,38010064.97195621
336,0.0
385,23.324365147006898
386,27.63801626564363
387,-0.9428909714540764
388,0.0
425,0.0
450,0.0
451,0.0
452,-1.9698828535809823
453,0.0
490,0.0
515,0.0
516,0.0
542,0.0
592,4839743.985079641
632,32912485.73408974
686,1.0
687,1.0
688,2.0
2,21, 1,21, 0, 1,10.00,20.00,Monday
250,-0.6126356866129813
251,38011708.69024594
336,0.0
385,23.324365147006898
386,27.63801626564363
387,-0.9512635932343474
388,0.0
425,0.0
450,0.0
451,0.0
452,-1.9517586448154791
453,0.0
490,0.0
515,0.0
516,0.0
542,0.0
592,4823801.676011793
632,32928989.745354712
686,1.0
687,1.0
688,2.0
2,21, 1,21, 0, 1,20.00,30.00,Monday
250,-0.6127773127321158
251,38013448.116628185
336,0.0
385,23.324365147006898
386,27.63801626564363
387,-0.9608676342696175
388,0.0
425,0.0
450,0.0
451,0.0
452,-1.9486744259208288
453,0.0
490,0.0
515,0.0
516,0.0
542,0.0
592,4807858.162905219
632,32946622.28261674
686,1.0
687,1.0
688,2.0
2,21, 1,21, 0, 1,30.00,40.00,Monday
250,-0.6128990641848404
251,38015160.9927023
336,0.0
385,23.324365147006898
386,27.63801626564363
387,-0.9719078519518475
388,0.0
425,0.0
450,0.0
451,0.0
452,-1.9615353537189955
453,0.0
490,0.0
515,0.0
516,0.0
542,0.0
592,4791913.445623511
632,32964290.572394144
686,1.0
687,1.0
688,2.0
2,21, 1,21, 0, 1,40.00,50.00,Monday
250,-0.6130258601071997
251,38016879.61876536
336,0.0
385,23.324365147006898
386,27.63801626564363
387,-0.9845416843738346
388,0.0
425,0.0
450,0.0
451,0.0
452,-1.988723199747205
453,0.0
490,0.0
515,0.0
516,0.0
542,0.0
592,4775967.524030239
632,32981952.401346296
686,1.0
687,1.0
688,2.0
2,21, 1,21, 0, 1,50.00,60.00,Monday
250,-0.6131531534663998
251,38018599.001804166
336,0.0
385,23.324365147006898
386,27.63801626564363
387,-0.9989580248171045
388,0.0
425,0.0
450,0.0
451,0.0
452,-2.0287062494413743
453,0.0
490,0.0
515,0.0
516,0.0
542,0.0
592,4760020.397988958
632,32999618.63963868
686,1.0
687,1.0
688,2.0
2,21, 1,21, 0, 2, 0.00,10.00,Monday
250,-0.6132890886177971
251,38018985.018142946
336,0.0
385,23.324365147006898
386,27.63801626564363
387,-1.014476654290064
388,0.0
425,0.0
450,0.0
451,0.0
452,-2.0754430348248456
453,0.0
490,0.0
515,0.0
516,0.0
542,0.0
592,4760020.397988958
632,33000000.0
686,1.0
687,1.0
688,2.0
2,21, 1,21, 0, 2,10.00,20.00,Monday
250,-0.6134282301159419
251,38018986.74460063
336,0.0
385,23.324365147006898
386,27.63801626564363
387,-1.0301571736777697
388,0.0
425,0.0
450,0.0
451,0.0
452,-2.1181526185779043
453,0.0
490,0.0
515,0.0
516,0.0
542,0.0
592,4760020.397988958
632,33000000.0
686,1.0
687,1.0
688,2.0
2,21, 1,21, 0, 2,20.00,30.00,Monday
250,-0.6135659315225676
251,38018985.969186366
336,0.0
385,23.324365147006898
386,27.63801626564363
387,-1.0454471693738145
388,0.0
425,0.0
450,0.0
451,0.0
452,-2.149607359467023
453,0.0
490,0.0
515,0.0
516,0.0
542,0.0
592,4760020.397988956
632,33000000.0
686,1.0
687,1.0
688,2.0
2,21, 1,21, 0, 2,30.00,40.00,Monday
250,-0.6137011779674301
251,38018984.647366434
336,0.0
385,23.324365147006898
386,27.63801626564363
387,-1.0600254999890457
388,0.0
425,0.0
450,0.0
451,0.0
452,-2.168986656599427
453,0.0
490,0.0
515,0.0
516,0.0
542,0.0
592,4760020.397988958
632,33000000.0
686,1.0
687,1.0
688,2.0
2,21, 1,21, 0, 2,40.00,50.00,Monday
250,-0.6138344103671108
251,38018983.56294372
336,0.0
385,23.324365147006898
386,27.63801626564363
387,-1.073751522296492
388,0.0
425,0.0
450,0.0
451,0.0
452,-2.179128177646813
453,0.0
490,0.0
515,0.0
516,0.0
542,0.0
592,4760020.397988958
632,33000000.0
686,1.0
687,1.0
688,2.0
2,21, 1,21, 0, 2,50.00,60.00,Monday
250,-0.6139652709377132
251,38018982.28587858
336,0.0
385,23.324365147006898
386,27.63801626564363
387,-1.0865875726394407
388,0.0
425,0.0
450,0.0
451,0.0
452,-2.1831796375227577
453,0.0
490,0.0
515,0.0
516,0.0
542,0.0
592,4760020.397988958
632,33000000.0
686,1.0
687,1.0
688,2.0
2,21, 1,21, 0, 3, 0.00,10.00,Monday
250,-0.532486262216631
251,37976839.543221295
336,0.0
385,23.324365147006898
386,27.63801626564363
387,-1.0881488925059528
388,0.0
425,0.0
450,0.0
451,0.0
452,-2.1757145633388064
453,0.0
490,0.0
515,0.0
516,0.0
542,0.0
592,4762558.894114006
632,32999260.001282725
686,1.0
687,1.0
688,2.0
2,21, 1,21, 0, 3,10.00,20.00,Monday
250,-0.4493051040156544
251,37933584.98210993
336,0.0
385,23.324365147006898
386,27.63801626564363
387,-1.0771315835334787
388,0.0
425,0.0
450,0.0
451,0.0
452,-2.1507559168268027
453,0.0
490,0.0
515,0.0
516,0.0
542,0.0
592,4764988.43573097
632,32954494.19739984
686,1.0
687,1.0
688,2.0
2,21, 1,21, 0, 3,20.00,30.00,Monday
250,-0.36690649603743486
251,37890801.04481359
336,0.0
385,23.324365147006898
386,27.63801626564363
387,-1.0579505531793862
388,0.0
425,0.0
450,0.0
451,0.0
452,-2.1068516527792003
453,0.0
490,0.0
515,0.0
516,0.0
542,0.0
592,4767308.250738333
632,32908970.9337674
686,1.0
687,1.0
688,2.0
2,21, 1,21, 0, 3,30.00,40.00,Monday
250,-0.28431776898614614
251,37847906.31317624
336,0.0
385,23.324365147006898
386,27.63801626564363
387,-1.0344045139972264
388,0.0
425,0.0
450,0.0
451,0.0
452,-2.0471301161032986
453,0.0
490,0.0
515,0.0
516,0.0
542,0.0
592,4769517.689516205
632,32863970.990996182
686,1.0
687,1.0
688,2.0
2,21, 1,21, 0, 3,40.00,50.00,Monday
250,-0.20168334682876293
251,37804996.358282134
336,0.0
385,23.324365147006898
386,27.63801626564363
387,-1.007806623274451
388,0.0
425,0.0
450,0.0
451,0.0
452,-1.9760742630892874
453,0.0
490,0.0
515,0.0
516,0.0
542,0.0
592,4771616.115684973
632,32818989.086380955
686,1.0
687,1.0
688,2.0
2,21, 1,21, 0, 3,50.00,60.00,Monday
250,-0.11902248421648351
251,37762079.180403024
336,0.0
385,23.324365147006898
386,27.63801626564363
387,-0.9779602382433471
388,0.0
425,0.0
450,0.0
451,0.0
452,-1.8973036400296264
453,0.0
490,0.0
515,0.0
516,0.0
542,0.0
592,4773602.736238394
632,32774101.409697067
686,1.0
687,1.0
688,2.0
2,21, 1,21, 0, 4, 0.00,10.00,Monday
250,-0.11791907526670561
251,37763092.682117775
336,0.0
385,23.324365147006898
386,27.63801626564363
387,-0.9552612916524484
388,0.0
425,0.0
450,0.0
451,0.0
452,-1.8211048417507885
453,0.0
490,0.0
515,0.0
516,0.0
542,0.0
592,4773428.982371631
632,32731366.529175896
686,1.0
687,1.0
688,2.0
2,21, 1,21, 0, 4,10.00,20.00,Monday
250,-0.11851840134865793
251,37763484.91514511
336,0.0
385,23.324365147006898
386,27.63801626564363
387,-0.9426092448192419
388,0.0
425,0.0
450,0.0
451,0.0
452,-1.7565145256082793
453,0.0
490,0.0
515,0.0
516,0.0
542,0.0
592,4773255.169447958
632,32731015.540176477
686,1.0
687,1.0
688,2.0
2,21, 1,21, 0, 4,20.00,30.00,Monday
250,-0.11830028978723528
251,37763393.797044
336,0.0
385,23.324365147006898
386,27.63801626564363
387,-0.9365851278625071
388,0.0
425,0.0
450,0.0
451,0.0
452,-1.7071396819542672
453,0.0
490,0.0
515,0.0
516,0.0
542,0.0
592,4773081.297437258
632,32731538.538697135
686,1.0
687,1.0
688,2.0
2,21, 1,21, 0, 4,30.00,40.00,Monday
250,-0.11824233371674787
251,37763404.161545195
336,0.0
385,23.324365147006898
386,27.63801626564363
387,-0.9333452798513489
388,0.0
425,0.0
450,0.0
451,0.0
452,-1.6713265642398927
453,0.0
490,0.0
515,0.0
516,0.0
542,0.0
592,4772907.366309401
632,32731636.579918448
686,1.0
687,1.0
688,2.0
2,21, 1,21, 0, 4,40.00,50.00,Monday
250,-0.11820170680206708
251,37763421.11353295
336,0.0
385,23.324365147006898
386,27.63801626564363
387,-0.9310878304486533
388,0.0
425,0.0
450,0.0
451,0.0
452,-1.645406877203234
453,0.0
490,0.0
515,0.0
516,0.0
542,0.0
592,4772733.376034233
632,32731818.189284325
686,1.0
687,1.0
688,2.0
2,21, 1,21, 0, 4,50.00,60.00,Monday
250,-0.11815954461126357
251,37763436.9101994
336,0.0
385,23.324365147006898
386,27.63801626564363
387,-0.9296129110135137
388,0.0
425,0.0
450,0.0
451,0.0
452,-1.6263203908862103
453,0.0
490,0.0
515,0.0
516,0.0
542,0.0
592,4772559.326581575
632,32732008.862277195
686,1.0
687,1.0
688,2.0
2,21, 1,21, 0, 5, 0.00,10.00,Monday
250,-0.11812002109133304
251,37763454.19689035
336,0.0
385,23.324365147006898
386,27.63801626564363
387,-0.9289665873096946
388,0.0
425,0.0
450,0.0
451,0.0
452,-1.6114504631133688
453,0.0
490,0.0
515,0.0
516,0.0
542,0.0
592,4759720.858689582
632,32744863.195776686
686,1.0
687,1.0
688,2.0
2,21, 1,21, 0, 5,10.00,20.00,Monday
250,-0.11806556316262659
251,37764723.147539936
336,0.0
385,23.324365147006898
386,27.63801626564363
387,-0.9290127534878595
388,0.0
425,0.0
450,0.0
451,0.0
452,-1.598486534915884
453,0.0
490,0.0
515,0.0
516,0.0
542,0.0
592,4746877.262331866
632,32758983.787003703
686,1.0
687,1.0
688,2.0
2,21, 1,21, 0, 5,20.00,30.00,Monday
250,-0.11801069670192464
251,37766027.63773336
336,0.0
385,23.324365147006898
386,27.63801626564363
387,-0.9295238297417482
388,0.0
425,0.0
450,0.0
451,0.0
452,-1.5860267574938394
453,0.0
490,0.0
515,0.0
516,0.0
542,0.0
592,4734028.534436011
632,32773137.226167142
686,1.0
687,1.0
688,2.0
2,21, 1,21, 0, 5,30.00,40.00,Monday
250,-0.11795629257452048
251,37767320.46544522
336,0.0
385,23.324365147006898
386,27.63801626564363
387,-0.9302969258938449
388,0.0
425,0.0
450,0.0
451,0.0
452,-1.5736369303444346
453,0.0
490,0.0
515,0.0
516,0.0
542,0.0
592,4721174.671927155
632,32787283.668397892
686,1.0
687,1.0
688,2.0
2,21, 1,21, 0, 5,40.00,50.00,Monday
250,-0.1179018046951134
251,37768616.033122174
336,0.0
385,23.324365147006898
386,27.63801626564363
387,-0.9311957413643747
388,0.0
425,0.0
450,0.0
451,0.0
452,-1.561385135438102
453,0.0
490,0.0
515,0.0
516,0.0
542,0.0
592,4708315.671727969
632,32801438.28241457
686,1.0
687,1.0
688,2.0
2,21, 1,21, 0, 5,50.00,60.00,Monday
250,-0.11784711368647856
251,37769912.296951056
336,0.0
385,23.324365147006898
386,27.63801626564363
387,-0.9321407174146802
388,0.0
425,0.0
450,0.0
451,0.0
452,-1.5494220833762942
453,0.0
490,0.0
515,0.0
516,0.0
542,0.0
592,4695451.530758674
632,32815598.79766122
686,1.0
687,1.0
688,2.0
2,21, 1,21, 0, 6, 0.00,10.00,Monday
250,-0.11778993828677393
251,37771207.70338625
336,0.0
385,23.324365147006898
386,27.63801626564363
387,-0.9332182050858941
388,0.0
425,0.0
450,0.0
451,0.0
452,-1.5384427484930387
453,0.0
490,0.0
515,0.0
516,0.0
542,0.0
592,4695264.082255858
632,32817082.991930984
686,1.0
687,1.0
688,2.0
2,21, 1,21, 0, 6,10.00,20.00,Monday
250,-0.11774828247683247
251,37771250.57985489
336,0.0
385,23.324365147006898
386,27.63801626564363
387,-0.9345118928938455
388,0.0
425,0.0
450,0.0
451,0.0
452,-1.5292597491325233
453,0.0
490,0.0
515,0.0
516,0.0
542,0.0
592,4695076.569900009
632,32817305.020667
686,1.0
687,1.0
688,2.0
2,21, 1,21, 0, 6,20.00,30.00,Monday
250,-0.11770716373733907
251,37771258.4672757
336,0.0
385,23.324365147006898
386,27.63801626564363
387,-0.9360166444304822
388,0.0
425,0.0
450,0.0
451,0.0
452,-1.5222020535295964
453,0.0
490,0.0
515,0.0
516,0.0
542,0.0
592,4694888.993658494
632,32817500.19503613
686,1.0
687,1.0
688,2.0
2,21, 1,21, 0, 6,30.00,40.00,Monday
250,-0.11766527703707534
251,37771278.4077539
336,0.0
385,23.324365147006898
386,27.63801626564363
387,-0.937690795702228
388,0.0
425,0.0
450,0.0
451,0.0
452,-1.517063291658892
453,0.0
490,0.0
515,0.0
516,0.0
542,0.0
592,4694701.353498662
632,32817708.18938742
686,1.0
687,1.0
688,2.0
2,21, 1,21, 0, 6,40.00,50.00,Monday
250,-0.11762291631759202
251,37771295.8445298
336,0.0
385,23.324365147006898
386,27.63801626564363
387,-0.9395025370227689
388,0.0
425,0.0
450,0.0
451,0.0
452,-1.5133930720003945
453,0.0
490,0.0
515,0.0
516,0.0
542,0.0
592,4694513.649387832
632,32817913.58564514
686,1.0
687,1.0
688,2.0
2,21, 1,21, 0, 6,50.00,60.00,Monday
250,-0.11758000378420057
251,37771312.717962794
336,0.0
385,23.324365147006898
386,27.63801626564363
387,-0.9414347417587909
388,0.0
425,0.0
450,0.0
451,0.0
452,-1.5107707010904572
453,0.0
490,0.0
515,0.0
516,0.0
542,0.0
592,4694325.88129331
632,32818118.524450876
686,1.0
687,1.0
688,2.0
2,21, 1,21, 0, 7, 0.00,10.00,Monday
250,-0.11868170716008818
251,37771946.23920223
336,0.0
385,23.324365147006898
386,27.63801626564363
387,-0.9459120434236254
388,0.0
425,0.0
450,0.0
451,0.0
452,-1.5140626596354043
453,0.0
490,0.0
515,0.0
516,0.0
542,0.0
592,4723573.583255435
632,32788887.755283874
686,1.0
687,1.0
688,2.0
2,21, 1,21, 0, 7,10.00,20.00,Monday
250,-0.11865291997703657
251,37769063.473408006
336,0.0
385,23.324365147006898
386,27.63801626564363
387,-0.9551095771135681
388,0.0
425,0.0
450,0.0
451,0.0
452,-1.532739207219208
453,0.0
490,0.0
515,0.0
516,0.0
542,0.0
592,4752837.186047653
632,32757350.36486182
686,1.0
687,1.0
688,2.0
2,21, 1,21, 0, 7,20.00,30.00,Monday
250,-0.11858104270053615
251,37766074.61194077
336,0.0
385,23.324365147006898
386,27.63801626564363
387,-0.9692675620050999
388,0.0
425,0.0
450,0.0
451,0.0
452,-1.5721737724595297
453,0.0
490,0.0
515,0.0
516,0.0
542,0.0
592,4782116.702651945
632,32725105.194030568
686,1.0
687,1.0
688,2.0
2,21, 1,21, 0, 7,30.00,40.00,Monday
250,-0.11852052364836031
251,37763118.98490112
336,0.0
385,23.324365147006898
386,27.63801626564363
387,-0.9874297417337977
388,0.0
425,0.0
450,0.0
451,0.0
452,-1.6299915645605023
453,0.0
490,0.0
515,0.0
516,0.0
542,0.0
592,4811412.146064443
632,32692848.003482442
686,1.0
687,1.0
688,2.0
2,21, 1,21, 0, 7,40.00,50.00,Monday
250,-0.11845675498456303
251,37760154.813329786
336,0.0
385,23.324365147006898
386,27.63801626564363
387,-1.0085163440169784
388,0.0
425,0.0
450,0.0
451,0.0
452,-1.6999379133877068
453,0.0
490,0.0
515,0.0
516,0.0
542,0.0
592,4840723.52929546
632,32660574.19613051
686,1.0
687,1.0
688,2.0
2,21, 1,21, 0, 7,50.00,60.00,Monday
250,-0.11839168860696982
251,37757187.715218164
336,0.0
385,23.324365147006898
386,27.63801626564363
387,-1.0317796495901035
388,0.0
425,0.0
450,0.0
451,0.0
452,-1.7763158778484534
453,0.0
490,0.0
515,0.0
516,0.0
542,0.0
592,4870050.865369484
632,32628280.45806822
686,1.0
687,1.0
688,2.0
2,21, 1,21, 0, 8, 0.00,10.00,Monday
250,0.08209217947774902
251,37646306.474889755
336,0.0
385,23.324365147006898
386,27.63801626564363
387,-1.0278704107719834
388,0.0
425,0.0
450,0.0
451,0.0
452,-1.835277959048969
453,0.0
490,0.0
515,0.0
516,0.0
542,0.0
592,4889730.300311493
632,32605632.443191405
686,1.0
687,1.0
688,2.0
2,21, 1,21, 0, 8,10.00,20.00,Monday
250,0.28277386381910324
251,37540514.82226495
336,0.0
385,23.324365147006898
386,27.63801626564363
387,-0.9862556135549313
388,0.0
425,0.0
450,0.0
451,0.0
452,-1.8264856957519688
453,0.0
490,0.0
515,0.0
516,0.0
542,0.0
592,4909380.719869504
632,32480303.395156473
686,1.0
687,1.0
688,2.0
2,21, 1,21, 0, 8,20.00,30.00,Monday
250,0.4810021638584779
251,37436188.355677724
336,0.0
385,23.324365147006898
386,27.63801626564363
387,-0.9152059721466219
388,0.0
425,0.0
450,0.0
451,0.0
452,-1.7191485563872313
453,0.0
490,0.0
515,0.0
516,0.0
542,0.0
592,4929009.6156952735
632,32355033.844138537
686,1.0
687,1.0
688,2.0
2,21, 1,21, 0, 8,30.00,40.00,Monday
250,0.6799484311692019
251,37331423.14546539
336,0.0
385,23.324365147006898
386,27.63801626564363
387,-0.8248234997367532
388,0.0
425,0.0
450,0.0
451,0.0
452,-1.5237082862418627
453,0.0
490,0.0
515,0.0
516,0.0
542,0.0
592,4952863.6467726575
632,32226808.02631151
686,1.0
687,1.0
688,2.0
2,21, 1,21, 0, 8,40.00,50.00,Monday
250,0.8789845242625399
251,37226210.035695896
336,0.0
385,23.324365147006898
386,27.63801626564363
387,-0.7231093591303822
388,0.0
425,0.0
450,0.0
451,0.0
452,-1.2479721571450348
453,0.0
490,0.0
515,0.0
516,0.0
542,0.0
592,4977062.298687916
632,32097450.32685744
686,1.0
687,1.0
688,2.0
2,21, 1,21, 0, 8,50.00,60.00,Monday
250,1.0788805701597082
251,37121456.14441502
336,0.0
385,23.324365147006898
386,27.63801626564363
387,-0.6271653481578323
388,0.0
425,0.0
450,0.0
451,0.0
452,-0.9348329560219214
453,0.0
490,0.0
515,0.0
516,0.0
542,0.0
592,5001395.306277512
632,31915896.599281892
686,1.0
687,1.0
688,2.0
2,21, 1,21, 0, 9, 0.00,10.00,Monday
250,1.3442401012496636
251,36982476.412683934
336,0.0
385,23.324365147006898
386,27.63801626564363
387,-0.48871233566061767
388,0.0
425,0.0
450,0.0
451,0.0
452,-0.4552890230990917
453,0.0
490,0.0
515,0.0
516,0.0
542,0.0
592,5029363.153609448
632,31765750.816963322
686,1.0
687,1.0
688,2.0
2,21, 1,21, 0, 9,10.00,20.00,Monday
250,1.6093543560297254
251,36842691.49841367
336,0.0
385,23.324365147006898
386,27.63801626564363
387,-0.33785858534817037
388,0.0
425,0.0
450,0.0
451,0.0
452,0.06894697055373508
453,0.0
490,0.0
515,0.0
516,0.0
542,0.0
592,5057356.862312016
632,31597902.697068725
686,1.0
687,1.0
688,2.0
2,21, 1,21, 0, 9,20.00,30.00,Monday
250,1.8746261461579135
251,36702815.69040255
336,0.0
385,23.324365147006898
386,27.63801626564363
387,-0.17795311880446846
388,0.0
425,0.0
450,0.0
451,0.0
452,0.6336327369410261
453,0.0
490,0.0
515,0.0
516,0.0
542,0.0
592,5085392.284952975
632,31430034.157336213
686,1.0
687,1.0
688,2.0
2,21, 1,21, 0, 9,30.00,40.00,Monday
250,2.1398235879109864
251,36562978.26997717
336,0.0
385,23.324365147006898
386,27.63801626564363
387,-0.008230351382905624
388,0.0
425,0.0
450,0.0
451,0.0
452,1.2282621988700817
453,0.0
490,0.0
515,0.0
516,0.0
542,0.0
592,5113485.892141593
632,31262084.45270422
686,1.0
687,1.0
688,2.0
2,21, 1,21, 0, 9,40.00,50.00,Monday
250,2.405361391789788
251,36421982.62067461
336,0.0
385,23.324365147006915
386,27.63801626564365
387,0.13690709647774402
388,0.0
425,0.0
450,0.0
451,0.0
452,1.7300702041669846
453,0.0
490,0.0
515,0.0
516,0.0
542,0.0
592,5141654.529350725
632,31069179.294047773
686,1.0000000000000009
687,1.0000000000000009
688,2.0000000000000018
2,21, 1,21, 0, 9,50.00,60.00,Monday
250,2.6710237246852495
251,36281353.50982338
336,0.0
385,23.324365147006898
386,27.63801626564363
387,0.2890499912392127
388,0.0
425,0.0
450,0.0
451,0.0
452,2.27066628020117
453,0.0
490,0.0
515,0.0
516,0.0
542,0.0
592,5169915.672059795
632,30925312.34947781
686,1.0
687,1.0
688,2.0
2,21, 1,21, 0,10, 0.00,10.00,Monday
250,3.1325241237931802
251,36036498.01176281
336,0.0
385,23.324365147006898
386,27.63801626564363
387,0.4795083488521845
388,0.0
425,0.0
450,0.0
451,0.0
452,2.8300842010246203
453,0.0
490,0.0
515,0.0
516,0.0
542,0.0
592,5241404.10703412
632,30619243.116242662
686,1.0
687,1.0
688,2.0
2,21, 1,21, 0,10,10.00,20.00,Monday
250,3.5952849124554183
251,35791571.42418936
336,0.0
385,23.324365147006898
386,27.63801626564363
387,0.7705601493370207
388,0.0
425,0.0
450,0.0
451,0.0
452,3.58499841511224
453,0.0
490,0.0
515,0.0
516,0.0
542,0.0
592,5315291.857316207
632,30299647.51503679
686,1.0
687,1.0
688,2.0
2,21, 1,21, 0,10,20.00,30.00,Monday
250,4.058468950671848
251,35545156.5821064
336,0.0
385,23.32436514700689
386,27.638016265643618
387,1.0509637650267765
388,0.0
425,0.0
450,0.0
451,0.0
452,4.2740741592118665
453,0.0
490,0.0
515,0.0
516,0.0
542,0.0
592,5391793.298050372
632,29976849.93610895
686,0.9999999999999996
687,0.9999999999999996
688,1.9999999999999991
2,21, 1,21, 0,10,30.00,40.00,Monday
250,4.521895855707699
251,35298477.69060058
336,0.0
385,23.324365147006908
386,27.63801626564364
387,1.3327428840664632
388,0.0
425,0.0
450,0.0
451,0.0
452,4.975790675586007
453,0.0
490,0.0
515,0.0
516,0.0
542,0.0
592,5471132.199313744
632,29650920.118397903
686,1.0000000000000004
687,1.0000000000000004
688,2.000000000000001
2,21, 1,21, 0,10,40.00,50.00,Monday
250,4.985637447834767
251,35051488.86620566
336,0.0
385,23.324365147006915
386,27.63801626564365
387,1.622891537456097
388,0.0
425,0.0
450,0.0
451,0.0
452,5.739846922206931
453,0.0
490,0.0
515,0.0
516,0.0
542,0.0
592,5553542.375759332
632,29321624.330805033
686,1.0000000000000009
687,1.0000000000000009
688,2.0000000000000018
2,21, 1,21, 0,10,50.00,60.00,Monday
250,5.4494009300688475
251,34804341.19053119
336,0.0
385,23.324365147006915
386,27.63801626564365
387,1.9231249310936989
388,0.0
425,0.0
450,0.0
451,0.0
452,6.56894995587556
453,0.0
490,0.0
515,0.0
516,0.0
542,0.0
592,5639267.778995938
632,28988804.009639896
686,1.0000000000000009
687,1.0000000000000009
688,2.0000000000000018
2,21, 1,21, 0,11, 0.00,10.00,Monday
250,5.732959347453838
251,34653450.575461365
336,0.0
385,23.324365147006898
386,27.63801626564363
387,2.209642373905905
388,0.0
425,0.0
450,0.0
451,0.0
452,7.4241904569686925
453,0.0
490,0.0
515,0.0
516,0.0
542,0.0
592,5689519.861596226
632,28755493.501072776
686,1.0
687,1.0
688,2.0
2,21, 1,21, 0,11,10.00,20.00,Monday
250,6.015510302509051
251,34503039.34689526
336,0.0
385,23.324365147006898
386,27.63801626564363
387,2.4794175351835657
388,0.0
425,0.0
450,0.0
451,0.0
452,8.274738895492758
453,0.0
490,0.0
515,0.0
516,0.0
542,0.0
592,5740969.350869595
632,28553461.911518652
686,1.0
687,1.0
688,2.0
2,21, 1,21, 0,11,20.00,30.00,Monday
250,6.29813347332915
251,34352540.82375392
336,0.0
385,23.32436514700689
386,27.638016265643618
387,2.7515808211404575
388,0.0
425,0.0
450,0.0
451,0.0
452,9.121373395391288
453,0.0
490,0.0
515,0.0
516,0.0
542,0.0
592,5793671.0952822175
632,28350290.93941143
686,0.9999999999999996
687,0.9999999999999996
688,1.9999999999999991
2,21, 1,21, 0,11,30.00,40.00,Monday
250,6.580383614497636
251,34202190.45303381
336,0.0
385,23.324365147006908
386,27.63801626564364
387,3.028917618968412
388,0.0
425,0.0
450,0.0
451,0.0
452,9.943301103052995
453,0.0
490,0.0
515,0.0
516,0.0
542,0.0
592,5847681.427966583
632,28145880.471664816
686,1.0000000000000004
687,1.0000000000000004
688,2.000000000000001
2,21, 1,21, 0,11,40.00,50.00,Monday
250,6.862470878485303
251,34051874.0955895
336,0.0
385,23.324365147006915
386,27.63801626564365
387,3.308026430297928
388,0.0
425,0.0
450,0.0
451,0.0
452,10.688851571970115
453,0.0
490,0.0
515,0.0
516,0.0
542,0.0
592,5903058.082199926
632,27940175.99526688
686,1.0000000000000009
687,1.0000000000000009
688,2.0000000000000018
2,21, 1,21, 0,11,50.00,60.00,Monday
250,7.144338118169575
251,33901621.10789575
336,0.0
385,23.324365147006915
386,27.63801626564365
387,3.585054513263662
388,0.0
425,0.0
450,0.0
451,0.0
452,11.324594817018308
453,0.0
490,0.0
515,0.0
516,0.0
542,0.0
592,5959860.237244541
632,27733099.58386989
686,1.0000000000000009
687,1.0000000000000009
688,2.0000000000000018
2,21, 1,21, 0,12, 0.00,10.00,Monday
250,7.410970485231129
251,33759503.54933743
336,0.0
385,23.324365147006898
386,27.63801626564363
387,3.825050286169568
388,0.0
425,0.0
450,0.0
451,0.0
452,11.823748849851626
453,0.0
490,0.0
515,0.0
516,0.0
542,0.0
592,5991096.197635707
632,27582599.828260113
686,1.0
687,1.0
688,2.0
2,21, 1,21, 0,12,10.00,20.00,Monday
250,7.675447166286556
251,33622020.9870899
336,0.0
385,23.324365147006898
386,27.63801626564363
387,4.117440111279642
388,0.0
425,0.0
450,0.0
451,0.0
452,12.387744714868624
453,0.0
490,0.0
515,0.0
516,0.0
542,0.0
592,7572016.881221027
632,25862291.97023817
686,1.0
687,1.0
688,2.0
2,21, 1,21, 0,12,20.00,30.00,Monday
250,7.9410222992052475
251,33482240.046848435
336,0.0
385,23.324365147006898
386,27.63801626564363
387,4.3865603827258415
388,0.0
425,0.0
450,0.0
451,0.0
452,12.903091536362219
453,0.0
490,0.0
515,0.0
516,0.0
542,0.0
592,7609409.155487606
632,25685396.70065932
686,1.0
687,1.0
688,2.0
2,21, 1,21, 0,12,30.00,40.00,Monday
250,8.206445428361711
251,33342542.96181507
336,0.0
385,23.324365147006898
386,27.63801626564363
387,4.645374922032435
388,0.0
425,0.0
450,0.0
451,0.0
452,13.394655543313839
453,0.0
490,0.0
515,0.0
516,0.0
542,0.0
592,7646583.592010484
632,25508484.116989493
686,1.0
687,1.0
688,2.0
2,21, 1,21, 0,12,40.00,50.00,Monday
250,8.471819079293017
251,33202872.20637576
336,0.0
385,23.324365147006898
386,27.63801626564363
387,4.899803155517853
388,0.0
425,0.0
450,0.0
451,0.0
452,13.83652240759676
453,0.0
490,0.0
515,0.0
516,0.0
542,0.0
592,7683540.190789655
632,25331843.508012712
686,1.0
687,1.0
688,2.0
2,21, 1,21, 0,12,50.00,60.00,Monday
250,8.73717679335687
251,33063209.254960682
336,0.0
385,23.324365147006898
386,27.63801626564363
387,5.1487523032723725
388,0.0
425,0.0
450,0.0
451,0.0
452,14.204339256174787
453,0.0
490,0.0
515,0.0
516,0.0
542,0.0
592,7720278.951825122
632,25155438.002492115
686,1.0
687,1.0
688,2.0
2,21, 1,21, 0,13, 0.00,10.00,Monday
250,8.919910375833316
251,32964726.934461538
336,0.0
385,23.324365147006898
386,27.63801626564363
387,5.381141245534369
388,0.0
425,0.0
450,0.0
451,0.0
452,14.495609040412994
453,0.0
490,0.0
515,0.0
516,0.0
542,0.0
592,7745410.487127082
632,25055921.723389614
686,1.0
687,1.0
688,2.0
2,21, 1,21, 0,13,10.00,20.00,Monday
250,9.102016333179506
251,32870452.505896326
336,0.0
385,23.324365147006898
386,27.63801626564363
387,5.599928455557548
388,0.0
425,0.0
450,0.0
451,0.0
452,14.724861230466129
453,0.0
490,0.0
515,0.0
516,0.0
542,0.0
592,7770439.060057999
632,24939415.997815385
686,1.0
687,1.0
688,2.0
2,21, 1,21, 0,13,20.00,30.00,Monday
250,9.284959056656337
251,32775875.28525307
336,0.0
385,23.324365147006898
386,27.63801626564363
387,5.804829585305713
388,0.0
425,0.0
450,0.0
451,0.0
452,14.908032402213834
453,0.0
490,0.0
515,0.0
516,0.0
542,0.0
592,7795364.67061786
632,24820377.381658453
686,1.0
687,1.0
688,2.0
2,21, 1,21, 0,13,30.00,40.00,Monday
250,9.467671181274154
251,32681450.877094503
336,0.0
385,23.324365147006898
386,27.63801626564363
387,5.999864295049269
388,0.0
425,0.0
450,0.0
451,0.0
452,15.056910854288446
453,0.0
490,0.0
515,0.0
516,0.0
542,0.0
592,7820187.318806683
632,24701018.546298657
686,1.0
687,1.0
688,2.0
2,21, 1,21, 0,13,40.00,50.00,Monday
250,9.65032661077639
251,32587090.68866845
336,0.0
385,23.324365147006898
386,27.63801626564363
387,6.188782309556489
388,0.0
425,0.0
450,0.0
451,0.0
452,15.176224982986136
453,0.0
490,0.0
515,0.0
516,0.0
542,0.0
592,7844907.004624449
632,24581920.942451186
686,1.0
687,1.0
688,2.0
2,21, 1,21, 0,13,50.00,60.00,Monday
250,9.832999618076444
251,32492754.114934344
336,0.0
385,23.324365147006898
386,27.63801626564363
387,6.372883934415083
388,0.0
425,0.0
450,0.0
451,0.0
452,15.269615118704941
453,0.0
490,0.0
515,0.0
516,0.0
542,0.0
592,7869523.728071173
632,24462990.196877003
686,1.0
687,1.0
688,2.0
2,21, 1,21, 0,14, 0.00,10.00,Monday
250,10.032859296206587
251,32389167.921363115
336,0.0
385,23.324365147006898
386,27.63801626564363
387,6.555007257890402
388,0.0
425,0.0
450,0.0
451,0.0
452,15.325688260816976
453,0.0
490,0.0
515,0.0
516,0.0
542,0.0
592,7896260.907308879
632,24341962.84792845
686,1.0
687,1.0
688,2.0
2,21, 1,21, 0,14,10.00,20.00,Monday
250,10.23210785186418
251,32285520.85167305
336,0.0
385,23.324365147006898
386,27.63801626564363
387,6.7352839474160024
388,0.0
425,0.0
450,0.0
451,0.0
452,15.326131491050427
453,0.0
490,0.0
515,0.0
516,0.0
542,0.0
592,7922875.552815757
632,24211384.291355513
686,1.0
687,1.0
688,2.0
2,21, 1,21, 0,14,20.00,30.00,Monday
250,10.431156569705538
251,32181989.34534494
336,0.0
385,23.324365147006898
386,27.63801626564363
387,6.911557313772023
388,0.0
425,0.0
450,0.0
451,0.0
452,15.27048271078037
453,0.0
490,0.0
515,0.0
516,0.0
542,0.0
592,7949367.664591794
632,24081266.06029709
686,1.0
687,1.0
688,2.0
2,21, 1,21, 0,14,30.00,40.00,Monday
250,10.630079147542654
251,32078552.306111645
336,0.0
385,23.324365147006898
386,27.63801626564363
387,7.077876729388652
388,0.0
425,0.0
450,0.0
451,0.0
452,15.148218988863963
453,0.0
490,0.0
515,0.0
516,0.0
542,0.0
592,7975737.242637001
632,23951404.800894197
686,1.0
687,1.0
688,2.0
2,21, 1,21, 0,14,40.00,50.00,Monday
250,10.828888011468344
251,31975198.38165162
336,0.0
385,23.324365147006898
386,27.63801626564363
387,7.230548682400926
388,0.0
425,0.0
450,0.0
451,0.0
452,14.939619865119889
453,0.0
490,0.0
515,0.0
516,0.0
542,0.0
592,8001984.286951375
632,23821756.051279444
686,1.0
687,1.0
688,2.0
2,21, 1,21, 0,14,50.00,60.00,Monday
250,11.02761994768616
251,31871908.36291543
336,0.0
385,23.324365147006898
386,27.63801626564363
387,7.369862952054235
388,0.0
425,0.0
450,0.0
451,0.0
452,14.647726961755811
453,0.0
490,0.0
515,0.0
516,0.0
542,0.0
592,8028108.797534912
632,23692313.774063345
686,1.0
687,1.0
688,2.0
2,21, 1,21, 0,15, 0.00,10.00,Monday
250,11.292657764358982
251,31733537.02933092
336,0.0
385,23.324365147006898
386,27.63801626564363
387,7.490822880430894
388,0.0
425,0.0
450,0.0