Program Version,EnergyPlus, Version 24.2.0-94a887817b, YMD=2025.02.04 15:39
1,5,Environment Title[],Latitude[deg],Longitude[deg],Time Zone[],Elevation[m]
2,8,Day of Simulation[],Month[],Day of Month[],DST Indicator[1=yes 0=no],Hour[],StartMinute[],EndMinute[],DayType
3,5,Cumulative Day of Simulation[],Month[],Day of Month[],DST Indicator[1=yes 0=no],DayType  ! When Daily Report Variables Requested
4,2,Cumulative Days of Simulation[],Month[]  ! When Monthly Report Variables Requested
5,1,Cumulative Days of Simulation[] ! When Run Period Report Variables Requested
6,1,Calendar Year of Simulation[] ! When Annual Report Variables Requested
250,1,LIVING ZONE,Zone Air Temperature [C] !TimeStep,REPORTSCH
251,1,LIVING ZONE,Zone Air System Sensible Heating Energy [J] !TimeStep,REPORTSCH
336,1,LIVING ZONE,Zone Air System Sensible Cooling Energy [J] !TimeStep,REPORTSCH
385,1,LIVING ZONE,Zone Thermostat Heating Setpoint Temperature [C] !TimeStep,REPORTSCH
386,1,LIVING ZONE,Zone Thermostat Cooling Setpoint Temperature [C] !TimeStep,REPORTSCH
387,1,GARAGE ZONE,Zone Air Temperature [C] !TimeStep,REPORTSCH
388,1,GARAGE ZONE,Zone Air System Sensible Heating Energy [J] !TimeStep,REPORTSCH
425,1,GARAGE ZONE,Zone Air System Sensible Cooling Energy [J] !TimeStep,REPORTSCH
450,1,GARAGE ZONE,Zone Thermostat Heating Setpoint Temperature [C] !TimeStep,REPORTSCH
451,1,GARAGE ZONE,Zone Thermostat Cooling Setpoint Temperature [C] !TimeStep,REPORTSCH
452,1,ATTIC ZONE,Zone Air Temperature [C] !TimeStep,REPORTSCH
453,1,ATTIC ZONE,Zone Air System Sensible Heating Energy [J] !TimeStep,REPORTSCH
490,1,ATTIC ZONE,Zone Air System Sensible Cooling Energy [J] !TimeStep,REPORTSCH
515,1,ATTIC ZONE,Zone Thermostat Heating Setpoint Temperature [C] !TimeStep,REPORTSCH
516,1,ATTIC ZONE,Zone Thermostat Cooling Setpoint Temperature [C] !TimeStep,REPORTSCH
542,1,ACDXCOIL 1,Cooling Coil Total Cooling Energy [J] !TimeStep,REPORTSCH
592,1,HEAT PUMP DX HEATING COIL 1,Heating Coil Heating Energy [J] !TimeStep,REPORTSCH
632,1,SUPP HEATING COIL 1,Heating Coil Heating Energy [J] !TimeStep,REPORTSCH
686,1,TWOSPEED HEAT PUMP 1,Unitary System DX Coil Cycling Ratio [] !TimeStep,REPORTSCH
687,1,TWOSPEED HEAT PUMP 1,Unitary System DX Coil Speed Ratio [] !TimeStep,REPORTSCH
688,1,TWOSPEED HEAT PUMP 1,Unitary System DX Coil Speed Level [] !TimeStep,REPORTSCH
End of Data Dictionary
1,RUN PERIOD 1,  41.98, -87.92,  -6.00, 201.00
2,21, 1,21, 0, 1, 0.00,10.00,Monday
250,-0.7951049275428844
251,38098014.47616198
336,0.0
385,18.35869890365077
386,27.627897873959316
387,-0.946818083736692
388,0.0
425,0.0
450,0.0
451,0.0
452,-1.9741290548373898
453,0.0
490,0.0
515,0.0
516,0.0
542,0.0
592,4839743.9850796405
632,33000000.0
686,1.0
687,1.0
688,2.0
2,21, 1,21, 0, 1,10.00,20.00,Monday
250,-0.7952762773820465
251,38082785.34448019
336,0.0
385,18.35869890365077
386,27.627897873959316
387,-0.9551806183803486
388,0.0
425,0.0
450,0.0
451,0.0
452,-1.9559872844250992
453,0.0
490,0.0
515,0.0
516,0.0
542,0.0
592,4823801.676011796
632,33000000.0
686,1.0
687,1.0
688,2.0
2,21, 1,21, 0, 1,20.00,30.00,Monday
250,-0.7954978924161874
251,38066868.89500205
336,0.0
385,18.35869890365077
386,27.627897873959316
387,-0.9647780261791766
388,0.0
425,0.0
450,0.0
451,0.0
452,-1.952908043274939
453,0.0
490,0.0
515,0.0
516,0.0
542,0.0
592,4807858.162905219
632,33000000.0
686,1.0
687,1.0
688,2.0
2,21, 1,21, 0, 1,30.00,40.00,Monday
250,-0.7957128056769205
251,38050920.574926056
336,0.0
385,18.35869890365077
386,27.627897873959316
387,-0.9758150288734659
388,0.0
425,0.0
450,0.0
451,0.0
452,-1.9657804113269113
453,0.0
490,0.0
515,0.0
516,0.0
542,0.0
592,4791913.445623511
632,33000000.0
686,1.0
687,1.0
688,2.0
2,21, 1,21, 0, 1,40.00,50.00,Monday
250,-0.7959295246761328
251,38034975.63053608
336,0.0
385,18.35869890365077
386,27.627897873959316
387,-0.9884489348690619
388,0.0
425,0.0
450,0.0
451,0.0
452,-1.992983678492753
453,0.0
490,0.0
515,0.0
516,0.0
542,0.0
592,4775967.524030239
632,33000000.0
686,1.0
687,1.0
688,2.0
2,21, 1,21, 0, 1,50.00,60.00,Monday
250,-0.7961469256010155
251,38019028.87671481
336,0.0
385,18.35869890365077
386,27.627897873959316
387,-1.0028685480179305
388,0.0
425,0.0
450,0.0
451,0.0
452,-2.032988576629732
453,0.0
490,0.0
515,0.0
516,0.0
542,0.0
592,4760020.397988958
632,33000000.0
686,1.0
687,1.0
688,2.0
2,21, 1,21, 0, 2, 0.00,10.00,Monday
250,-0.7962367238279522
251,38018960.17664336
336,0.0
385,18.35869890365077
386,27.627897873959316
387,-1.0183916630443393
388,0.0
425,0.0
450,0.0
451,0.0
452,-2.0797502294692047
453,0.0
490,0.0
515,0.0
516,0.0
542,0.0
592,4760020.397988956
632,33000000.0
686,1.0
687,1.0
688,2.0
2,21, 1,21, 0, 2,10.00,20.00,Monday
250,-0.7963232410672634
251,38018958.41008526
336,0.0
385,18.35869890365077
386,27.627897873959316
387,-1.0340756258148205
388,0.0
425,0.0
450,0.0
451,0.0
452,-2.122479529397398
453,0.0
490,0.0
515,0.0
516,0.0
542,0.0
592,4760020.397988958
632,33000000.0
686,1.0
687,1.0
688,2.0
2,21, 1,21, 0, 2,20.00,30.00,Monday
250,-0.7964096251701523
251,38018958.338390484
336,0.0
385,18.35869890365077
386,27.627897873959316
387,-1.0493668867825001
388,0.0
425,0.0
450,0.0
451,0.0
452,-2.1539468618185
453,0.0
490,0.0
515,0.0
516,0.0
542,0.0
592,4760020.397988958
632,33000000.0
686,1.0
687,1.0
688,2.0
2,21, 1,21, 0, 2,30.00,40.00,Monday
250,-0.7964943233495284
251,38018957.43064056
336,0.0
385,18.35869890365077
386,27.627897873959316
387,-1.0639441047119287
388,0.0
425,0.0
450,0.0
451,0.0
452,-2.1733292932273556
453,0.0
490,0.0
515,0.0
516,0.0
542,0.0
592,4760020.397988956
632,33000000.0
686,1.0
687,1.0
688,2.0
2,21, 1,21, 0, 2,40.00,50.00,Monday
250,-0.7965777496538514
251,38018956.74582443
336,0.0
385,18.35869890365077
386,27.627897873959316
387,-1.0776668067760689
388,0.0
425,0.0
450,0.0
451,0.0
452,-2.183470080312003
453,0.0
490,0.0
515,0.0
516,0.0
542,0.0
592,4760020.397988958
632,33000000.0
686,1.0
687,1.0
688,2.0
2,21, 1,21, 0, 2,50.00,60.00,Monday
250,-0.7966596947811422
251,38018955.948313564
336,0.0
385,18.35869890365077
386,27.627897873959316
387,-1.0904975654285376
388,0.0
425,0.0
450,0.0
451,0.0
452,-2.187517813823617
453,0.0
490,0.0
515,0.0
516,0.0
542,0.0
592,4760020.397988959
632,33000000.0
686,1.0
687,1.0
688,2.0
2,21, 1,21, 0, 3, 0.00,10.00,Monday
250,-0.7144878814355966
251,37977206.51483497
336,0.0
385,18.35869890365077
386,27.627897873959316
387,-1.0920478534943843
388,0.0
425,0.0
450,0.0
451,0.0
452,-2.18004103234272
453,0.0
490,0.0
515,0.0
516,0.0
542,0.0
592,4762558.894114006
632,33000000.0
686,1.0
687,1.0
688,2.0
2,21, 1,21, 0, 3,10.00,20.00,Monday
250,-0.6308968058903456
251,37978870.05022276
336,0.0
385,18.35869890365077
386,27.627897873959316
387,-1.0810061105553137
388,0.0
425,0.0
450,0.0
451,0.0
452,-2.1550636318865877
453,0.0
490,0.0
515,0.0
516,0.0
542,0.0
592,4764988.4357309695
632,33000000.0
686,1.0
687,1.0
688,2.0
2,21, 1,21, 0, 3,20.00,30.00,Monday
250,-0.5478002678778522
251,37981454.284848735
336,0.0
385,18.35869890365077
386,27.627897873959316
387,-1.0617813630189852
388,0.0
425,0.0
450,0.0
451,0.0
452,-2.1111368638127637
453,0.0
490,0.0
515,0.0
516,0.0
542,0.0
592,4767308.250738333
632,33000000.0
686,1.0
687,1.0
688,2.0
2,21, 1,21, 0, 3,30.00,40.00,Monday
250,-0.4648785617268504
251,37945146.03349015
336,0.0
385,18.35869890365077
386,27.627897873959316
387,-1.0381696113368257
388,0.0
425,0.0
450,0.0
451,0.0
452,-2.0513928977562945
453,0.0
490,0.0
515,0.0
516,0.0
542,0.0
592,4769517.689516207
632,32961390.02931499
686,1.0
687,1.0
688,2.0
2,21, 1,21, 0, 3,40.00,50.00,Monday
250,-0.38198791121534925
251,37902102.39459312
336,0.0
385,18.35869890365077
386,27.627897873959316
387,-1.0114780725003258
388,0.0
425,0.0
450,0.0
451,0.0
452,-1.980316186897832
453,0.0
490,0.0
515,0.0
516,0.0
542,0.0
592,4771616.115684971
632,32916233.116695497
686,1.0
687,1.0
688,2.0
2,21, 1,21, 0, 3,50.00,60.00,Monday
250,-0.2990798291675791
251,37859056.2018479
336,0.0
385,18.35869890365077
386,27.627897873959316
387,-0.9814735254414616
388,0.0
425,0.0
450,0.0
451,0.0
452,-1.90152518252664
453,0.0
490,0.0
515,0.0
516,0.0
542,0.0
592,4773602.736238396
632,32871211.579328835
686,1.0
687,1.0
688,2.0
2,21, 1,21, 0, 4, 0.00,10.00,Monday
250,-0.2983853927283195
251,37860294.14668404
336,0.0
385,18.35869890365077
386,27.627897873959316
387,-0.9587452949568207
388,0.0
425,0.0
450,0.0
451,0.0
452,-1.825308335948317
453,0.0
490,0.0
515,0.0
516,0.0
542,0.0
592,4773428.982371633
632,32828347.735338695
686,1.0
687,1.0
688,2.0
2,21, 1,21, 0, 4,10.00,20.00,Monday
250,-0.2987673209991953
251,37860557.909592494
336,0.0
385,18.35869890365077
386,27.627897873959316
387,-0.9461318478346106
388,0.0
425,0.0
450,0.0
451,0.0
452,-1.7607053059549072
453,0.0
490,0.0
515,0.0
516,0.0
542,0.0
592,4773255.169447958
632,32828205.617818188
686,1.0
687,1.0
688,2.0
2,21, 1,21, 0, 4,20.00,30.00,Monday
250,-0.2986239064694552
251,37860511.43059681
336,0.0
385,18.35869890365077
386,27.627897873959316
387,-0.940139080727924
388,0.0
425,0.0
450,0.0
451,0.0
452,-1.7113206649313644
453,0.0
490,0.0
515,0.0
516,0.0
542,0.0
592,4773081.297437259
632,32828615.942905765
686,1.0
687,1.0
688,2.0
2,21, 1,21, 0, 4,30.00,40.00,Monday
250,-0.2985903930010965
251,37860534.08172629
336,0.0
385,18.35869890365077
386,27.627897873959316
387,-0.936897321739984
388,0.0
425,0.0
450,0.0
451,0.0
452,-1.6754953487687525
453,0.0
490,0.0
515,0.0
516,0.0
542,0.0
592,4772907.366309401
632,32828753.33610938
686,1.0
687,1.0
688,2.0
2,21, 1,21, 0, 4,40.00,50.00,Monday
250,-0.2985644838322142
251,37860558.88899025
336,0.0
385,18.35869890365077
386,27.627897873959316
387,-0.9346151333827749
388,0.0
425,0.0
450,0.0
451,0.0
452,-1.6495589824467614
453,0.0
490,0.0
515,0.0
516,0.0
542,0.0
592,4772733.376034233
632,32828948.038234454
686,1.0
687,1.0
688,2.0
2,21, 1,21, 0, 4,50.00,60.00,Monday
250,-0.2985378457408782
251,37860583.17548571
336,0.0
385,18.35869890365077
386,27.627897873959316
387,-0.9331098541474595
388,0.0
425,0.0
450,0.0
451,0.0
452,-1.6304533228725784
453,0.0
490,0.0
515,0.0
516,0.0
542,0.0
592,4772559.326581575
632,32829146.766771525
686,1.0
687,1.0
688,2.0
2,21, 1,21, 0, 5, 0.00,10.00,Monday
250,-0.2985128184095572
251,37860608.36790019
336,0.0
385,18.35869890365077
386,27.627897873959316
387,-0.9324361263876222
388,0.0
425,0.0
450,0.0
451,0.0
452,-1.6155628537035382
453,0.0
490,0.0
515,0.0
516,0.0
542,0.0
592,4759720.858689581
632,32842009.559587058
686,1.0
687,1.0
688,2.0
2,21, 1,21, 0, 5,10.00,20.00,Monday
250,-0.29847822660182693
251,37861900.81209451
336,0.0
385,18.35869890365077
386,27.627897873959316
387,-0.9324586041770646
388,0.0
425,0.0
450,0.0
451,0.0
452,-1.602576760579418
453,0.0
490,0.0
515,0.0
516,0.0
542,0.0
592,4746877.262331866
632,32856150.751915894
686,1.0
687,1.0
688,2.0
2,21, 1,21, 0, 5,20.00,30.00,Monday
250,-0.29844350549894
251,37863216.04086165
336,0.0
385,18.35869890365077
386,27.627897873959316
387,-0.9329481619268672
388,0.0
425,0.0
450,0.0
451,0.0
452,-1.59009347477618
453,0.0
490,0.0
515,0.0
516,0.0
542,0.0
592,4734028.534436011
632,32870314.77887453
686,1.0
687,1.0
688,2.0
2,21, 1,21, 0, 5,30.00,40.00,Monday
250,-0.29840895876713314
251,37864523.77631149
336,0.0
385,18.35869890365077
386,27.627897873959316
387,-0.9337011013833315
388,0.0
425,0.0
450,0.0
451,0.0
452,-1.5776798471380473
453,0.0
490,0.0
515,0.0
516,0.0
542,0.0
592,4721174.671927156
632,32884476.28356757
686,1.0
687,1.0
688,2.0
2,21, 1,21, 0, 5,40.00,50.00,Monday
250,-0.2983743132582671
251,37865833.58517496
336,0.0
385,18.35869890365077
386,27.627897873959316
387,-0.9345812510452602
388,0.0
425,0.0
450,0.0
451,0.0
452,-1.5654049126559555
453,0.0
490,0.0
515,0.0
516,0.0
542,0.0
592,4708315.67172797
632,32898645.1464888
686,1.0
687,1.0
688,2.0
2,21, 1,21, 0, 5,50.00,60.00,Monday
250,-0.2983394761185447
251,37867143.934764765
336,0.0
385,18.35869890365077
386,27.627897873959316
387,-0.9355093586277827
388,0.0
425,0.0
450,0.0
451,0.0
452,-1.5534197795326494
453,0.0
490,0.0
515,0.0
516,0.0
542,0.0
592,4695451.530758674
632,32912819.740927473
686,1.0
687,1.0
688,2.0
2,21, 1,21, 0, 6, 0.00,10.00,Monday
250,-0.2983029821896288
251,37868453.89989166
336,0.0
385,18.35869890365077
386,27.627897873959316
387,-0.9365721440480703
388,0.0
425,0.0
450,0.0
451,0.0
452,-1.542421223264719
453,0.0
490,0.0
515,0.0
516,0.0
542,0.0
592,4695264.08225586
632,32914318.04769916
686,1.0
687,1.0
688,2.0
2,21, 1,21, 0, 6,10.00,20.00,Monday
250,-0.29827631205862437
251,37868495.54996934
336,0.0
385,18.35869890365077
386,27.627897873959316
387,-0.9378530364024451
388,0.0
425,0.0
450,0.0
451,0.0
452,-1.533223125199829
453,0.0
490,0.0
515,0.0
516,0.0
542,0.0
592,4695076.569900009
632,32914541.918247562
686,1.0
687,1.0
688,2.0
2,21, 1,21, 0, 6,20.00,30.00,Monday
250,-0.2982498744832304
251,37868514.97555814
336,0.0
385,18.35869890365077
386,27.627897873959316
387,-0.9393462458340138
388,0.0
425,0.0
450,0.0
451,0.0
452,-1.5261506054121496
453,0.0
490,0.0
515,0.0
516,0.0
542,0.0
592,4694888.993658494
632,32914748.794816755
686,1.0
687,1.0
688,2.0
2,21, 1,21, 0, 6,30.00,40.00,Monday
250,-0.29822324916081544
251,37868542.4392855
336,0.0
385,18.35869890365077
386,27.627897873959316
387,-0.941009617687667
388,0.0
425,0.0
450,0.0
451,0.0
452,-1.5209960567583845
453,0.0
490,0.0
515,0.0
516,0.0
542,0.0
592,4694701.353498662
632,32914963.99985602
686,1.0
687,1.0
688,2.0
2,21, 1,21, 0, 6,40.00,50.00,Monday
250,-0.2981963966288193
251,37868568.193653114
336,0.0
385,18.35869890365077
386,27.627897873959316
387,-0.9428111519652972
388,0.0
425,0.0
450,0.0
451,0.0
452,-1.517310389805713
453,0.0
490,0.0
515,0.0
516,0.0
542,0.0
592,4694513.649387832
632,32915177.580744047
686,1.0
687,1.0
688,2.0
2,21, 1,21, 0, 6,50.00,60.00,Monday
250,-0.2981692654146109
251,37868593.69582226
336,0.0
385,18.35869890365077
386,27.627897873959316
387,-0.944733668935333
388,0.0
425,0.0
450,0.0
451,0.0
452,-1.514673906618049
453,0.0
490,0.0
515,0.0
516,0.0
542,0.0
592,4694325.881293308
632,32915391.00114506
686,1.0
687,1.0
688,2.0
2,21, 1,21, 0, 7, 0.00,10.00,Monday
250,-0.2988606144768181
251,37869006.267559275
336,0.0
385,18.35869890365077
386,27.627897873959316
387,-0.9491990464487381
388,0.0
425,0.0
450,0.0
451,0.0
452,-1.5179543327194747
453,0.0
490,0.0
515,0.0
516,0.0
542,0.0
592,4723573.583255435
632,32886168.835728146
686,1.0
687,1.0
688,2.0
2,21, 1,21, 0, 7,10.00,20.00,Monday
250,-0.29883704782535475
251,37866097.13126576
336,0.0
385,18.35869890365077
386,27.627897873959316
387,-0.9583805281807395
388,0.0
425,0.0
450,0.0
451,0.0
452,-1.536625613101861
453,0.0
490,0.0
515,0.0
516,0.0
542,0.0
592,4752837.186047653
632,32854381.210698966
686,1.0
687,1.0
688,2.0
2,21, 1,21, 0, 7,20.00,30.00,Monday
250,-0.2987944039701053
251,37863124.609713085
336,0.0
385,18.35869890365077
386,27.627897873959316
387,-0.9725189175036445
388,0.0
425,0.0
450,0.0
451,0.0
452,-1.5760573425236841
453,0.0
490,0.0
515,0.0
516,0.0
542,0.0
592,4782116.702651945
632,32822139.44658779
686,1.0
687,1.0
688,2.0
2,21, 1,21, 0, 7,30.00,40.00,Monday
250,-0.29875602558048603
251,37860171.52335263
336,0.0
385,18.35869890365077
386,27.627897873959316
387,-0.9906593665554063
388,0.0
425,0.0
450,0.0
451,0.0
452,-1.6338650178927254
453,0.0
490,0.0
515,0.0
516,0.0
542,0.0
592,4811412.146064445
632,32789888.61782239
686,1.0
687,1.0
688,2.0
2,21, 1,21, 0, 7,40.00,50.00,Monday
250,-0.2987160790680071
251,37857212.316035144
336,0.0
385,18.35869890365077
386,27.627897873959316
387,-1.0117232204528208
388,0.0
425,0.0
450,0.0
451,0.0
452,-1.7037938403926545
453,0.0
490,0.0
515,0.0
516,0.0
542,0.0
592,4840723.5292954575
632,32757618.870134458
686,1.0
687,1.0
688,2.0
2,21, 1,21, 0, 7,50.00,60.00,Monday
250,-0.2986755403774439
251,37854250.93379874
336,0.0
385,18.35869890365077
386,27.627897873959316
387,-1.0349635550621163
388,0.0
425,0.0
450,0.0
451,0.0
452,-1.7801512598519529
453,0.0
490,0.0
515,0.0
516,0.0
542,0.0
592,4870050.865369484
632,32725330.46902819
686,1.0
687,1.0
688,2.0
2,21, 1,21, 0, 8, 0.00,10.00,Monday
250,-0.09838211264680469
251,37743464.72334442
336,0.0
385,18.35869890365077
386,27.627897873959316
387,-1.031079226061575
388,0.0
425,0.0
450,0.0
451,0.0
452,-1.8391015426747688
453,0.0
490,0.0
515,0.0
516,0.0
542,0.0
592,4889730.300311495
632,32702688.107230585
686,1.0
687,1.0
688,2.0
2,21, 1,21, 0, 8,10.00,20.00,Monday
250,0.10201439283005555
251,37637871.45055398
336,0.0
385,18.35869890365077
386,27.627897873959316
387,-0.9895504948521567
388,0.0
425,0.0
450,0.0
451,0.0
452,-1.8302561718762904
453,0.0
490,0.0
515,0.0
516,0.0
542,0.0
592,4909380.719869504
632,32577506.530722864
686,1.0
687,1.0
688,2.0
2,21, 1,21, 0, 8,20.00,30.00,Monday
250,0.30094088989836837
251,37533160.75878916
336,0.0
385,18.35869890365077
386,27.627897873959316
387,-0.9185492199601624
388,0.0
425,0.0
450,0.0
451,0.0
452,-1.7228402577631687
453,0.0
490,0.0
515,0.0
516,0.0
542,0.0
592,4929009.6156952735
632,32452382.253750037
686,1.0
687,1.0
688,2.0
2,21, 1,21, 0, 8,30.00,40.00,Monday
250,0.5002793213635768
251,37428193.83305228
336,0.0
385,18.35869890365077
386,27.627897873959316
387,-0.8282731331021024
388,0.0
425,0.0
450,0.0
451,0.0
452,-1.527236762564505
453,0.0
490,0.0
515,0.0
516,0.0
542,0.0
592,4952863.6467726575
632,32323789.943848286
686,1.0
687,1.0
688,2.0
2,21, 1,21, 0, 8,40.00,50.00,Monday
250,0.6996861656912785
251,37322783.71846088
336,0.0
385,18.35869890365077
386,27.627897873959316
387,-0.7266845408213716
388,0.0
425,0.0
450,0.0
451,0.0
452,-1.251719806582711
453,0.0
490,0.0
515,0.0
516,0.0
542,0.0
592,4977062.298687916
632,32194223.711533275
686,1.0
687,1.0
688,2.0
2,21, 1,21, 0, 8,50.00,60.00,Monday
250,0.8996467529778829
251,37218008.02899539
336,0.0
385,18.35869890365077
386,27.627897873959316
387,-0.6308119444927451
388,0.0
425,0.0
450,0.0
451,0.0
452,-0.9387720984818311
453,0.0
490,0.0
515,0.0
516,0.0
542,0.0
592,5001395.306277512
632,32012139.832241673
686,1.0
687,1.0
688,2.0
2,21, 1,21, 0, 9, 0.00,10.00,Monday
250,1.1654758872821342
251,37078798.485660896
336,0.0
385,18.35869890365077
386,27.627897873959316
387,-0.49243695143228133
388,0.0
425,0.0
450,0.0
451,0.0
452,-0.459369903484874
453,0.0
490,0.0
515,0.0
516,0.0
542,0.0
592,5029363.153609448
632,31861634.81224549
686,1.0
687,1.0
688,2.0
2,21, 1,21, 0, 9,10.00,20.00,Monday
250,1.4311678174231068
251,36938709.16346733
336,0.0
385,18.35869890365077
386,27.627897873959316
387,-0.34166361032407977
388,0.0
425,0.0
450,0.0
451,0.0
452,0.06485439160989269
453,0.0
490,0.0
515,0.0
516,0.0
542,0.0
592,5057356.862312016
632,31693520.367285088
686,1.0
687,1.0
688,2.0
2,21, 1,21, 0, 9,20.00,30.00,Monday
250,1.6969629767339425
251,36798559.760582805
336,0.0
385,18.35869890365077
386,27.627897873959316
387,-0.18175772001825724
388,0.0
425,0.0
450,0.0
451,0.0
452,0.6295545321220224
453,0.0
490,0.0
515,0.0
516,0.0
542,0.0
592,5085392.284952975
632,31525363.94788616
686,1.0
687,1.0
688,2.0
2,21, 1,21, 0, 9,30.00,40.00,Monday
250,1.9627098720114846
251,36658434.31614397
336,0.0
385,18.35869890365077
386,27.627897873959316
387,-0.01199945258249306
388,0.0
425,0.0
450,0.0
451,0.0
452,1.2241919239429273
453,0.0
490,0.0
515,0.0
516,0.0
542,0.0
592,5113485.892141593
632,31357132.98149486
686,1.0
687,1.0
688,2.0
2,21, 1,21, 0, 9,40.00,50.00,Monday
250,2.228670302064215
251,36517201.09033439
336,0.0
385,18.358698903650783
386,27.627897873959334
387,0.13318422247993345
388,0.0
425,0.0
450,0.0
451,0.0
452,1.7259044816439881
453,0.0
490,0.0
515,0.0
516,0.0
542,0.0
592,5141654.529350725
632,31164430.966560148
686,1.0000000000000009
687,1.0000000000000009
688,2.0000000000000018
2,21, 1,21, 0, 9,50.00,60.00,Monday
250,2.4947553718700792
251,36376358.36144486
336,0.0
385,18.35869890365077
386,27.627897873959316
387,0.28534720381382533
388,0.0
425,0.0
450,0.0
451,0.0
452,2.266417715791087
453,0.0
490,0.0
515,0.0
516,0.0
542,0.0
592,5169915.672059795
632,31019999.07579663
686,1.0
687,1.0
688,2.0
2,21, 1,21, 0,10, 0.00,10.00,Monday
250,2.9581642156738064
251,36130476.67511045
336,0.0
385,18.35869890365077
386,27.627897873959316
387,0.47583277783449623
388,0.0
425,0.0
450,0.0
451,0.0
452,2.825731776777218
453,0.0
490,0.0
515,0.0
516,0.0
542,0.0
592,5241404.10703412
632,30713469.616817135
686,1.0
687,1.0
688,2.0
2,21, 1,21, 0,10,10.00,20.00,Monday
250,3.4224273148730022
251,35884756.65039688
336,0.0
385,18.35869890365077
386,27.627897873959313
387,0.766883394697516
388,0.0
425,0.0
450,0.0
451,0.0
452,3.5806341102476638
453,0.0
490,0.0
515,0.0
516,0.0
542,0.0
592,5315291.857316207
632,30392959.28227569
686,1.0
687,1.0
688,2.0
2,21, 1,21, 0,10,20.00,30.00,Monday
250,3.886928193432873
251,35637640.05446438
336,0.0
385,18.35869890365076
386,27.627897873959306
387,1.0472644642925144
388,0.0
425,0.0
450,0.0
451,0.0
452,4.269567949725788
453,0.0
490,0.0
515,0.0
516,0.0
542,0.0
592,5391793.298050373
632,30069426.34999092
686,0.9999999999999996
687,0.9999999999999996
688,1.9999999999999991
2,21, 1,21, 0,10,30.00,40.00,Monday
250,4.351572063196748
251,35390312.643030606
336,0.0
385,18.358698903650776
386,27.627897873959327
387,1.3290242723133663
388,0.0
425,0.0
450,0.0
451,0.0
452,4.971463832540879
453,0.0
490,0.0
515,0.0
516,0.0
542,0.0
592,5471132.199313744
632,29742830.28111404
686,1.0000000000000004
687,1.0000000000000004
688,2.000000000000001
2,21, 1,21, 0,10,40.00,50.00,Monday
250,4.816417065593512
251,35142736.11491691
336,0.0
385,18.358698903650783
386,27.627897873959334
387,1.6191562343732975
388,0.0
425,0.0
450,0.0
451,0.0
452,5.73556206476524
453,0.0
490,0.0
515,0.0
516,0.0
542,0.0
592,5553542.3757593315
632,29412926.527795404
686,1.0000000000000009
687,1.0000000000000009
688,2.0000000000000018
2,21, 1,21, 0,10,50.00,60.00,Monday
250,5.281273104062347
251,34895006.164853334
336,0.0
385,18.358698903650783
386,27.627897873959334
387,1.9193741009681125
388,0.0
425,0.0
450,0.0
451,0.0
452,6.5646174310457575
453,0.0
490,0.0
515,0.0
516,0.0
542,0.0
592,5639267.778995938
632,29079522.197814114
686,1.0000000000000009
687,1.0000000000000009
688,2.0000000000000018
2,21, 1,21, 0,11, 0.00,10.00,Monday
250,5.5647553048199185
251,34744156.78670308
336,0.0
385,18.35869890365077
386,27.627897873959316
387,2.2058773992045904
388,0.0
425,0.0
450,0.0
451,0.0
452,7.419837883110353
453,0.0
490,0.0
515,0.0
516,0.0
542,0.0
592,5689519.861596226
632,28846093.14268695
686,1.0
687,1.0
688,2.0
2,21, 1,21, 0,11,10.00,20.00,Monday
250,5.847589862792011
251,34593598.08696267
336,0.0
385,18.35869890365077
386,27.627897873959313
387,2.475644013045717
388,0.0
425,0.0
450,0.0
451,0.0
452,8.27035885838373
453,0.0
490,0.0
515,0.0
516,0.0
542,0.0
592,5740969.350869596
632,28643983.715380013
686,1.0
687,1.0
688,2.0
2,21, 1,21, 0,11,20.00,30.00,Monday
250,6.130476440823866
251,34442961.99937684
336,0.0
385,18.35869890365076
386,27.627897873959306
387,2.7478031518743866
388,0.0
425,0.0
450,0.0
451,0.0
452,9.116962889817595
453,0.0
490,0.0
515,0.0
516,0.0
542,0.0
592,5793671.0952822175
632,28440671.82021325
686,0.9999999999999996
687,0.9999999999999996
688,1.9999999999999991
2,21, 1,21, 0,11,30.00,40.00,Monday
250,6.413130069178303
251,34292398.63208841
336,0.0
385,18.358698903650776
386,27.627897873959327
387,3.025137522765954
388,0.0
425,0.0
450,0.0
451,0.0
452,9.938798680927976
453,0.0
490,0.0
515,0.0
516,0.0
542,0.0
592,5847681.427966583
632,28236073.677943073
686,1.0000000000000004
687,1.0000000000000004
688,2.000000000000001
2,21, 1,21, 0,11,40.00,50.00,Monday
250,6.6956832109127715
251,34141835.498459876
336,0.0
385,18.358698903650783
386,27.627897873959334
387,3.3042456967280787
388,0.0
425,0.0
450,0.0
451,0.0
452,10.684351764488252
453,0.0
490,0.0
515,0.0
516,0.0
542,0.0
592,5903058.082199926
632,28030133.75625825
686,1.0000000000000009
687,1.0000000000000009
688,2.0000000000000018
2,21, 1,21, 0,11,50.00,60.00,Monday
250,6.978100471275955
251,33991290.20998213
336,0.0
385,18.358698903650783
386,27.627897873959334
387,3.581275280062917
388,0.0
425,0.0
450,0.0
451,0.0
452,11.320163852870937
453,0.0
490,0.0
515,0.0
516,0.0
542,0.0
592,5959860.237244541
632,27822780.302936435
686,1.0000000000000009
687,1.0000000000000009
688,2.0000000000000018
2,21, 1,21, 0,12, 0.00,10.00,Monday
250,7.244770592050491
251,33849170.04741742
336,0.0
385,18.35869890365077
386,27.627897873959316
387,3.821280594332068
388,0.0
425,0.0
450,0.0
451,0.0
452,11.819281947203716
453,0.0
490,0.0
515,0.0
516,0.0
542,0.0
592,5991096.197635709
632,27671847.52728975
686,1.0
687,1.0
688,2.0
2,21, 1,21, 0,12,10.00,20.00,Monday
250,7.510053189799874
251,33711275.21123473
336,0.0
385,18.35869890365077
386,27.627897873959316
387,4.113674470877383
388,0.0
425,0.0
450,0.0
451,0.0
452,12.383273540008059
453,0.0
490,0.0
515,0.0
516,0.0
542,0.0
592,7572016.881221028
632,25951197.087468684
686,1.0
687,1.0
688,2.0
2,21, 1,21, 0,12,20.00,30.00,Monday
250,7.776028587533711
251,33571288.22977145
336,0.0
385,18.35869890365077
386,27.627897873959316
387,4.382798084886402
388,0.0
425,0.0
450,0.0
451,0.0
452,12.898344405872262
453,0.0
490,0.0
515,0.0
516,0.0
542,0.0
592,7609409.155487606
632,25773995.85620518
686,1.0
687,1.0
688,2.0
2,21, 1,21, 0,12,30.00,40.00,Monday
250,8.041918427207815
251,33431348.707036883
336,0.0
385,18.35869890365077
386,27.627897873959316
387,4.6416183995225735
388,0.0
425,0.0
450,0.0
451,0.0
452,13.390108295619118
453,0.0
490,0.0
515,0.0
516,0.0
542,0.0
592,7646583.592010483
632,25596858.72274331
686,1.0
687,1.0
688,2.0
2,21, 1,21, 0,12,40.00,50.00,Monday
250,8.307778240912418
251,33291425.067830287
336,0.0
385,18.35869890365077
386,27.627897873959316
387,4.896050586641749
388,0.0
425,0.0
450,0.0
451,0.0
452,13.832128455685806
453,0.0
490,0.0
515,0.0
516,0.0
542,0.0
592,7683540.190789655
632,25419970.56298611
686,1.0
687,1.0
688,2.0
2,21, 1,21, 0,12,50.00,60.00,Monday
250,8.573628728806401
251,33151505.67362931
336,0.0
385,18.35869890365077
386,27.627897873959316
387,5.145002649317631
388,0.0
425,0.0
450,0.0
451,0.0
452,14.199913439266497
453,0.0
490,0.0
515,0.0
516,0.0
542,0.0
592,7720278.951825122
632,25243310.380440906
686,1.0
687,1.0
688,2.0
2,21, 1,21, 0,13, 0.00,10.00,Monday
250,8.756584199926982
251,33052854.924220186
336,0.0
385,18.35869890365077
386,27.627897873959316
387,5.377396187866321
388,0.0
425,0.0
450,0.0
451,0.0
452,14.491158373913517
453,0.0
490,0.0
515,0.0
516,0.0
542,0.0
592,7745410.487127085
632,25145269.953600504
686,1.0
687,1.0
688,2.0
2,21, 1,21, 0,13,10.00,20.00,Monday
250,8.93914018255423
251,32958389.002736416
336,0.0
385,18.35869890365077
386,27.627897873959316
387,5.59619142899603
388,0.0
425,0.0
450,0.0
451,0.0
452,14.720419511914638
453,0.0
490,0.0
515,0.0
516,0.0
542,0.0
592,7770439.060057994
632,25027595.467372864
686,1.0
687,1.0
688,2.0
2,21, 1,21, 0,13,20.00,30.00,Monday
250,9.122224003413184
251,32863746.079747412
336,0.0
385,18.35869890365077
386,27.627897873959316
387,5.801101590536662
388,0.0
425,0.0
450,0.0
451,0.0
452,14.903604452066435
453,0.0
490,0.0
515,0.0
516,0.0
542,0.0
592,7795364.670617863
632,24908324.409075286
686,1.0
687,1.0
688,2.0
2,21, 1,21, 0,13,30.00,40.00,Monday
250,9.30514732052034
251,32769219.459207583
336,0.0
385,18.35869890365077
386,27.627897873959316
387,5.996146431588622
388,0.0
425,0.0
450,0.0
451,0.0
452,15.05247780543218
453,0.0
490,0.0
515,0.0
516,0.0
542,0.0
592,7820187.318806681
632,24788901.217174888
686,1.0
687,1.0
688,2.0
2,21, 1,21, 0,13,40.00,50.00,Monday
250,9.488076500047615
251,32674723.205163855
336,0.0
385,18.35869890365077
386,27.627897873959316
387,6.18507626386403
388,0.0
425,0.0
450,0.0
451,0.0
452,15.17180927568181
453,0.0
490,0.0
515,0.0
516,0.0
542,0.0
592,7844907.004624449
632,24669701.342955783
686,1.0
687,1.0
688,2.0
2,21, 1,21, 0,13,50.00,60.00,Monday
250,9.67099901305066
251,32580263.70355818
336,0.0
385,18.35869890365077
386,27.627897873959316
387,6.369191154230353
388,0.0
425,0.0
450,0.0
451,0.0
452,15.265232066469515
453,0.0
490,0.0
515,0.0
516,0.0
542,0.0
592,7869523.72807117
632,24550634.596965477
686,1.0
687,1.0
688,2.0
2,21, 1,21, 0,14, 0.00,10.00,Monday
250,9.870915286100436
251,32476658.90326293
336,0.0
385,18.35869890365077
386,27.627897873959316
387,6.551329980565229
388,0.0
425,0.0
450,0.0
451,0.0
452,15.321344836561009
453,0.0
490,0.0
515,0.0
516,0.0
542,0.0
592,7896260.907308879
632,24429484.47258344
686,1.0
687,1.0
688,2.0
2,21, 1,21, 0,14,10.00,20.00,Monday
250,10.070443832283999
251,32372867.12779318
336,0.0
385,18.35869890365077
386,27.627897873959316
387,6.731624450855782
388,0.0
425,0.0
450,0.0
451,0.0
452,15.321827899921358
453,0.0
490,0.0
515,0.0
516,0.0
542,0.0
592,7922875.552815757
632,24298881.874268714
686,1.0
687,1.0
688,2.0
2,21, 1,21, 0,14,20.00,30.00,Monday
250,10.269850769889928
251,32269154.159631707
336,0.0
385,18.35869890365077
386,27.627897873959316
387,6.907916885733856
388,0.0
425,0.0
450,0.0
451,0.0
452,15.266213961805107
453,0.0
490,0.0
515,0.0
516,0.0
542,0.0
592,7949367.664591796
632,24168624.467667803
686,1.0
687,1.0
688,2.0
2,21, 1,21, 0,14,30.00,40.00,Monday
250,10.469176886749661
251,32165509.9070848
336,0.0
385,18.35869890365077
386,27.627897873959316
387,7.0742551694911695
388,0.0
425,0.0
450,0.0
451,0.0
452,15.143977926310303
453,0.0
490,0.0
515,0.0
516,0.0
542,0.0
592,7975737.242637003
632,24038580.505788963
686,1.0
687,1.0
688,2.0
2,21, 1,21, 0,14,40.00,50.00,Monday
250,10.668430745279199
251,32061926.639796335
336,0.0
385,18.35869890365077
386,27.627897873959316
387,7.2269455819963895
388,0.0
425,0.0
450,0.0
451,0.0
452,14.935398802422181
453,0.0
490,0.0
515,0.0
516,0.0
542,0.0
592,8001984.286951375
632,23908724.843489174
686,1.0
687,1.0
688,2.0
2,21, 1,21, 0,14,50.00,60.00,Monday
250,10.867633839361856
251,31958393.2686051
336,0.0
385,18.35869890365077
386,27.627897873959316
387,7.366278271283368
388,0.0
425,0.0
450,0.0
451,0.0
452,14.643515280613931
453,0.0
490,0.0
515,0.0
516,0.0
542,0.0
592,8028108.797534912
632,23779053.385460895
686,1.0
687,1.0
688,2.0
2,21, 1,21, 0,15, 0.00,10.00,Monday
250,11.133294251754789
251,31819692.23889284
336,0.0
385,18.35869890365077
386,27.627897873959316
387,7.487255493954606
388,0.0
425,0.0
450,0.0
451,0.0
452,14.348192624775422
453,0.0
490,0.0
515,0.0
516,0.0
542,0.0
592,8062750.870287224