Program Version,EnergyPlus, Version 24.2.0-94a887817b, YMD=2025.01.30 19:35
1,5,Environment Title[],Latitude[deg],Longitude[deg],Time Zone[],Elevation[m]
2,8,Day of Simulation[],Month[],Day of Month[],DST Indicator[1=yes 0=no],Hour[],StartMinute[],EndMinute[],DayType
3,5,Cumulative Day of Simulation[],Month[],Day of Month[],DST Indicator[1=yes 0=no],DayType  ! When Daily Meters Requested
4,2,Cumulative Days of Simulation[],Month[]  ! When Monthly Meters Requested
5,1,Cumulative Days of Simulation[] ! When Run Period Meters Requested
6,1,Calendar Year of Simulation[] ! When Annual Meters Requested
11,9,Electricity:Facility [J] !Monthly [Value,Min,Day,Hour,Minute,Max,Day,Hour,Minute]
23,9,Electricity:Building [J] !Monthly [Value,Min,Day,Hour,Minute,Max,Day,Hour,Minute]
59,9,InteriorLights:Electricity [J] !Monthly [Value,Min,Day,Hour,Minute,Max,Day,Hour,Minute]
521,9,Electricity:HVAC [J] !Monthly [Value,Min,Day,Hour,Minute,Max,Day,Hour,Minute]
637,9,NaturalGas:Facility [J] !Monthly [Value,Min,Day,Hour,Minute,Max,Day,Hour,Minute]
649,9,NaturalGas:HVAC [J] !Monthly [Value,Min,Day,Hour,Minute,Max,Day,Hour,Minute]
13,11,Electricity:Facility [J] !RunPeriod [Value,Min,Month,Day,Hour,Minute,Max,Month,Day,Hour,Minute]
25,11,Electricity:Building [J] !RunPeriod [Value,Min,Month,Day,Hour,Minute,Max,Month,Day,Hour,Minute]
61,11,InteriorLights:Electricity [J] !RunPeriod [Value,Min,Month,Day,Hour,Minute,Max,Month,Day,Hour,Minute]
523,11,Electricity:HVAC [J] !RunPeriod [Value,Min,Month,Day,Hour,Minute,Max,Month,Day,Hour,Minute]
639,11,NaturalGas:Facility [J] !RunPeriod [Value,Min,Month,Day,Hour,Minute,Max,Month,Day,Hour,Minute]
651,11,NaturalGas:HVAC [J] !RunPeriod [Value,Min,Month,Day,Hour,Minute,Max,Month,Day,Hour,Minute]
End of Data Dictionary
1,RUN PERIOD 1,  41.98, -87.92,  -6.00, 201.00
4,31, 1
11,9825346102.738256,408891.4285714286, 5, 6,50,2981137.008989587,16,13,60
23,986296001.5072725,30000.0, 1, 1,10,611663.7692081619, 1, 9,10
59,970200000.0,30000.0, 1, 1,10,600000.0, 1, 8,10
521,8839050101.230986,378891.4285714286, 5, 6,50,2369473.239781425,16,13,60
637,179240677133.13696,28369557.004016656,21,16,10,41250000.0, 1, 1,10
649,179240677133.13696,28369557.004016656,21,16,10,41250000.0, 1, 1,10
4,59, 2
11,9358532644.113667,99999999999999.0, 5, 6,50,3022598.449252709,22,15,30
23,862156523.0497984,99999999999999.0, 1, 1,10,-99999999999999.0, 1, 9,10
59,848160000.0,99999999999999.0, 1, 1,10,-99999999999999.0, 1, 8,10
521,8496376121.063895,99999999999999.0, 5, 6,50,2410934.680044547,22,15,30
637,158683198100.0769,26676972.50089517,23,12,10,-99999999999999.0, 1, 1,10
649,158683198100.0769,26676972.50089517,23,12,10,-99999999999999.0, 1, 1,10
4,90, 3
11,10977713875.314646,99999999999999.0, 5, 6,50,3229897.0792805953,27,15,20
23,912176349.2022899,99999999999999.0, 1, 1,10,-99999999999999.0, 1, 9,10
59,897480000.0,99999999999999.0, 1, 1,10,-99999999999999.0, 1, 8,10
521,10065537526.11231,0.0,27,15,30,2618233.3100724337,27,15,20
637,163060207736.14163,0.0,27,15,30,-99999999999999.0, 1, 1,10
649,163060207736.14163,0.0,27,15,30,-99999999999999.0, 1, 1,10
4,120, 4
11,9868153959.543966,30000.0,11,19,10,3233377.283800111,11,12,20
23,944916175.3547809,99999999999999.0, 1, 1,10,-99999999999999.0, 1, 9,10
59,929520000.0,99999999999999.0, 1, 1,10,-99999999999999.0, 1, 8,10
521,8923237784.189247,99999999999999.0,27,15,30,2623373.719886894,15, 8,20
637,120958066883.48459,99999999999999.0,27,15,30,-99999999999999.0, 1, 1,10
649,120958066883.48459,99999999999999.0,27,15,30,-99999999999999.0, 1, 1,10
4,151, 5
11,9646167704.717762,99999999999999.0,11,19,10,3234639.9597986517,31, 9,20
23,986557653.7578499,99999999999999.0, 1, 1,10,627600.6659393017,28,13,10
59,970200000.0,99999999999999.0, 1, 1,10,-99999999999999.0, 1, 8,10
521,8659610050.959854,99999999999999.0,27,15,30,-99999999999999.0,15, 8,20
637,93849366520.97964,99999999999999.0,27,15,30,-99999999999999.0, 1, 1,10
649,93849366520.97964,99999999999999.0,27,15,30,-99999999999999.0, 1, 1,10
4,181, 6
11,8288189348.070621,99999999999999.0,11,19,10,-99999999999999.0,31, 9,20
23,870835688.8678447,99999999999999.0, 1, 1,10,-99999999999999.0,28,13,10
59,856800000.0,99999999999999.0, 1, 1,10,-99999999999999.0, 1, 8,10
521,7417353659.202819,99999999999999.0,27,15,30,-99999999999999.0,15, 8,20
637,42592513932.83632,99999999999999.0,27,15,30,-99999999999999.0, 1, 1,10
649,42592513932.83632,99999999999999.0,27,15,30,-99999999999999.0, 1, 1,10
4,212, 7
11,8102953842.682273,99999999999999.0,11,19,10,-99999999999999.0,31, 9,20
23,986568154.8233751,99999999999999.0, 1, 1,10,-99999999999999.0,28,13,10
59,970200000.0,99999999999999.0, 1, 1,10,-99999999999999.0, 1, 8,10
521,7116385687.858937,99999999999999.0,27,15,30,-99999999999999.0,15, 8,20
637,15530404478.69695,99999999999999.0,27,15,30,-99999999999999.0, 1, 1,10
649,15530404478.69695,99999999999999.0,27,15,30,-99999999999999.0, 1, 1,10
4,243, 8
11,7480142028.884273,99999999999999.0,11,19,10,-99999999999999.0,31, 9,20
23,949514294.7269055,99999999999999.0, 1, 1,10,627697.5090184195,12,14,10
59,933840000.0,99999999999999.0, 1, 1,10,-99999999999999.0, 1, 8,10
521,6530627734.157445,99999999999999.0,27,15,30,2623548.0285898154, 6, 8,20
637,28813931445.739616,99999999999999.0,27,15,30,-99999999999999.0, 1, 1,10
649,28813931445.739616,99999999999999.0,27,15,30,-99999999999999.0, 1, 1,10
4,273, 9
11,8054148929.434104,99999999999999.0,11,19,10,3234928.714908527, 3,10,20
23,907856349.2022896,99999999999999.0, 1, 1,10,-99999999999999.0,12,14,10
59,893160000.0,99999999999999.0, 1, 1,10,-99999999999999.0, 1, 8,10
521,7146292580.231889,99999999999999.0,27,15,30,-99999999999999.0, 6, 8,20
637,65060593525.15622,99999999999999.0,27,15,30,-99999999999999.0, 1, 1,10
649,65060593525.15622,99999999999999.0,27,15,30,-99999999999999.0, 1, 1,10
4,304,10
11,10624188454.822872,99999999999999.0,11,19,10,-99999999999999.0, 3,10,20
23,986313765.2897843,99999999999999.0, 1, 1,10,629427.5517200283,22,16,40
59,970200000.0,99999999999999.0, 1, 1,10,-99999999999999.0, 1, 8,10
521,9637874689.533117,99999999999999.0,27,15,30,-99999999999999.0, 6, 8,20
637,129072207682.96066,99999999999999.0,27,15,30,-99999999999999.0, 1, 1,10
649,129072207682.96066,99999999999999.0,27,15,30,-99999999999999.0, 1, 1,10
4,334,11
11,10464719195.316298,99999999999999.0,11,19,10,-99999999999999.0, 3,10,20
23,907856349.2022899,99999999999999.0, 1, 1,10,-99999999999999.0,22,16,40
59,893160000.0,99999999999999.0, 1, 1,10,-99999999999999.0, 1, 8,10
521,9556862846.113998,99999999999999.0,27,15,30,-99999999999999.0, 6, 8,20
637,148131332979.77325,99999999999999.0,27,15,30,-99999999999999.0, 1, 1,10
649,148131332979.77325,99999999999999.0,27,15,30,-99999999999999.0, 1, 1,10
4,365,12
11,10438186795.738588,99999999999999.0,11,19,10,-99999999999999.0, 3,10,20
23,949236175.3547812,99999999999999.0, 1, 1,10,-99999999999999.0,22,16,40
59,933840000.0,99999999999999.0, 1, 1,10,-99999999999999.0, 1, 8,10
521,9488950620.383821,99999999999999.0,27,15,30,-99999999999999.0, 6, 8,20
637,180100856154.41013,99999999999999.0,27,15,30,-99999999999999.0, 1, 1,10
649,180100856154.41013,99999999999999.0,27,15,30,-99999999999999.0, 1, 1,10
5,365
13,113128442881.38887,30000.0, 4,11,19,10,3234928.714908527, 9, 3,10,20
25,11250283480.340155,30000.0, 1, 1, 1,10,629427.5517200283,10,22,16,40
61,11066760000.0,30000.0, 1, 1, 1,10,600000.0, 1, 1, 8,10
523,101878159401.04436,0.0, 3,27,15,30,2623548.0285898154, 8, 6, 8,20
639,1325093356573.3982,0.0, 3,27,15,30,41250000.0, 1, 1, 1,10
651,1325093356573.3982,0.0, 3,27,15,30,41250000.0, 1, 1, 1,10
1,RUN PERIOD 2,  41.98, -87.92,  -6.00, 201.00
4,1, 7
11,184666961.15917823,99999999999999.0,11,19,10,-99999999999999.0, 3,10,20
23,41379826.15248975,99999999999999.0, 1, 1,10,-99999999999999.0,22,16,40
59,40680000.0,99999999999999.0, 1, 1,10,-99999999999999.0, 1, 8,10
521,143287135.0066886,99999999999999.0,27,15,30,-99999999999999.0, 6, 8,20
637,0.0,99999999999999.0,27,15,30,-99999999999999.0, 1, 1,10
649,0.0,99999999999999.0,27,15,30,-99999999999999.0, 1, 1,10
5,1
13,184666961.15917823,99999999999999.0, 4,11,19,10,-99999999999999.0, 9, 3,10,20
25,41379826.15248975,99999999999999.0, 1, 1, 1,10,-99999999999999.0,10,22,16,40
61,40680000.0,99999999999999.0, 1, 1, 1,10,-99999999999999.0, 1, 1, 8,10
523,143287135.0066886,99999999999999.0, 3,27,15,30,-99999999999999.0, 8, 6, 8,20
639,0.0,99999999999999.0, 3,27,15,30,-99999999999999.0, 1, 1, 1,10
651,0.0,99999999999999.0, 3,27,15,30,-99999999999999.0, 1, 1, 1,10
End of Data
 Number of Records Written=          90
